unknown system                          
            1
     9.726678    0.000000    0.000000
     0.000000    8.423550    0.000000
     0.000000    0.000000   45.000000
   Fe   Mn
 273  15
Direct configuration=     1
   0.31229809  0.70651657  0.47868212
   0.43759888  0.77663917  0.12371920
   0.06312121  0.02779448  0.12370000
   0.93639835  0.96907595  0.83370129
   0.18742070  0.95138141  0.34515556
   0.31218496  0.20138853  0.34509666
   0.31227356  0.02719562  0.12379340
   0.93789670  0.62959334  0.78869010
   0.56218756  0.69843041  0.21114628
   0.93789697  0.60968229  0.16625345
   0.81277281  0.54886188  0.87633449
   0.81185296  0.54584155  0.74440820
   0.93735073  0.45646347  0.56546528
   0.56191902  0.37627682  0.65513369
   0.43659034  0.62662590  0.65492535
   0.06208400  0.54923605  0.87631660
   0.68683545  0.30196772  0.87630849
   0.81298860  0.86749810  0.30009424
   0.56295919  0.71067350  0.69979948
   0.68728417  0.45568965  0.47863948
   0.43892981  0.96034373  0.69986746
   0.56311907  0.52751634  0.12370919
   0.31273471  0.54116393  0.61085062
   0.81312144  0.04031667  0.61060633
   0.68756117  0.28165442  0.25566170
   0.31216515  0.37097665  0.43465327
   0.81223508  0.69847530  0.21123950
   0.18700486  0.96866902  0.83357814
   0.18856046  0.28278729  0.25577241
   0.81291171  0.20648262  0.47860484
   0.81237244  0.19868367  0.21118198
   0.43769928  0.29105225  0.61077997
   0.18787299  0.80269566  0.87617402
   0.68795956  0.61743138  0.29994726
   0.81160488  0.37645469  0.65501980
   0.31258239  0.03253255  0.25568618
   0.43819955  0.62943823  0.78881471
   0.18765459  0.45652244  0.47864790
   0.31279099  0.87125814  0.52145599
   0.56125988  0.71914635  0.83363509
   0.56244354  0.04564476  0.74424441
   0.43753730  0.44792054  0.21116699
   0.56296212  0.04044533  0.61066648
   0.68851711  0.79083161  0.61085142
   0.06150326  0.22007802  0.83383611
   0.06236380  0.20120252  0.34508323
   0.31299089  0.53740668  0.38914109
   0.56213721  0.53704893  0.38936763
   0.43809789  0.61737472  0.30005971
   0.93811075  0.29075751  0.61086027
   0.43800921  0.10934908  0.16634192
   0.31192353  0.37654699  0.65489954
   0.56255383  0.20674470  0.56554882
   0.93750849  0.94780421  0.21131606
   0.56341875  0.88030345  0.78871841
   0.68812270  0.62935526  0.78874771
   0.68659277  0.62538814  0.65500069
   0.18828679  0.46038946  0.69986815
   0.81350235  0.21101253  0.69976005
   0.06157150  0.70652310  0.56546517
   0.18788842  0.79621674  0.74440507
   0.68719440  0.27741166  0.12366459
   0.18803439  0.78184041  0.25569552
   0.93742643  0.45643528  0.47859334
   0.43631912  0.79638185  0.74432607
   0.68782352  0.12178037  0.43454664
   0.68688879  0.29584712  0.74437968
   0.43726181  0.62147714  0.52135734
   0.93803299  0.10968310  0.16623414
   0.93790300  0.95140147  0.34518056
   0.43677195  0.46885769  0.83356340
   0.81222522  0.52749950  0.12368256
   0.18733575  0.45651973  0.56542622
   0.43808284  0.79097712  0.61089647
   0.68736054  0.11736086  0.30009011
   0.93769072  0.28671624  0.38921474
   0.68670351  0.12661567  0.65497171
   0.31238429  0.20711193  0.56550246
   0.18751206  0.62166772  0.52147439
   0.06279601  0.54069879  0.61079348
   0.31176730  0.21835846  0.83345932
   0.56279751  0.02776987  0.12372287
   0.56229362  0.87097722  0.43461070
   0.56286634  0.35917419  0.16622800
   0.68767576  0.77716915  0.12368432
   0.06272113  0.36689321  0.30001430
   0.93716573  0.80218449  0.87642151
   0.31293906  0.88053411  0.78865498
   0.56102265  0.54942505  0.87615270
   0.18783620  0.45178367  0.34519771
   0.18831565  0.29102372  0.61061314
   0.43795749  0.46044527  0.69987265
   0.18734889  0.12135485  0.52139107
   0.68663449  0.78677819  0.38921008
   0.06223850  0.87084912  0.43448691
   0.31309023  0.71077716  0.69989123
   0.18757713  0.10896045  0.16617476
   0.06194482  0.54515101  0.74425368
   0.81251061  0.37125742  0.43455895
   0.18695561  0.62639282  0.65487610
   0.18698210  0.12586748  0.65487440
   0.43727003  0.95638654  0.56559435
   0.06319977  0.53670344  0.38931478
   0.93799982  0.96016197  0.69986182
   0.43730260  0.95644876  0.47863479
   0.56286649  0.85917884  0.16633787
   0.18627395  0.46821923  0.83373481
   0.18751278  0.44784693  0.21117616
   0.93760589  0.11710934  0.29998889
   0.43741569  0.12158138  0.43473154
   0.43773470  0.95082946  0.34511986
   0.31349889  0.03634741  0.38913940
   0.06244805  0.19852725  0.21123022
   0.43749978  0.30201958  0.87622199
   0.18757329  0.62939283  0.78886363
   0.31286273  0.05000828  0.87622994
   0.93706932  0.45087508  0.34520424
   0.31304089  0.04056047  0.61078361
   0.18766784  0.12967874  0.78879720
   0.18765133  0.95614858  0.47862272
   0.06336444  0.04936256  0.87621492
   0.18752678  0.77723253  0.12365311
   0.43683359  0.29576412  0.74427826
   0.56244336  0.20627584  0.47864637
   0.81245658  0.71979751  0.83373177
   0.18736651  0.62146644  0.43456699
   0.81185465  0.20635826  0.56562727
   0.31302092  0.86678627  0.29999251
   0.18738158  0.28648080  0.38933643
   0.68714148  0.80319326  0.87625323
   0.81252883  0.70162542  0.34510323
   0.31228226  0.20619357  0.47870187
   0.81195976  0.87648682  0.65499248
   0.18678638  0.61725447  0.30015465
   0.93795985  0.27672892  0.12374984
   0.93750763  0.12926920  0.78878806
   0.06259738  0.35903732  0.16618434
   0.06174155  0.03264712  0.25558916
   0.68787573  0.29080639  0.61073557
   0.93708435  0.12175940  0.52138231
   0.68675429  0.79533784  0.74434035
   0.31239145  0.70677990  0.56552074
   0.93725731  0.79123856  0.61074577
   0.06229734  0.20658275  0.56552330
   0.06231072  0.70644225  0.47862085
   0.18811029  0.11751229  0.30020217
   0.43739129  0.80193238  0.87632097
   0.06299210  0.03697274  0.38928118
   0.06267026  0.87135377  0.52136638
   0.81226721  0.87084827  0.43486633
   0.81186634  0.21998560  0.83374321
   0.06363933  0.38041268  0.78859715
   0.31301681  0.69817311  0.21126029
   0.68717345  0.95162269  0.34501015
   0.43622533  0.12588479  0.65506500
   0.31202974  0.54543048  0.74428129
   0.18741632  0.27707340  0.12366436
   0.43821638  0.12941141  0.78884170
   0.43782066  0.12122062  0.52138626
   0.68732970  0.45622477  0.56559851
   0.56304189  0.36797108  0.29988525
   0.43767807  0.60961594  0.16627798
   0.06107769  0.71867674  0.83375858
   0.43740004  0.94841713  0.21117311
   0.56197949  0.87649965  0.65496980
   0.68788030  0.10902976  0.16620376
   0.18713619  0.94806353  0.21116984
   0.93758588  0.62111068  0.43454563
   0.68775934  0.62149815  0.52141890
   0.56223868  0.03317433  0.25559024
   0.31156906  0.70086272  0.34500916
   0.93756626  0.95607744  0.56550405
   0.93734372  0.61708096  0.29998791
   0.56167555  0.37164282  0.43463088
   0.18750883  0.30192480  0.87625632
   0.06202981  0.53260968  0.25574238
   0.81321510  0.53654592  0.38908564
   0.43709339  0.45679335  0.56555832
   0.93763370  0.30262453  0.87632108
   0.81257495  0.37141268  0.52141966
   0.81280767  0.54021714  0.61076113
   0.56353374  0.54079888  0.61084260
   0.93784397  0.95655237  0.47867588
   0.68851708  0.45110615  0.34508259
   0.31242751  0.85964571  0.16612574
   0.56288179  0.70636941  0.56528352
   0.06274457  0.52735859  0.12371473
   0.81262516  0.85914815  0.16621472
   0.56127572  0.04975423  0.87624673
   0.06286320  0.69859229  0.21116663
   0.68710229  0.46804141  0.83380717
   0.43663340  0.96871688  0.83355922
   0.56203058  0.54531856  0.74420583
   0.43732941  0.62128700  0.43469863
   0.56208302  0.20096966  0.34518665
   0.31248576  0.37150393  0.52148495
   0.31257172  0.35921207  0.16630339
   0.43711173  0.11771343  0.30005071
   0.81271916  0.53336231  0.25566513
   0.93752290  0.62145671  0.52143126
   0.56164618  0.21895545  0.83358136
   0.18821577  0.79108283  0.61077007
   0.93735397  0.12665200  0.65508365
   0.18767787  0.96033560  0.69982848
   0.18720877  0.12135857  0.43453868
   0.56283469  0.19847052  0.21120349
   0.93738802  0.29605649  0.74426366
   0.31269152  0.36715595  0.30002991
   0.18803980  0.60901178  0.16622264
   0.68819136  0.78217605  0.25567118
   0.56229420  0.87160966  0.52132362
   0.81291225  0.03211158  0.25567865
   0.68718550  0.94794519  0.21113504
   0.81235800  0.38002438  0.78862126
   0.68763667  0.44767638  0.21117156
   0.81190953  0.04520611  0.74438368
   0.06323260  0.86672869  0.30017080
   0.06299264  0.85898872  0.16626021
   0.18683289  0.95613525  0.56539188
   0.06314772  0.71024695  0.69970743
   0.56331539  0.21006775  0.69983537
   0.56247788  0.70156309  0.34516850
   0.31179793  0.71832996  0.83363039
   0.43770540  0.45222140  0.34510794
   0.81243445  0.70666244  0.56548167
   0.18809731  0.78668750  0.38920420
   0.06221374  0.70176058  0.34518061
   0.93706326  0.62590420  0.65498422
   0.93702029  0.79499060  0.74418134
   0.06267934  0.37156753  0.52141153
   0.06197391  0.87660688  0.65495294
   0.56321669  0.38032902  0.78878706
   0.43765024  0.45582553  0.47868195
   0.06260021  0.20613512  0.47871531
   0.06184676  0.37663870  0.65500045
   0.81378972  0.70989911  0.69992837
   0.68757869  0.60914588  0.16627234
   0.18696970  0.29567380  0.74440868
   0.31270422  0.87105743  0.43457777
   0.43713766  0.78164677  0.25559947
   0.68803069  0.96031307  0.69984075
   0.68738983  0.95641190  0.47879386
   0.56229621  0.37138226  0.52141080
   0.81194033  0.02743688  0.12376413
   0.93715867  0.44800019  0.21128209
   0.56295949  0.86695807  0.30010634
   0.68834690  0.12951871  0.78869155
   0.93736977  0.77644102  0.12375737
   0.68711733  0.62126615  0.43460764
   0.06337763  0.04115994  0.61071979
   0.68792630  0.12210127  0.52146835
   0.31211874  0.52753451  0.12369508
   0.31338135  0.55022239  0.87609181
   0.68760662  0.28561486  0.38921274
   0.06279952  0.21013566  0.69981498
   0.31341638  0.20966091  0.69982675
   0.93714034  0.78615710  0.38907434
   0.68806223  0.46066182  0.69970812
   0.81275879  0.70603639  0.47862259
   0.06281088  0.88044008  0.78886775
   0.06248534  0.37121015  0.43454287
   0.31227363  0.19881415  0.21125016
   0.06199027  0.04565757  0.74422489
   0.93735730  0.12132497  0.43447222
   0.31278749  0.38023547  0.78871434
   0.68643165  0.96826569  0.83378364
   0.81251762  0.35915807  0.16628224
   0.81181146  0.04900549  0.87626867
   0.81255933  0.36679610  0.30024560
   0.43783861  0.27656773  0.12372409
   0.56154712  0.53163006  0.25583369
   0.43780108  0.28605866  0.38911939
   0.81248349  0.03730000  0.38932807
   0.93633521  0.46899446  0.83450700
   0.68636204  0.95756600  0.56591475
   0.31185725  0.87648185  0.65482878
   0.81126743  0.20164510  0.34523171
   0.93860293  0.46029140  0.69971901
   0.81347203  0.88040387  0.78853259
   0.56268358  0.70622123  0.47870009
   0.43856524  0.28167086  0.25578915
   0.56373719  0.03769903  0.38899523
   0.43772052  0.78629573  0.38910167
   0.93887648  0.28147590  0.25554590
   0.93770468  0.78249641  0.25563374
   0.81242633  0.87160686  0.52124030
   0.31187140  0.53312025  0.25560985
   0.31143079  0.04543849  0.74429988
Direct configuration=     2
   0.31222257  0.70618387  0.47860825
   0.43751741  0.77673147  0.12368452
   0.06336945  0.02785944  0.12366174
   0.93651121  0.96892986  0.83364458
   0.18726881  0.95139036  0.34520924
   0.31216416  0.20144238  0.34515768
   0.31236883  0.02712621  0.12373436
   0.93792960  0.62982441  0.78859191
   0.56209673  0.69810980  0.21118713
   0.93795751  0.60964195  0.16610780
   0.81277714  0.54897813  0.87620014
   0.81189675  0.54599248  0.74432473
   0.93747383  0.45642942  0.56560254
   0.56187332  0.37620744  0.65517146
   0.43658552  0.62681329  0.65502443
   0.06211145  0.54939981  0.87618311
   0.68685228  0.30164957  0.87617955
   0.81310816  0.86743436  0.30022355
   0.56285406  0.71069670  0.69982385
   0.68731349  0.45552283  0.47857633
   0.43864972  0.96026826  0.69985845
   0.56292642  0.52757393  0.12368323
   0.31265093  0.54123897  0.61087579
   0.81299738  0.04044241  0.61069431
   0.68773447  0.28182132  0.25563642
   0.31209904  0.37107937  0.43468376
   0.81233397  0.69809797  0.21129223
   0.18714074  0.96853487  0.83355241
   0.18829636  0.28263020  0.25574462
   0.81294703  0.20618582  0.47855102
   0.81244494  0.19853733  0.21123229
   0.43762120  0.29111154  0.61080661
   0.18791004  0.80264281  0.87604991
   0.68806983  0.61743441  0.30004961
   0.81187621  0.37640360  0.65505770
   0.31226998  0.03247227  0.25567102
   0.43821062  0.62948386  0.78867230
   0.18764671  0.45616548  0.47857999
   0.31275598  0.87155352  0.52148929
   0.56129447  0.71896936  0.83354751
   0.56245097  0.04565635  0.74420599
   0.43739680  0.44781287  0.21116416
   0.56294796  0.04040077  0.61072083
   0.68838997  0.79086659  0.61089712
   0.06162207  0.21983973  0.83377532
   0.06221789  0.20127727  0.34512287
   0.31285962  0.53730319  0.38927989
   0.56230258  0.53697422  0.38946403
   0.43806402  0.61734429  0.30016820
   0.93812506  0.29084073  0.61086715
   0.43783768  0.10962029  0.16617859
   0.31188322  0.37657828  0.65498290
   0.56248134  0.20672379  0.56564598
   0.93763283  0.94802791  0.21136956
   0.56320445  0.88023194  0.78862051
   0.68785665  0.62963279  0.78863751
   0.68673878  0.62564877  0.65505146
   0.18831645  0.46053504  0.69988362
   0.81336499  0.21089624  0.69977382
   0.06168944  0.70623922  0.56557360
   0.18775840  0.79597634  0.74433453
   0.68718009  0.27756089  0.12363990
   0.18797570  0.78195545  0.25569848
   0.93754362  0.45611159  0.47852547
   0.43655351  0.79606756  0.74427084
   0.68777630  0.12173399  0.43457336
   0.68674062  0.29595483  0.74434338
   0.43733193  0.62157996  0.52140146
   0.93810027  0.11002055  0.16610918
   0.93782024  0.95145781  0.34522047
   0.43679295  0.46857543  0.83349941
   0.81227941  0.52735310  0.12364787
   0.18730424  0.45653918  0.56554711
   0.43791071  0.79104528  0.61096009
   0.68753966  0.11735055  0.30016662
   0.93770571  0.28677213  0.38930148
   0.68678789  0.12629535  0.65503355
   0.31232221  0.20716339  0.56559385
   0.18744873  0.62174249  0.52151090
   0.06275094  0.54076589  0.61080910
   0.31184477  0.21807435  0.83341937
   0.56245213  0.02760312  0.12370237
   0.56227209  0.87101041  0.43461121
   0.56267445  0.35941198  0.16609263
   0.68742036  0.77707940  0.12365471
   0.06268793  0.36703912  0.30009450
   0.93719334  0.80201157  0.87627327
   0.31294074  0.88044530  0.78856954
   0.56099722  0.54957693  0.87600944
   0.18766291  0.45175925  0.34524419
   0.18818342  0.29114412  0.61064820
   0.43776291  0.46050633  0.69993392
   0.18735499  0.12169538  0.52143299
   0.68689427  0.78671621  0.38931009
   0.06232565  0.87086249  0.43449076
   0.31300791  0.71077755  0.69988168
   0.18776388  0.10934329  0.16602937
   0.06196259  0.54541398  0.74417178
   0.81258721  0.37135754  0.43457625
   0.18701664  0.62660029  0.65496597
   0.18713231  0.12572589  0.65493989
   0.43722538  0.95640992  0.56569984
   0.06304863  0.53663929  0.38943078
   0.93793312  0.96003604  0.69987361
   0.43726445  0.95623626  0.47856419
   0.56268319  0.85931999  0.16616445
   0.18634657  0.46798722  0.83365611
   0.18744306  0.44763099  0.21123247
   0.93776853  0.11690260  0.30010593
   0.43733678  0.12153770  0.43475249
   0.43780537  0.95081052  0.34515133
   0.31319624  0.03638947  0.38927659
   0.06268250  0.19850827  0.21128556
   0.43741972  0.30175437  0.87608044
   0.18764038  0.62956078  0.78874533
   0.31277525  0.05016597  0.87609197
   0.93705136  0.45094766  0.34522702
   0.31301468  0.04044211  0.61085433
   0.18768984  0.12992420  0.78870140
   0.18757920  0.95608848  0.47856188
   0.06348404  0.04961186  0.87608248
   0.18778415  0.77726051  0.12361697
   0.43689295  0.29589909  0.74421720
   0.56241848  0.20604091  0.47859742
   0.81241086  0.71942761  0.83364410
   0.18733389  0.62141819  0.43459351
   0.81202346  0.20636962  0.56573242
   0.31282331  0.86671118  0.30004949
   0.18726273  0.28650151  0.38945143
   0.68709052  0.80309927  0.87612039
   0.81251937  0.70159490  0.34513629
   0.31215986  0.20603413  0.47863956
   0.81196664  0.87643077  0.65505907
   0.18658343  0.61720815  0.30019629
   0.93808117  0.27695296  0.12370796
   0.93758898  0.12944697  0.78871952
   0.06276764  0.35926737  0.16606406
   0.06208559  0.03267457  0.25561179
   0.68789601  0.29078991  0.61074574
   0.93719381  0.12197171  0.52143894
   0.68679919  0.79521773  0.74428633
   0.31233221  0.70659329  0.56564993
   0.93729608  0.79112766  0.61079259
   0.06233463  0.20672564  0.56562094
   0.06237110  0.70611033  0.47855317
   0.18781064  0.11758906  0.30021283
   0.43729099  0.80188230  0.87618502
   0.06289060  0.03694298  0.38937030
   0.06268563  0.87149185  0.52140262
   0.81221944  0.87087129  0.43485912
   0.81186701  0.21975747  0.83367344
   0.06370596  0.38044406  0.78853977
   0.31283344  0.69793597  0.21125790
   0.68737849  0.95143479  0.34508407
   0.43626299  0.12566462  0.65513492
   0.31219716  0.54544211  0.74423858
   0.18747985  0.27707406  0.12364676
   0.43818895  0.12981708  0.78873491
   0.43776133  0.12156490  0.52143716
   0.68736475  0.45620396  0.56570941
   0.56312843  0.36809198  0.30002690
   0.43760901  0.60976841  0.16611664
   0.06121513  0.71843445  0.83367102
   0.43728971  0.94848330  0.21121322
   0.56198629  0.87632904  0.65502382
   0.68768356  0.10928973  0.16607113
   0.18714439  0.94804957  0.21125268
   0.93769328  0.62110805  0.43454887
   0.68760466  0.62178648  0.52146500
   0.56232042  0.03297258  0.25558537
   0.31170053  0.70091753  0.34505568
   0.93754527  0.95611541  0.56559524
   0.93746548  0.61690291  0.30011119
   0.56173186  0.37171348  0.43464784
   0.18751566  0.30168503  0.87613913
   0.06210396  0.53246111  0.25574314
   0.81326220  0.53651658  0.38916304
   0.43702952  0.45678247  0.56566570
   0.93762039  0.30230672  0.87620340
   0.81261296  0.37168952  0.52147614
   0.81284197  0.54038340  0.61077839
   0.56346466  0.54092843  0.61086006
   0.93788471  0.95640527  0.47860999
   0.68853728  0.45127313  0.34514352
   0.31254289  0.85980674  0.16595733
   0.56283376  0.70632342  0.56539130
   0.06281775  0.52716391  0.12367298
   0.81250058  0.85932230  0.16608163
   0.56125717  0.04999100  0.87612488
   0.06303775  0.69810215  0.21123599
   0.68708763  0.46792280  0.83371205
   0.43667431  0.96855255  0.83351717
   0.56200606  0.54549962  0.74418646
   0.43731831  0.62127286  0.43471815
   0.56218519  0.20118680  0.34522406
   0.31243061  0.37174175  0.52152800
   0.31254291  0.35942916  0.16619219
   0.43706924  0.11757354  0.30015676
   0.81262899  0.53313083  0.25568411
   0.93766463  0.62171500  0.52148914
   0.56163273  0.21863382  0.83353414
   0.18828362  0.79103662  0.61084148
   0.93737312  0.12646294  0.65512285
   0.18797341  0.96017606  0.69982357
   0.18725937  0.12140663  0.43457959
   0.56272415  0.19845188  0.21121925
   0.93737495  0.29624256  0.74420516
   0.31244775  0.36723630  0.30015209
   0.18808521  0.60906678  0.16609404
   0.68803540  0.78207808  0.25569732
   0.56235972  0.87172020  0.52138201
   0.81283853  0.03221168  0.25568244
   0.68726102  0.94795411  0.21119539
   0.81229144  0.38011327  0.78856360
   0.68761962  0.44753642  0.21125293
   0.81189093  0.04504999  0.74431767
   0.06309881  0.86683044  0.30026076
   0.06312163  0.85920852  0.16613560
   0.18694079  0.95617894  0.56551028
   0.06316026  0.71010641  0.69971466
   0.56309163  0.21002336  0.69987477
   0.56263429  0.70157504  0.34520404
   0.31183963  0.71828957  0.83356587
   0.43779412  0.45229651  0.34516574
   0.81248364  0.70652503  0.56560420
   0.18786293  0.78660963  0.38933372
   0.06205044  0.70176220  0.34520834
   0.93717170  0.62593939  0.65505035
   0.93707572  0.79502547  0.74414093
   0.06278855  0.37182495  0.52145886
   0.06210318  0.87642664  0.65500989
   0.56294425  0.38041820  0.78866457
   0.43748890  0.45560624  0.47861533
   0.06268305  0.20597798  0.47863515
   0.06192061  0.37666265  0.65505205
   0.81370200  0.71004883  0.69992700
   0.68746773  0.60926384  0.16610656
   0.18727332  0.29575605  0.74433887
   0.31271918  0.87108185  0.43458897
   0.43720306  0.78177135  0.25561044
   0.68787801  0.96022865  0.69984869
   0.68742827  0.95618324  0.47873938
   0.56218176  0.37170432  0.52145898
   0.81199564  0.02747059  0.12373017
   0.93740201  0.44801542  0.21133025
   0.56301670  0.86686676  0.30020414
   0.68811051  0.12973325  0.78860302
   0.93746611  0.77635235  0.12370382
   0.68710622  0.62132343  0.43460413
   0.06330898  0.04126130  0.61078097
   0.68784392  0.12220106  0.52151364
   0.31221455  0.52750758  0.12368483
   0.31331290  0.55031043  0.87595664
   0.68775597  0.28581448  0.38930767
   0.06290171  0.21030270  0.69980997
   0.31339793  0.20987545  0.69986543
   0.93715108  0.78617288  0.38918248
   0.68795487  0.46085100  0.69978377
   0.81276652  0.70580747  0.47856260
   0.06294456  0.88032957  0.78875905
   0.06253199  0.37132369  0.43457953
   0.31216595  0.19887459  0.21127598
   0.06200996  0.04548057  0.74419721
   0.93743855  0.12140515  0.43449947
   0.31286805  0.38035191  0.78859539
   0.68635450  0.96821466  0.83372949
   0.81255427  0.35942406  0.16615259
   0.81172464  0.04923049  0.87613864
   0.81274735  0.36708556  0.30034602
   0.43767073  0.27656450  0.12371395
   0.56193842  0.53177188  0.25580090
   0.43765881  0.28623563  0.38925279
   0.81267600  0.03715186  0.38940882
   0.93644957  0.46883785  0.83441260
   0.68647667  0.95742161  0.56602172
   0.31192677  0.87628258  0.65488929
   0.81156720  0.20164138  0.34530877
   0.93865693  0.46066267  0.69977774
   0.81328057  0.88025271  0.78839086
   0.56267925  0.70603604  0.47865413
   0.43837485  0.28153883  0.25570841
   0.56382765  0.03757560  0.38913912
   0.43768693  0.78614029  0.38926446
   0.93892592  0.28161586  0.25555011
   0.93787957  0.78235075  0.25567451
   0.81231126  0.87177854  0.52128427
   0.31159009  0.53309634  0.25557712
   0.31161129  0.04555722  0.74423590
Direct configuration=     3
   0.31220992  0.70612814  0.47859588
   0.43750377  0.77674693  0.12367872
   0.06341103  0.02787032  0.12365533
   0.93653011  0.96890539  0.83363508
   0.18724337  0.95139186  0.34521823
   0.31216068  0.20145140  0.34516790
   0.31238479  0.02711458  0.12372447
   0.93793511  0.62986311  0.78857546
   0.56208151  0.69805609  0.21119397
   0.93796766  0.60963519  0.16608341
   0.81277787  0.54899761  0.87617764
   0.81190408  0.54601776  0.74431075
   0.93749445  0.45642372  0.56562554
   0.56186567  0.37619582  0.65517779
   0.43658471  0.62684468  0.65504103
   0.06211604  0.54942724  0.87616075
   0.68685510  0.30159627  0.87615796
   0.81312819  0.86742368  0.30024521
   0.56283644  0.71070059  0.69982793
   0.68731840  0.45549488  0.47856575
   0.43860280  0.96025562  0.69985694
   0.56289415  0.52758358  0.12367888
   0.31263690  0.54125154  0.61088000
   0.81297660  0.04046347  0.61070905
   0.68776350  0.28184928  0.25563219
   0.31208796  0.37109658  0.43468886
   0.81235054  0.69803477  0.21130107
   0.18716350  0.96851239  0.83354810
   0.18825212  0.28260389  0.25573996
   0.81295294  0.20613610  0.47854200
   0.81245708  0.19851282  0.21124072
   0.43760812  0.29112148  0.61081108
   0.18791625  0.80263395  0.87602913
   0.68808830  0.61743492  0.30006675
   0.81192166  0.37639505  0.65506404
   0.31221764  0.03246218  0.25566848
   0.43821247  0.62949151  0.78864845
   0.18764539  0.45610568  0.47856861
   0.31275011  0.87160300  0.52149487
   0.56130026  0.71893971  0.83353284
   0.56245222  0.04565829  0.74419956
   0.43737327  0.44779483  0.21116368
   0.56294559  0.04039331  0.61072994
   0.68836867  0.79087245  0.61090477
   0.06164197  0.21979981  0.83376513
   0.06219345  0.20128979  0.34512951
   0.31283763  0.53728585  0.38930314
   0.56233028  0.53696171  0.38948017
   0.43805835  0.61733919  0.30018638
   0.93812746  0.29085467  0.61086830
   0.43780895  0.10966573  0.16615124
   0.31187647  0.37658352  0.65499686
   0.56246920  0.20672029  0.56566225
   0.93765365  0.94806538  0.21137852
   0.56316855  0.88021996  0.78860411
   0.68781209  0.62967928  0.78861905
   0.68676324  0.62569243  0.65505997
   0.18832142  0.46055942  0.69988621
   0.81334198  0.21087676  0.69977613
   0.06170920  0.70619167  0.56559176
   0.18773662  0.79593607  0.74432271
   0.68717769  0.27758588  0.12363577
   0.18796587  0.78197471  0.25569897
   0.93756325  0.45605737  0.47851410
   0.43659278  0.79601491  0.74426159
   0.68776839  0.12172622  0.43457783
   0.68671580  0.29597287  0.74433730
   0.43734367  0.62159718  0.52140885
   0.93811154  0.11007707  0.16608825
   0.93780638  0.95146724  0.34522715
   0.43679647  0.46852815  0.83348870
   0.81228848  0.52732858  0.12364206
   0.18729897  0.45654244  0.56556736
   0.43788188  0.79105669  0.61097074
   0.68756967  0.11734883  0.30017944
   0.93770822  0.28678149  0.38931601
   0.68680202  0.12624170  0.65504391
   0.31231181  0.20717201  0.56560916
   0.18743812  0.62175501  0.52151701
   0.06274339  0.54077713  0.61081172
   0.31185775  0.21802676  0.83341267
   0.56239428  0.02757519  0.12369894
   0.56226848  0.87101597  0.43461130
   0.56264231  0.35945181  0.16606995
   0.68737758  0.77706436  0.12364975
   0.06268237  0.36706356  0.30010793
   0.93719797  0.80198261  0.87624844
   0.31294102  0.88043042  0.78855523
   0.56099296  0.54960237  0.87598544
   0.18763389  0.45175516  0.34525198
   0.18816127  0.29116429  0.61065407
   0.43773032  0.46051655  0.69994418
   0.18735602  0.12175242  0.52144001
   0.68693778  0.78670583  0.38932684
   0.06234024  0.87086473  0.43449141
   0.31299413  0.71077762  0.69988008
   0.18779516  0.10940742  0.16600501
   0.06196557  0.54545803  0.74415806
   0.81260004  0.37137431  0.43457915
   0.18702686  0.62663504  0.65498103
   0.18715747  0.12570218  0.65495086
   0.43721790  0.95641384  0.56571751
   0.06302331  0.53662854  0.38945021
   0.93792194  0.96001494  0.69987559
   0.43725806  0.95620066  0.47855236
   0.56265249  0.85934363  0.16613540
   0.18635873  0.46794835  0.83364292
   0.18743138  0.44759482  0.21124190
   0.93779577  0.11686797  0.30012554
   0.43732357  0.12153038  0.43475600
   0.43781721  0.95080735  0.34515660
   0.31314555  0.03639651  0.38929958
   0.06272177  0.19850509  0.21129483
   0.43740631  0.30170994  0.87605673
   0.18765162  0.62958892  0.78872552
   0.31276060  0.05019239  0.87606886
   0.93704835  0.45095982  0.34523084
   0.31301029  0.04042228  0.61086618
   0.18769353  0.12996532  0.78868536
   0.18756711  0.95607841  0.47855169
   0.06350407  0.04965363  0.87606030
   0.18782726  0.77726519  0.12361092
   0.43690290  0.29592170  0.74420698
   0.56241432  0.20600156  0.47858922
   0.81240320  0.71936565  0.83362941
   0.18732843  0.62141010  0.43459796
   0.81205174  0.20637152  0.56575004
   0.31279021  0.86669861  0.30005903
   0.18724282  0.28650498  0.38947069
   0.68708198  0.80308352  0.87609813
   0.81251779  0.70158978  0.34514183
   0.31213936  0.20600743  0.47862912
   0.81196779  0.87642138  0.65507023
   0.18654943  0.61720039  0.30020326
   0.93810149  0.27699049  0.12370094
   0.93760261  0.12947675  0.78870804
   0.06279616  0.35930591  0.16604391
   0.06214323  0.03267917  0.25561558
   0.68789941  0.29078716  0.61074744
   0.93721214  0.12200727  0.52144843
   0.68680671  0.79519761  0.74427728
   0.31232229  0.70656203  0.56567157
   0.93730257  0.79110908  0.61080043
   0.06234088  0.20674958  0.56563730
   0.06238122  0.70605473  0.47854183
   0.18776045  0.11760191  0.30021461
   0.43727419  0.80187391  0.87616224
   0.06287359  0.03693799  0.38938523
   0.06268821  0.87151498  0.52140868
   0.81221144  0.87087514  0.43485791
   0.81186712  0.21971926  0.83366175
   0.06371713  0.38044932  0.78853016
   0.31280272  0.69789625  0.21125750
   0.68741283  0.95140332  0.34509645
   0.43626930  0.12562774  0.65514663
   0.31222521  0.54544406  0.74423143
   0.18749049  0.27707418  0.12364381
   0.43818436  0.12988503  0.78871703
   0.43775139  0.12162257  0.52144568
   0.68737062  0.45620047  0.56572799
   0.56314293  0.36811224  0.30005062
   0.43759745  0.60979395  0.16608961
   0.06123815  0.71839387  0.83365635
   0.43727123  0.94849438  0.21121994
   0.56198743  0.87630047  0.65503287
   0.68765060  0.10933328  0.16604892
   0.18714576  0.94804724  0.21126656
   0.93771127  0.62110761  0.43454941
   0.68757875  0.62183478  0.52147272
   0.56233411  0.03293879  0.25558455
   0.31172255  0.70092671  0.34506348
   0.93754176  0.95612177  0.56561051
   0.93748587  0.61687309  0.30013184
   0.56174129  0.37172532  0.43465068
   0.18751681  0.30164486  0.87611950
   0.06211638  0.53243622  0.25574327
   0.81327009  0.53651167  0.38917601
   0.43701882  0.45678064  0.56568368
   0.93761816  0.30225349  0.87618368
   0.81261932  0.37173589  0.52148560
   0.81284771  0.54041125  0.61078128
   0.56345308  0.54095013  0.61086299
   0.93789153  0.95638063  0.47859896
   0.68854067  0.45130110  0.34515373
   0.31256222  0.85983372  0.16592912
   0.56282572  0.70631571  0.56540935
   0.06283001  0.52713130  0.12366599
   0.81247971  0.85935147  0.16605933
   0.56125406  0.05003066  0.87610447
   0.06306699  0.69802005  0.21124761
   0.68708517  0.46790294  0.83369612
   0.43668116  0.96852503  0.83351013
   0.56200195  0.54552995  0.74418322
   0.43731646  0.62127050  0.43472142
   0.56220230  0.20122317  0.34523032
   0.31242138  0.37178159  0.52153521
   0.31253808  0.35946552  0.16617356
   0.43706212  0.11755010  0.30017453
   0.81261389  0.53309206  0.25568728
   0.93768837  0.62175827  0.52149883
   0.56163047  0.21857995  0.83352623
   0.18829498  0.79102888  0.61085344
   0.93737633  0.12643127  0.65512942
   0.18802291  0.96014934  0.69982274
   0.18726785  0.12141468  0.43458644
   0.56270563  0.19844876  0.21122190