 288 288   0   0
  0.1280206E+02  0.9726678E-09  0.8423550E-09  0.4500000E-08  0.2500000E-15
  1.000000000000000E-004
  CAR 
 unknown system                          
      6.84236554     -6.02452623  301      4.31660274      1.00000000
     -6.025  0.0000E+00  0.0000E+00
     -5.982  0.0000E+00  0.0000E+00
     -5.939  0.0000E+00  0.0000E+00
     -5.896  0.0000E+00  0.0000E+00
     -5.853  0.0000E+00  0.0000E+00
     -5.810  0.0000E+00  0.0000E+00
     -5.767  0.0000E+00  0.0000E+00
     -5.724  0.0000E+00  0.0000E+00
     -5.681  0.0000E+00  0.0000E+00
     -5.639  0.0000E+00  0.0000E+00
     -5.596  0.0000E+00  0.0000E+00
     -5.553  0.0000E+00  0.0000E+00
     -5.510  0.0000E+00  0.0000E+00
     -5.467  0.0000E+00  0.0000E+00
     -5.424  0.0000E+00  0.0000E+00
     -5.381  0.1941E-15  0.8327E-17
     -5.338  0.4724E-14  0.2109E-15
     -5.295  0.1016E-12  0.4567E-14
     -5.253  0.1853E-11  0.8406E-13
     -5.210  0.2877E-10  0.1318E-11
     -5.167  0.3800E-09  0.1762E-10
     -5.124  0.4271E-08  0.2008E-09
     -5.081  0.4086E-07  0.1953E-08
     -5.038  0.3329E-06  0.1623E-07
     -4.995  0.2311E-05  0.1153E-06
     -4.952  0.1369E-04  0.7024E-06
     -4.909  0.6925E-04  0.3672E-05
     -4.867  0.3000E-03  0.1654E-04
     -4.824  0.1117E-02  0.6443E-04
     -4.781  0.3589E-02  0.2183E-03
     -4.738  0.1003E-01  0.6485E-03
     -4.695  0.2460E-01  0.1703E-02
     -4.652  0.5359E-01  0.4002E-02
     -4.609  0.1050E+00  0.8507E-02
     -4.566  0.1876E+00  0.1655E-01
     -4.523  0.3087E+00  0.2980E-01
     -4.480  0.4715E+00  0.5002E-01
     -4.438  0.6722E+00  0.7885E-01
     -4.395  0.8989E+00  0.1174E+00
     -4.352  0.1133E+01  0.1660E+00
     -4.309  0.1350E+01  0.2239E+00
     -4.266  0.1531E+01  0.2896E+00
     -4.223  0.1664E+01  0.3609E+00
     -4.180  0.1751E+01  0.4360E+00
     -4.137  0.1814E+01  0.5138E+00
     -4.094  0.1881E+01  0.5945E+00
     -4.052  0.1984E+01  0.6796E+00
     -4.009  0.2144E+01  0.7715E+00
     -3.966  0.2362E+01  0.8728E+00
     -3.923  0.2615E+01  0.9850E+00
     -3.880  0.2863E+01  0.1108E+01
     -3.837  0.3061E+01  0.1239E+01
     -3.794  0.3174E+01  0.1375E+01
     -3.751  0.3195E+01  0.1512E+01
     -3.708  0.3145E+01  0.1647E+01
     -3.666  0.3074E+01  0.1779E+01
     -3.623  0.3037E+01  0.1909E+01
     -3.580  0.3079E+01  0.2041E+01
     -3.537  0.3216E+01  0.2179E+01
     -3.494  0.3433E+01  0.2326E+01
     -3.451  0.3688E+01  0.2485E+01
     -3.408  0.3927E+01  0.2653E+01
     -3.365  0.4107E+01  0.2829E+01
     -3.322  0.4203E+01  0.3009E+01
     -3.280  0.4220E+01  0.3190E+01
     -3.237  0.4189E+01  0.3370E+01
     -3.194  0.4158E+01  0.3548E+01
     -3.151  0.4176E+01  0.3728E+01
     -3.108  0.4278E+01  0.3911E+01
     -3.065  0.4465E+01  0.4103E+01
     -3.022  0.4711E+01  0.4305E+01
     -2.979  0.4968E+01  0.4518E+01
     -2.936  0.5184E+01  0.4740E+01
     -2.894  0.5323E+01  0.4968E+01
     -2.851  0.5379E+01  0.5199E+01
     -2.808  0.5380E+01  0.5430E+01
     -2.765  0.5380E+01  0.5660E+01
     -2.722  0.5426E+01  0.5893E+01
     -2.679  0.5525E+01  0.6130E+01
     -2.636  0.5633E+01  0.6372E+01
     -2.593  0.5680E+01  0.6615E+01
     -2.550  0.5631E+01  0.6857E+01
     -2.508  0.5522E+01  0.7094E+01
     -2.465  0.5462E+01  0.7328E+01
     -2.422  0.5573E+01  0.7567E+01
     -2.379  0.5926E+01  0.7821E+01
     -2.336  0.6480E+01  0.8099E+01
     -2.293  0.7081E+01  0.8403E+01
     -2.250  0.7519E+01  0.8725E+01
     -2.207  0.7635E+01  0.9053E+01
     -2.164  0.7421E+01  0.9371E+01
     -2.122  0.7037E+01  0.9673E+01
     -2.079  0.6737E+01  0.9962E+01
     -2.036  0.6729E+01  0.1025E+02
     -1.993  0.7076E+01  0.1055E+02
     -1.950  0.7674E+01  0.1088E+02
     -1.907  0.8311E+01  0.1124E+02
     -1.864  0.8771E+01  0.1162E+02
     -1.821  0.8940E+01  0.1200E+02
     -1.778  0.8857E+01  0.1238E+02
     -1.736  0.8680E+01  0.1275E+02
     -1.693  0.8585E+01  0.1312E+02
     -1.650  0.8661E+01  0.1349E+02
     -1.607  0.8891E+01  0.1387E+02
     -1.564  0.9195E+01  0.1427E+02
     -1.521  0.9501E+01  0.1467E+02
     -1.478  0.9780E+01  0.1509E+02
     -1.435  0.1003E+02  0.1552E+02
     -1.392  0.1025E+02  0.1596E+02
     -1.350  0.1043E+02  0.1641E+02
     -1.307  0.1056E+02  0.1686E+02
     -1.264  0.1074E+02  0.1732E+02
     -1.221  0.1113E+02  0.1780E+02
     -1.178  0.1188E+02  0.1831E+02
     -1.135  0.1295E+02  0.1887E+02
     -1.092  0.1411E+02  0.1947E+02
     -1.049  0.1501E+02  0.2012E+02
     -1.006  0.1546E+02  0.2078E+02
     -0.964  0.1550E+02  0.2144E+02
     -0.921  0.1550E+02  0.2211E+02
     -0.878  0.1588E+02  0.2279E+02
     -0.835  0.1688E+02  0.2351E+02
     -0.792  0.1852E+02  0.2431E+02
     -0.749  0.2063E+02  0.2519E+02
     -0.706  0.2317E+02  0.2619E+02
     -0.663  0.2624E+02  0.2731E+02
     -0.620  0.3001E+02  0.2860E+02
     -0.578  0.3443E+02  0.3008E+02
     -0.535  0.3912E+02  0.3175E+02
     -0.492  0.4346E+02  0.3362E+02
     -0.449  0.4700E+02  0.3563E+02
     -0.406  0.4967E+02  0.3776E+02
     -0.363  0.5168E+02  0.3998E+02
     -0.320  0.5335E+02  0.4227E+02
     -0.277  0.5485E+02  0.4462E+02
     -0.234  0.5612E+02  0.4703E+02
     -0.192  0.5702E+02  0.4947E+02
     -0.149  0.5748E+02  0.5194E+02
     -0.106  0.5759E+02  0.5441E+02
     -0.063  0.5761E+02  0.5688E+02
     -0.020  0.5781E+02  0.5936E+02
      0.023  0.5838E+02  0.6186E+02
      0.066  0.5946E+02  0.6441E+02
      0.109  0.6120E+02  0.6704E+02
      0.152  0.6370E+02  0.6977E+02
      0.194  0.6687E+02  0.7264E+02
      0.237  0.7045E+02  0.7566E+02
      0.280  0.7404E+02  0.7884E+02
      0.323  0.7732E+02  0.8215E+02
      0.366  0.8012E+02  0.8559E+02
      0.409  0.8241E+02  0.8912E+02
      0.452  0.8420E+02  0.9273E+02
      0.495  0.8550E+02  0.9640E+02
      0.538  0.8630E+02  0.1001E+03
      0.580  0.8657E+02  0.1038E+03
      0.623  0.8640E+02  0.1075E+03
      0.666  0.8588E+02  0.1112E+03
      0.709  0.8507E+02  0.1149E+03
      0.752  0.8388E+02  0.1184E+03
      0.795  0.8227E+02  0.1220E+03
      0.838  0.8039E+02  0.1254E+03
      0.881  0.7860E+02  0.1288E+03
      0.924  0.7728E+02  0.1321E+03
      0.966  0.7657E+02  0.1354E+03
      1.009  0.7629E+02  0.1387E+03
      1.052  0.7607E+02  0.1419E+03
      1.095  0.7560E+02  0.1452E+03
      1.138  0.7480E+02  0.1484E+03
      1.181  0.7389E+02  0.1516E+03
      1.224  0.7327E+02  0.1547E+03
      1.267  0.7321E+02  0.1578E+03
      1.310  0.7362E+02  0.1610E+03
      1.352  0.7396E+02  0.1642E+03
      1.395  0.7364E+02  0.1673E+03
      1.438  0.7240E+02  0.1704E+03
      1.481  0.7055E+02  0.1735E+03
      1.524  0.6877E+02  0.1764E+03
      1.567  0.6772E+02  0.1793E+03
      1.610  0.6775E+02  0.1822E+03
      1.653  0.6883E+02  0.1852E+03
      1.696  0.7072E+02  0.1882E+03
      1.738  0.7308E+02  0.1913E+03
      1.781  0.7559E+02  0.1946E+03
      1.824  0.7804E+02  0.1979E+03
      1.867  0.8029E+02  0.2014E+03
      1.910  0.8230E+02  0.2049E+03
      1.953  0.8410E+02  0.2085E+03
      1.996  0.8577E+02  0.2122E+03
      2.039  0.8737E+02  0.2159E+03
      2.082  0.8897E+02  0.2197E+03
      2.125  0.9056E+02  0.2236E+03
      2.167  0.9213E+02  0.2276E+03
      2.210  0.9369E+02  0.2316E+03
      2.253  0.9531E+02  0.2357E+03
      2.296  0.9723E+02  0.2399E+03
      2.339  0.9978E+02  0.2441E+03
      2.382  0.1032E+03  0.2486E+03
      2.425  0.1073E+03  0.2532E+03
      2.468  0.1119E+03  0.2580E+03
      2.511  0.1165E+03  0.2630E+03
      2.553  0.1206E+03  0.2681E+03
      2.596  0.1240E+03  0.2734E+03
      2.639  0.1264E+03  0.2789E+03
      2.682  0.1280E+03  0.2844E+03
      2.725  0.1289E+03  0.2899E+03
      2.768  0.1296E+03  0.2954E+03
      2.811  0.1307E+03  0.3011E+03
      2.854  0.1327E+03  0.3067E+03
      2.897  0.1357E+03  0.3126E+03
      2.939  0.1390E+03  0.3185E+03
      2.982  0.1415E+03  0.3246E+03
      3.025  0.1415E+03  0.3307E+03
      3.068  0.1380E+03  0.3366E+03
      3.111  0.1311E+03  0.3422E+03
      3.154  0.1220E+03  0.3474E+03
      3.197  0.1124E+03  0.3523E+03
      3.240  0.1041E+03  0.3567E+03
      3.283  0.9780E+02  0.3609E+03
      3.325  0.9379E+02  0.3649E+03
      3.368  0.9172E+02  0.3689E+03
      3.411  0.9093E+02  0.3728E+03
      3.454  0.9061E+02  0.3767E+03
      3.497  0.8999E+02  0.3805E+03
      3.540  0.8861E+02  0.3843E+03
      3.583  0.8655E+02  0.3880E+03
      3.626  0.8448E+02  0.3917E+03
      3.669  0.8330E+02  0.3952E+03
      3.711  0.8366E+02  0.3988E+03
      3.754  0.8560E+02  0.4025E+03
      3.797  0.8854E+02  0.4063E+03
      3.840  0.9170E+02  0.4102E+03
      3.883  0.9449E+02  0.4143E+03
      3.926  0.9675E+02  0.4184E+03
      3.969  0.9862E+02  0.4226E+03
      4.012  0.1003E+03  0.4269E+03
      4.055  0.1018E+03  0.4313E+03
      4.097  0.1028E+03  0.4357E+03
      4.140  0.1032E+03  0.4401E+03
      4.183  0.1029E+03  0.4446E+03
      4.226  0.1019E+03  0.4489E+03
      4.269  0.1007E+03  0.4533E+03
      4.312  0.9972E+02  0.4575E+03
      4.355  0.9917E+02  0.4618E+03
      4.398  0.9916E+02  0.4660E+03
      4.441  0.9956E+02  0.4703E+03
      4.483  0.1000E+03  0.4746E+03
      4.526  0.1002E+03  0.4789E+03
      4.569  0.9992E+02  0.4832E+03
      4.612  0.9920E+02  0.4874E+03
      4.655  0.9841E+02  0.4917E+03
      4.698  0.9807E+02  0.4959E+03
      4.741  0.9864E+02  0.5001E+03
      4.784  0.1003E+03  0.5044E+03
      4.827  0.1029E+03  0.5088E+03
      4.869  0.1060E+03  0.5134E+03
      4.912  0.1090E+03  0.5180E+03
      4.955  0.1115E+03  0.5228E+03
      4.998  0.1128E+03  0.5276E+03
      5.041  0.1121E+03  0.5325E+03
      5.084  0.1085E+03  0.5371E+03
      5.127  0.1009E+03  0.5414E+03
      5.170  0.8879E+02  0.5452E+03
      5.213  0.7293E+02  0.5484E+03
      5.255  0.5514E+02  0.5507E+03
      5.298  0.3793E+02  0.5524E+03
      5.341  0.2352E+02  0.5534E+03
      5.384  0.1305E+02  0.5539E+03
      5.427  0.6445E+01  0.5542E+03
      5.470  0.2825E+01  0.5543E+03
      5.513  0.1098E+01  0.5544E+03
      5.556  0.3780E+00  0.5544E+03
      5.599  0.1155E+00  0.5544E+03
      5.641  0.3134E-01  0.5544E+03
      5.684  0.7562E-02  0.5544E+03
      5.727  0.1622E-02  0.5544E+03
      5.770  0.3084E-03  0.5544E+03
      5.813  0.5182E-04  0.5544E+03
      5.856  0.7655E-05  0.5544E+03
      5.899  0.9891E-06  0.5544E+03
      5.942  0.1112E-06  0.5544E+03
      5.985  0.1082E-07  0.5544E+03
      6.027  0.9079E-09  0.5544E+03
      6.070  0.6549E-10  0.5544E+03
      6.113  0.4049E-11  0.5544E+03
      6.156  0.2134E-12  0.5544E+03
      6.199  0.9319E-14  0.5544E+03
      6.242  0.3883E-15  0.5544E+03
      6.285  0.0000E+00  0.5544E+03
      6.328  0.0000E+00  0.5544E+03
      6.371  0.0000E+00  0.5544E+03
      6.413  0.0000E+00  0.5544E+03
      6.456  0.0000E+00  0.5544E+03
      6.499  0.0000E+00  0.5544E+03
      6.542  0.0000E+00  0.5544E+03
      6.585  0.0000E+00  0.5544E+03
      6.628  0.0000E+00  0.5544E+03
      6.671  0.0000E+00  0.5544E+03
      6.714  0.0000E+00  0.5544E+03
      6.757  0.0000E+00  0.5544E+03
      6.799  0.0000E+00  0.5544E+03
      6.842  0.0000E+00  0.5544E+03
