unknown system                          
           1
     9.726678    0.000000    0.000000
     0.000000    8.423550    0.000000
     0.000000    0.000000   45.000000
   Fe   Mn
 274  14
Direct configuration=     1
   0.06159978  0.02947264  0.12406765
   0.31619569  0.87483894  0.65515095
   0.18486814  0.12288489  0.78860276
   0.44166480  0.28768460  0.38911492
   0.31765829  0.71357229  0.83307985
   0.81728872  0.21429237  0.83364025
   0.19156054  0.96430699  0.83347923
   0.56198023  0.20630527  0.56565998
   0.06512740  0.04055622  0.74422375
   0.81165357  0.87076764  0.52165053
   0.19056132  0.29057167  0.74416768
   0.93382912  0.45253378  0.34483724
   0.94080745  0.28661050  0.38889215
   0.81364268  0.04048140  0.87553597
   0.18401396  0.78831473  0.61100097
   0.56646510  0.03760821  0.38911086
   0.94221862  0.96471076  0.83357559
   0.31366522  0.54028364  0.87607258
   0.69006646  0.29123568  0.74418947
   0.18226958  0.61402772  0.16647519
   0.81245744  0.20551360  0.47882527
   0.80913974  0.53878487  0.61107165
   0.31193279  0.86965030  0.43450127
   0.80983923  0.03858734  0.25593399
   0.68319623  0.95230453  0.34475933
   0.93038538  0.11519773  0.16684625
   0.06190693  0.87132594  0.52150989
   0.55831816  0.53838049  0.25529568
   0.68644861  0.79583155  0.87591275
   0.55636232  0.36570332  0.16645535
   0.43986774  0.79155514  0.74445257
   0.81160032  0.70628380  0.56561399
   0.55998644  0.87282711  0.78859758
   0.68694548  0.12147299  0.52153067
   0.81608972  0.37492364  0.65505217
   0.94178789  0.46275584  0.83351611
   0.06028563  0.20789879  0.69973916
   0.43509437  0.95792984  0.69970475
   0.31657996  0.21272301  0.83351878
   0.44126723  0.62526757  0.65507985
   0.30930456  0.53867596  0.61105613
   0.93670257  0.45614451  0.56566767
   0.69004341  0.79152798  0.74439226
   0.93404789  0.78891458  0.12433170
   0.69166837  0.78777123  0.38906598
   0.94057867  0.79092888  0.74459672
   0.05910178  0.20354376  0.34498293
   0.68390064  0.45273594  0.34496401
   0.43502452  0.12247525  0.78879330
   0.06473566  0.20494715  0.21106018
   0.05536933  0.36571381  0.16655803
   0.93368036  0.78743566  0.25552281
   0.56047521  0.20733636  0.69982526
   0.68502001  0.95748751  0.69970209
   0.80926732  0.87289172  0.78835872
   0.43694042  0.95683175  0.56545771
   0.81002606  0.37387335  0.78860333
   0.68369892  0.28813578  0.25599236
   0.18717339  0.45622550  0.56554814
   0.05606838  0.86564458  0.16655622
   0.18428310  0.28875248  0.61110143
   0.06196688  0.20685853  0.56545563
   0.31042245  0.20753961  0.69981694
   0.56298548  0.54063246  0.87590703
   0.06209870  0.70625927  0.56565359
   0.68503776  0.62307385  0.78877146
   0.31612690  0.53797476  0.38894978
   0.18699796  0.62124021  0.52158103
   0.56290678  0.87010960  0.43444209
   0.43666356  0.45625304  0.56558841
   0.43996672  0.29150843  0.74433531
   0.82086678  0.87398280  0.30020701
   0.80872537  0.70252748  0.34484464
   0.44195475  0.46286898  0.83325584
   0.68755323  0.95562202  0.47872754
   0.68488296  0.45833710  0.69975721
   0.56201887  0.87166325  0.52159193
   0.56628590  0.37424463  0.65493873
   0.81612218  0.87497446  0.65515638
   0.81170681  0.37082861  0.43425683
   0.80843188  0.53809138  0.25583452
   0.69217917  0.46209280  0.83333324
   0.18557398  0.78868967  0.12391381
   0.69155466  0.28749812  0.38906223
   0.31613512  0.37438978  0.65492507
   0.30925127  0.20293222  0.34471014
   0.81532312  0.54066541  0.74417355
   0.69129868  0.96303382  0.83327657
   0.56608345  0.87463013  0.65509028
   0.31154163  0.70661163  0.56553414
   0.31209095  0.52987969  0.12383250
   0.68931543  0.95492350  0.21158572
   0.31153658  0.20630872  0.56559403
   0.18747571  0.95553846  0.47884610
   0.68723752  0.95631101  0.56561632
   0.43411697  0.78855576  0.61105639
   0.68231278  0.61263711  0.16615245
   0.31898176  0.87436543  0.30020083
   0.31217775  0.70564817  0.47872700
   0.93383877  0.28814234  0.61093015
   0.44467911  0.62447820  0.30017039
   0.80726116  0.86353432  0.16677776
   0.56600526  0.20336906  0.21131570
   0.93225257  0.61311198  0.16667291
   0.43748356  0.95561112  0.47873339
   0.55968328  0.37281881  0.78874587
   0.06133248  0.37187131  0.52152723
   0.30719596  0.36482328  0.16650485
   0.69503784  0.12348450  0.30022946
   0.44284833  0.96316077  0.83329853
   0.18505848  0.28723659  0.12404733
   0.18397773  0.28846273  0.25592257
   0.31272672  0.37036826  0.43450099
   0.56237256  0.03255790  0.12426946
   0.43417205  0.28865343  0.61104341
   0.18386113  0.45284138  0.34503719
   0.43437077  0.28718423  0.12397400
   0.68319786  0.78816346  0.25577648
   0.43679988  0.12124403  0.52157126
   0.18832631  0.29579407  0.87596425
   0.19118905  0.12518191  0.65512202
   0.94125648  0.12506339  0.65503954
   0.81620089  0.53766926  0.38904178
   0.06658824  0.03817656  0.38918809
   0.18333760  0.11216723  0.16651540
   0.05916060  0.53843579  0.61105418
   0.93365243  0.28798648  0.25591323
   0.55912797  0.53852866  0.61105630
   0.93668317  0.95675110  0.56550247
   0.69409722  0.62454054  0.30016356
   0.93738392  0.62014602  0.43450879
   0.93412036  0.62376786  0.78842320
   0.56048514  0.70758728  0.69970355
   0.06670483  0.71482748  0.83354378
   0.94460983  0.12303994  0.30000450
   0.93395356  0.78822040  0.61103165
   0.43336051  0.78804123  0.25559011
   0.30995802  0.37330929  0.78867855
   0.43945430  0.45415566  0.21122094
   0.18687111  0.12141040  0.52155751
   0.81012005  0.70752088  0.69970414
   0.05919899  0.03828483  0.61099191
   0.56621404  0.21309466  0.83333297
   0.31185448  0.87151053  0.52156871
   0.68609137  0.28700778  0.12376854
   0.18995433  0.95493140  0.21174576
   0.68394510  0.28877297  0.61108707
   0.30880822  0.03858797  0.61109706
   0.93511060  0.12326350  0.78871235
   0.43699321  0.79636608  0.87578697
   0.81552548  0.04135911  0.74437615
   0.93505901  0.45808063  0.69974156
   0.19110738  0.62502641  0.65511890
   0.31027595  0.70738072  0.69973721
   0.93402444  0.28730868  0.12384752
   0.43753520  0.45577442  0.47866420
   0.06245512  0.70565935  0.47867242
   0.93704056  0.11928802  0.43475251
   0.44372395  0.12412999  0.30039712
   0.18721844  0.11941061  0.43436621
   0.56377229  0.03923390  0.87584324
   0.18667645  0.95645791  0.56562532
   0.68437597  0.78840968  0.12425221
   0.55879977  0.70251867  0.34485251
   0.31650836  0.03732480  0.38900004
   0.68196044  0.11443819  0.16680471
   0.81519133  0.20393015  0.21110061
   0.06004002  0.53770178  0.25565100
   0.56248807  0.70548585  0.47867558
   0.43468528  0.78745902  0.12394470
   0.56910392  0.37278180  0.30006764
   0.43332968  0.95269487  0.34490137
   0.18519528  0.95784280  0.69977993
   0.43156575  0.61338021  0.16600070
   0.93942281  0.45392097  0.21160534
   0.06167617  0.52966661  0.12393832
   0.81192080  0.37214433  0.52150977
   0.94441762  0.62423454  0.29981911
   0.30965826  0.03797174  0.25546391
   0.68399084  0.78849271  0.61105916
   0.19128852  0.46295201  0.83353370
   0.43271271  0.11222482  0.16653778
   0.31177152  0.37142057  0.52157435
   0.43392738  0.62247809  0.78901460
   0.05910631  0.03764645  0.25571898
   0.56219353  0.70629018  0.56563820
   0.93942908  0.29095938  0.74422137
   0.68338728  0.12228321  0.78854053
   0.18979721  0.45376151  0.21109442
   0.94112722  0.78799040  0.38887065
   0.68648063  0.29842153  0.87597814
   0.55653700  0.86304194  0.16617411
   0.43522148  0.45797473  0.69985890
   0.93418179  0.95155991  0.34473861
   0.68677372  0.62155081  0.52142008
   0.06589746  0.87470630  0.65501514
   0.06004377  0.87328419  0.78844038
   0.06616220  0.37461330  0.65514596
   0.68696717  0.45543583  0.47867690
   0.18371634  0.78799795  0.25536525
   0.43739941  0.12042208  0.43445492
   0.81374962  0.03089129  0.12402253
   0.93687887  0.62152378  0.52158298
   0.44122971  0.12492253  0.65490502
   0.81297202  0.52958827  0.12384706
   0.43408365  0.45272076  0.34506272
   0.80924997  0.20269197  0.34498031
   0.30902086  0.70197694  0.34479480
   0.69111379  0.12512431  0.65504275
   0.56997561  0.87376681  0.30028241
   0.06539376  0.54089863  0.74437504
   0.94007857  0.95422404  0.21116205
   0.81542141  0.70412410  0.21141812
   0.06942615  0.87454300  0.30030054
   0.19440145  0.12399232  0.30020440
   0.05849961  0.70235495  0.34491573
   0.80910597  0.03840277  0.61103270
   0.06272730  0.37049051  0.43448960
   0.55929345  0.20271547  0.34472735
   0.81942230  0.37396679  0.29996915
   0.56014133  0.03828366  0.25541623
   0.56648583  0.53777073  0.38908799
   0.06246871  0.20552434  0.47871532
   0.31077987  0.87208096  0.78836822
   0.93514630  0.95826901  0.69972616
   0.06870732  0.37471455  0.30007557
   0.69131704  0.62495335  0.65517234
   0.68644019  0.45658972  0.56544818
   0.44027699  0.95589520  0.21202029
   0.31251316  0.20558221  0.47877897
   0.81194189  0.54035321  0.87593798
   0.68819737  0.62043312  0.43450063
   0.81079988  0.20767914  0.69981193
   0.81245272  0.70572013  0.47871738
   0.81114895  0.86993481  0.43430561
   0.93701428  0.95495959  0.47884701
   0.56225210  0.20559717  0.47876859
   0.18719136  0.61944634  0.43449300
   0.31519214  0.04160574  0.74429584
   0.94120621  0.62552234  0.65492953
   0.56694215  0.71333809  0.83330616
   0.31986347  0.37262102  0.30009794
   0.31547242  0.54067381  0.74418416
   0.18738750  0.45536357  0.47873011
   0.31420080  0.04035031  0.87563613
   0.18485618  0.45847329  0.69971983
   0.56196142  0.37148180  0.52159262
   0.19114440  0.28744515  0.38893421
   0.31508161  0.20524625  0.21110896
   0.06687546  0.70435375  0.21124055
   0.56191849  0.36998244  0.43446113
   0.43671094  0.62191773  0.52146131
   0.81647561  0.71359021  0.83306817
   0.05981209  0.37363282  0.78863371
   0.43721178  0.29794237  0.87627613
   0.31098992  0.03093637  0.12405357
   0.93846260  0.79362983  0.87580909
   0.18372579  0.95264931  0.34494705
   0.06663944  0.21447853  0.83388672
   0.55923216  0.03864105  0.61108245
   0.68901924  0.45430992  0.21174101
   0.18977342  0.79142156  0.74448253
   0.19410806  0.62370922  0.30026849
   0.44127325  0.78779132  0.38909034
   0.43338245  0.28849478  0.25583004
   0.06378613  0.54116658  0.87584861
   0.56520204  0.04149048  0.74439933
   0.18672895  0.79561021  0.87589337
   0.93740592  0.45530179  0.47870983
   0.56513091  0.54102926  0.74398236
   0.81147410  0.20669536  0.56553216
   0.18529951  0.62285315  0.78862064
   0.06744139  0.53898677  0.38917851
   0.06060443  0.70781348  0.69971327
   0.30854620  0.53846295  0.25544061
   0.31445353  0.70402630  0.21210039
   0.30598886  0.86524922  0.16563282
   0.43657355  0.62098157  0.43450775
   0.81827642  0.03948099  0.38909446
   0.93546580  0.29747763  0.87546584
   0.68723702  0.12061131  0.43436208
   0.06447033  0.03714986  0.87552366
   0.56249046  0.52908066  0.12437791
   0.80551099  0.36623824  0.16581696
   0.06194391  0.87089794  0.43446047
   0.93678741  0.12136697  0.52169961
   0.19269270  0.78756037  0.38903007
   0.56676995  0.70460037  0.21190113
Direct configuration=     2
   0.06156382  0.03015398  0.12412831
   0.31581553  0.87473122  0.65514625
   0.18515080  0.12313143  0.78855873
   0.44147303  0.28771899  0.38917490
   0.31721021  0.71324086  0.83314914
   0.81706771  0.21390573  0.83365589
   0.19128233  0.96393772  0.83351078
   0.56193350  0.20625089  0.56569473
   0.06490228  0.04069711  0.74419856
   0.81157761  0.87105144  0.52169915
   0.19024380  0.29075327  0.74415220
   0.93429658  0.45280200  0.34485004
   0.94057223  0.28676937  0.38897866
   0.81357340  0.04110368  0.87552068
   0.18431848  0.78848021  0.61092607
   0.56615472  0.03769777  0.38916974
   0.94207767  0.96428592  0.83360770
   0.31365058  0.54093017  0.87598571
   0.68988050  0.29128771  0.74417454
   0.18261817  0.61442867  0.16642931
   0.81242277  0.20545265  0.47875353
   0.80943125  0.53880456  0.61099864
   0.31211065  0.86984666  0.43447570
   0.81013165  0.03839158  0.25591240
   0.68378796  0.95254696  0.34478262
   0.93089389  0.11536547  0.16678023
   0.06202364  0.87145392  0.52156204
   0.55874874  0.53828466  0.25537003
   0.68669685  0.79543773  0.87585232
   0.55670836  0.36584569  0.16637097
   0.43970590  0.79153409  0.74438945
   0.81163292  0.70619711  0.56566131
   0.56023586  0.87295775  0.78854149
   0.68683678  0.12151411  0.52156873
   0.81574584  0.37478996  0.65505983
   0.94158210  0.46261557  0.83355830
   0.06050539  0.20784617  0.69975725
   0.43533941  0.95783144  0.69972725
   0.31631465  0.21253052  0.83358181
   0.44085539  0.62508616  0.65508200
   0.30956403  0.53877324  0.61097734
   0.93671471  0.45605125  0.56571439
   0.68982232  0.79149986  0.74433970
   0.93403219  0.78800792  0.12439802
   0.69141322  0.78780675  0.38911864
   0.94026675  0.79093265  0.74450301
   0.05960534  0.20364961  0.34496453
   0.68441798  0.45297637  0.34493689
   0.43523878  0.12284338  0.78872723
   0.06445751  0.20464571  0.21113338
   0.05568259  0.36584958  0.16645427
   0.93407396  0.78754063  0.25555433
   0.56063056  0.20733911  0.69982447
   0.68529039  0.95751409  0.69974617
   0.80957493  0.87307212  0.78833743
   0.43690438  0.95664786  0.56553430
   0.81025828  0.37391078  0.78853706
   0.68411253  0.28804138  0.25596441
   0.18709115  0.45618147  0.56560478
   0.05650092  0.86584647  0.16649196
   0.18454809  0.28885282  0.61103567
   0.06195047  0.20671209  0.56553092
   0.31066072  0.20753251  0.69981786
   0.56313294  0.54139954  0.87583553
   0.06204793  0.70617744  0.56569351
   0.68527379  0.62328312  0.78869376
   0.31590050  0.53786994  0.38903640
   0.18702067  0.62142850  0.52162840
   0.56281670  0.87030237  0.43440783
   0.43670013  0.45621321  0.56564250
   0.43974934  0.29157134  0.74430118
   0.82003442  0.87381141  0.30020126
   0.80919205  0.70265375  0.34486315
   0.44169390  0.46259293  0.83336397
   0.68759474  0.95544239  0.47867180
   0.68515080  0.45817971  0.69977205
   0.56196648  0.87177055  0.52163266
   0.56589783  0.37422404  0.65496395
   0.81575030  0.87485066  0.65515040
   0.81178673  0.37079626  0.43423975
   0.80889437  0.53794909  0.25585155
   0.69193649  0.46200010  0.83342314
   0.18553867  0.78783118  0.12396891
   0.69122923  0.28755439  0.38911915
   0.31570575  0.37435439  0.65494877
   0.30967844  0.20308504  0.34475521
   0.81506224  0.54073818  0.74415554
   0.69113140  0.96277218  0.83334443
   0.56569406  0.87459374  0.65509621
   0.31159513  0.70652873  0.56559461
   0.31175251  0.53059533  0.12388441
   0.68915840  0.95482706  0.21160065
   0.31158849  0.20622125  0.56564834
   0.18745012  0.95546726  0.47876218
   0.68720611  0.95622591  0.56567306
   0.43436742  0.78868503  0.61097317
   0.68233680  0.61300241  0.16616320
   0.31847777  0.87409045  0.30019479
   0.31217505  0.70551706  0.47865071
   0.93416691  0.28829518  0.61086743
   0.44405452  0.62411429  0.30017170
   0.80743091  0.86389758  0.16669995
   0.56567343  0.20333166  0.21138421
   0.93257615  0.61338669  0.16663116
   0.43747979  0.95542446  0.47865841
   0.55999145  0.37298808  0.78867223
   0.06145840  0.37199037  0.52157178
   0.30734681  0.36499317  0.16639660
   0.69439519  0.12330494  0.30024302
   0.44250606  0.96282675  0.83337611
   0.18500068  0.28654041  0.12414841
   0.18434369  0.28819117  0.25590410
   0.31277207  0.37048585  0.43446846
   0.56207301  0.03279221  0.12428082
   0.43442329  0.28875633  0.61095797
   0.18431181  0.45301314  0.34501751
   0.43426788  0.28647224  0.12407902
   0.68371713  0.78818306  0.25580492
   0.43681891  0.12146430  0.52161425
   0.18851585  0.29534049  0.87594087
   0.19081155  0.12502330  0.65512286
   0.94087289  0.12489560  0.65504597
   0.81594946  0.53762332  0.38909859
   0.06629259  0.03817824  0.38924219
   0.18330336  0.11266047  0.16649305
   0.05942987  0.53851392  0.61097814
   0.93410246  0.28789611  0.25588411
   0.55938254  0.53867223  0.61097222
   0.93671001  0.95654090  0.56556334
   0.69354490  0.62420823  0.30019174
   0.93750214  0.62030027  0.43446217
   0.93444515  0.62400206  0.78838560
   0.56064924  0.70755919  0.69972324
   0.06644692  0.71449621  0.83356570
   0.94404293  0.12306119  0.30003525
   0.93426108  0.78834988  0.61096802
   0.43388126  0.78804037  0.25566618
   0.31020544  0.37338904  0.78859790
   0.43929017  0.45418036  0.21127460
   0.18692597  0.12154750  0.52160334
   0.81039530  0.70757057  0.69973512
   0.05944960  0.03850987  0.61091747
   0.56599578  0.21280718  0.83337948
   0.31186034  0.87160382  0.52162746
   0.68601112  0.28630078  0.12385763
   0.18967658  0.95499967  0.21172552
   0.68425588  0.28888051  0.61100935
   0.30912223  0.03867668  0.61101353
   0.93532782  0.12351866  0.78867282
   0.43719253  0.79580517  0.87575093
   0.81525235  0.04138210  0.74431526
   0.93532776  0.45799275  0.69976526
   0.19075242  0.62489824  0.65511887
   0.31049097  0.70741087  0.69976224
   0.93409564  0.28658912  0.12393974
   0.43747697  0.45549440  0.47860480
   0.06245977  0.70537481  0.47861763
   0.93717999  0.11957637  0.43471785
   0.44334948  0.12375638  0.30035775
   0.18722541  0.11966535  0.43432865
   0.56388707  0.03996363  0.87578613
   0.18666737  0.95637881  0.56567876
   0.68446021  0.78774049  0.12431151
   0.55932625  0.70272315  0.34486931
   0.31627664  0.03740644  0.38907055
   0.68238648  0.11471734  0.16675628
   0.81498743  0.20383508  0.21118433
   0.06018332  0.53771782  0.25564883
   0.56248370  0.70542698  0.47861934
   0.43466186  0.78686506  0.12397642
   0.56852017  0.37270283  0.30010212
   0.43387136  0.95287433  0.34489364
   0.18541321  0.95779150  0.69979776
   0.43187859  0.61378793  0.16601877
   0.93927213  0.45384711  0.21162701
   0.06149894  0.53022037  0.12400436
   0.81187095  0.37226675  0.52156206
   0.94388799  0.62403458  0.29985981
   0.30994354  0.03788976  0.25552867
   0.68429099  0.78861274  0.61097697
   0.19108252  0.46282766  0.83360795
   0.43293298  0.11264371  0.16652888
   0.31174937  0.37160412  0.52161182
   0.43436040  0.62274004  0.78890421
   0.05947259  0.03767653  0.25572401
   0.56210678  0.70626391  0.56568090
   0.93935298  0.29106413  0.74419664
   0.68384831  0.12266735  0.78849403
   0.18941685  0.45373730  0.21115889
   0.94081809  0.78792119  0.38895788
   0.68660380  0.29760440  0.87592682
   0.55656522  0.86346230  0.16617490
   0.43544543  0.45787193  0.69987002
   0.93468463  0.95189275  0.34476389
   0.68673214  0.62162769  0.52148907
   0.06556869  0.87464094  0.65503473
   0.06033065  0.87347576  0.78842111
   0.06579234  0.37456476  0.65513629
   0.68706371  0.45521673  0.47858266
   0.18407394  0.78800084  0.25546475
   0.43734182  0.12051616  0.43443350
   0.81332446  0.03144117  0.12409473
   0.93685543  0.62164358  0.52161872
   0.44084456  0.12476700  0.65494213
   0.81288255  0.53031774  0.12387044
   0.43459594  0.45294904  0.34504325
   0.80966900  0.20284564  0.34497247
   0.30954544  0.70226435  0.34480814
   0.69073959  0.12498869  0.65505502
   0.56928237  0.87356561  0.30026894
   0.06514489  0.54086389  0.74431771
   0.93986136  0.95429720  0.21123610
   0.81516216  0.70399291  0.21145184
   0.06889346  0.87421544  0.30029079
   0.19379947  0.12382666  0.30018395
   0.05903960  0.70255040  0.34491359
   0.80943049  0.03855971  0.61095245
   0.06269622  0.37051044  0.43443876
   0.55977431  0.20288789  0.34475974
   0.81882812  0.37385049  0.30000536
   0.56041409  0.03827160  0.25549474
   0.56615136  0.53770378  0.38913965
   0.06249677  0.20536117  0.47866704
   0.31095262  0.87233871  0.78834048
   0.93537969  0.95817247  0.69974540
   0.06833062  0.37440245  0.30010578
   0.69090321  0.62484258  0.65516596
   0.68649832  0.45649237  0.56551374
   0.43996772  0.95570357  0.21196826
   0.31248847  0.20539169  0.47870423
   0.81213128  0.54104357  0.87586648
   0.68816646  0.62039977  0.43445282
   0.81092921  0.20765490  0.69981852
   0.81248728  0.70550738  0.47865250
   0.81127306  0.87010885  0.43429341
   0.93705094  0.95489151  0.47876552
   0.56229548  0.20541507  0.47869647
   0.18721593  0.61962525  0.43446319
   0.31492655  0.04158865  0.74425742
   0.94083701  0.62533816  0.65494944
   0.56669025  0.71304942  0.83336419
   0.31920743  0.37267168  0.30013274
   0.31520216  0.54074326  0.74417462
   0.18743030  0.45517852  0.47866056
   0.31436127  0.04116365  0.87560806
   0.18513560  0.45832773  0.69974853
   0.56196736  0.37169292  0.52163780
   0.19085817  0.28751813  0.38902773
   0.31477135  0.20494437  0.21117503
   0.06644164  0.70414948  0.21126782
   0.56198462  0.37013201  0.43442760
   0.43677393  0.62195861  0.52151117
   0.81622876  0.71334889  0.83312514
   0.06008454  0.37379072  0.78857409
   0.43725690  0.29720427  0.87617847
   0.31098269  0.03144793  0.12404120
   0.93835960  0.79337594  0.87576989
   0.18424381  0.95280091  0.34494472
   0.06634270  0.21394892  0.83385495
   0.55949668  0.03874809  0.61099752
   0.68887765  0.45415322  0.21171991
   0.18961341  0.79136507  0.74440725
   0.19359968  0.62352615  0.30024597
   0.44107632  0.78774190  0.38914543
   0.43385494  0.28836671  0.25581398
   0.06395047  0.54174502  0.87579656
   0.56501066  0.04145995  0.74434993
   0.18695979  0.79513208  0.87585268
   0.93736482  0.45514811  0.47863975
   0.56490875  0.54112785  0.74399354
   0.81151446  0.20662589  0.56559833
   0.18548808  0.62313536  0.78858109
   0.06709013  0.53883240  0.38923432
   0.06075098  0.70779754  0.69973511
   0.30895396  0.53829539  0.25547807
   0.31418368  0.70387396  0.21203544
   0.30627331  0.86532883  0.16564717
   0.43656938  0.62090305  0.43446220
   0.81790915  0.03920003  0.38912585
   0.93564993  0.29695458  0.87549258
   0.68725486  0.12074951  0.43435160
   0.06444222  0.03792151  0.87550487
   0.56231206  0.52974551  0.12438701
   0.80583484  0.36622581  0.16577585
   0.06195097  0.87088390  0.43442228
   0.93683109  0.12152197  0.52169614
   0.19230143  0.78742687  0.38906326
   0.56643201  0.70442954  0.21187084
Direct configuration=     3
   0.06145594  0.03219800  0.12431030
   0.31467505  0.87440806  0.65513216
   0.18599878  0.12387107  0.78842664
   0.44089773  0.28782215  0.38935483
   0.31586598  0.71224660  0.83335702
   0.81640466  0.21274581  0.83370283
   0.19044769  0.96282991  0.83360545
   0.56179329  0.20608776  0.56579900
   0.06422692  0.04111977  0.74412297
   0.81134971  0.87190282  0.52184499
   0.18929126  0.29129805  0.74410576
   0.93569897  0.45360666  0.34488845
   0.93986656  0.28724597  0.38923817
   0.81336555  0.04297053  0.87547481
   0.18523203  0.78897668  0.61070134
   0.56522357  0.03796647  0.38934639
   0.94165483  0.96301138  0.83370403
   0.31360666  0.54286977  0.87572510
   0.68932263  0.29144381  0.74412973
   0.18366392  0.61563152  0.16629170
   0.81231878  0.20526977  0.47853833
   0.81030579  0.53886365  0.61077962
   0.31264421  0.87043574  0.43439896
   0.81100892  0.03780428  0.25584761
   0.68556315  0.95327426  0.34485251
   0.93241941  0.11586871  0.16658217
   0.06237379  0.87183787  0.52171849
   0.56004046  0.53799717  0.25559306
   0.68744156  0.79425626  0.87567102
   0.55774645  0.36627279  0.16611781
   0.43922036  0.79147095  0.74420008
   0.81173072  0.70593704  0.56580327
   0.56098411  0.87334966  0.78837322
   0.68651067  0.12163748  0.52168291
   0.81471420  0.37438894  0.65508280
   0.94096473  0.46219476  0.83368486
   0.06116468  0.20768831  0.69981155
   0.43607451  0.95753626  0.69979475
   0.31551870  0.21195303  0.83377090
   0.43961987  0.62454191  0.65508843
   0.31034244  0.53906506  0.61074097
   0.93675113  0.45577146  0.56585453
   0.68915903  0.79141549  0.74418200
   0.93398510  0.78528792  0.12459699
   0.69064777  0.78791331  0.38927661
   0.93933100  0.79094399  0.74422187
   0.06111600  0.20396716  0.34490933
   0.68597000  0.45369767  0.34485550
   0.43588155  0.12394779  0.78852901
   0.06362306  0.20374140  0.21135296
   0.05662239  0.36625688  0.16614296
   0.93525475  0.78785554  0.25564888
   0.56109661  0.20734735  0.69982210
   0.68610156  0.95759383  0.69987842
   0.81049777  0.87361332  0.78827355
   0.43679626  0.95609617  0.56576409
   0.81095491  0.37402310  0.78833823
   0.68535334  0.28775817  0.25588056
   0.18684443  0.45604938  0.56577469
   0.05779851  0.86645216  0.16629919
   0.18534306  0.28915383  0.61083837
   0.06190126  0.20627278  0.56575677
   0.31137554  0.20751118  0.69982061
   0.56357533  0.54370075  0.87562102
   0.06189562  0.70593195  0.56581328
   0.68598187  0.62391093  0.78846067
   0.31522130  0.53755549  0.38929626
   0.18708881  0.62199337  0.52177050
   0.56254649  0.87088070  0.43430504
   0.43680986  0.45609373  0.56580476
   0.43909719  0.29176007  0.74419880
   0.81753733  0.87329724  0.30018403
   0.81059208  0.70303253  0.34491866
   0.44091137  0.46176479  0.83368834
   0.68771926  0.95490350  0.47850457
   0.68595431  0.45770752  0.69981658
   0.56180932  0.87209243  0.52175484
   0.56473363  0.37416225  0.65503959
   0.81463465  0.87447929  0.65513248
   0.81202649  0.37069921  0.43418850
   0.81028183  0.53752222  0.25590263
   0.69120846  0.46172198  0.83369285
   0.18543272  0.78525572  0.12413419
   0.69025293  0.28772322  0.38928990
   0.31441762  0.37424823  0.65501987
   0.31095996  0.20354350  0.34489043
   0.81427961  0.54095648  0.74410151
   0.69062956  0.96198724  0.83354800
   0.56452587  0.87448456  0.65511401
   0.31175564  0.70628003  0.56577603
   0.31073720  0.53274226  0.12404014
   0.68868731  0.95453773  0.21164544
   0.31174419  0.20595883  0.56581130
   0.18737336  0.95525366  0.47851042
   0.68711186  0.95597058  0.56584328
   0.43511877  0.78907283  0.61072353
   0.68240886  0.61409831  0.16619546
   0.31696582  0.87326549  0.30017667
   0.31216695  0.70512373  0.47842182
   0.93515135  0.28875372  0.61067926
   0.44218078  0.62302257  0.30017561
   0.80794016  0.86498736  0.16646650
   0.56467794  0.20321944  0.21158975
   0.93354688  0.61421080  0.16650591
   0.43746848  0.95486448  0.47843348
   0.56091597  0.37349587  0.78845133
   0.06183613  0.37234756  0.52170541
   0.30779935  0.36550282  0.16607186
   0.69246725  0.12276625  0.30028372
   0.44147926  0.96182468  0.83360885
   0.18482730  0.28445188  0.12445166
   0.18544157  0.28737649  0.25584870
   0.31290811  0.37083862  0.43437085
   0.56117436  0.03349514  0.12431491
   0.43517701  0.28906504  0.61070163
   0.18566385  0.45352842  0.34495844
   0.43395922  0.28433628  0.12439407
   0.68527492  0.78824187  0.25589022
   0.43687599  0.12212510  0.52174322
   0.18908448  0.29397976  0.87587071
   0.18967904  0.12454747  0.65512539
   0.93972211  0.12439225  0.65506523
   0.81519518  0.53748551  0.38926903
   0.06540564  0.03818326  0.38940449
   0.18320065  0.11414021  0.16642602
   0.06023770  0.53874833  0.61074999
   0.93545254  0.28762500  0.25579676
   0.56014627  0.53910293  0.61071998
   0.93679054  0.95591028  0.56574598
   0.69188796  0.62321132  0.30027625
   0.93785679  0.62076302  0.43432231
   0.93541953  0.62470466  0.78827281
   0.56114153  0.70747495  0.69978234
   0.06567318  0.71350240  0.83363147
   0.94234223  0.12312496  0.30012750
   0.93518364  0.78873829  0.61077714
   0.43544353  0.78803776  0.25589438
   0.31094769  0.37362828  0.78835597
   0.43879778  0.45425445  0.21143555
   0.18709056  0.12195883  0.52174083
   0.81122103  0.70771964  0.69982806
   0.06020144  0.03918499  0.61069416
   0.56534103  0.21194474  0.83351900
   0.31187793  0.87188368  0.52180371
   0.68577035  0.28417980  0.12412491
   0.18884336  0.95520449  0.21166481
   0.68518822  0.28920315  0.61077621
   0.31006425  0.03894281  0.61076293
   0.93597948  0.12428414  0.78855423
   0.43779049  0.79412246  0.87564282
   0.81443296  0.04145108  0.74413262
   0.93613404  0.45772914  0.69983636
   0.18968754  0.62451372  0.65511878
   0.31113606  0.70750134  0.69983733
   0.93430923  0.28443044  0.12421642
   0.43730231  0.45465437  0.47842659
   0.06247375  0.70452122  0.47845328
   0.93759825  0.12044144  0.43461389
   0.44222607  0.12263557  0.30023962
   0.18724634  0.12042958  0.43421595
   0.56423141  0.04215283  0.87561483
   0.18664013  0.95614153  0.56583906
   0.68471291  0.78573294  0.12448942
   0.56090571  0.70333661  0.34491971
   0.31558148  0.03765136  0.38928208
   0.68366458  0.11555479  0.16661099
   0.81437572  0.20354989  0.21143549
   0.06061323  0.53776594  0.25564232
   0.56247060  0.70525036  0.47845063
   0.43459159  0.78508316  0.12407159
   0.56676893  0.37246590  0.30020556
   0.43549640  0.95341271  0.34487046
   0.18606699  0.95763757  0.69985127
   0.43281713  0.61501110  0.16607296
   0.93882010  0.45362553  0.21169201
   0.06096727  0.53188162  0.12420249
   0.81172139  0.37263399  0.52171892
   0.94229911  0.62343471  0.29998192
   0.31079937  0.03764383  0.25572296
   0.68519143  0.78897283  0.61073039
   0.19046452  0.46245462  0.83383071
   0.43359381  0.11390037  0.16650217
   0.31168292  0.37215480  0.52172425
   0.43565945  0.62352590  0.78857305
   0.06057144  0.03776676  0.25573911
   0.56184655  0.70618510  0.56580899
   0.93912466  0.29137837  0.74412245
   0.68523141  0.12381976  0.78835455
   0.18827576  0.45366470  0.21135229
   0.93989069  0.78771353  0.38921957
   0.68697330  0.29515299  0.87577284
   0.55664991  0.86472339  0.16617724
   0.43611729  0.45756353  0.69990337
   0.93619313  0.95289129  0.34483972
   0.68660741  0.62185835  0.52169604
   0.06458236  0.87444484  0.65509349
   0.06119130  0.87405048  0.78836329
   0.06468275  0.37441916  0.65510729
   0.68735331  0.45455942  0.47829995
   0.18514676  0.78800950  0.25576326
   0.43716907  0.12079838  0.43436923
   0.81204899  0.03309082  0.12431135
   0.93678512  0.62200299  0.52172596
   0.43968913  0.12430039  0.65505348
   0.81261413  0.53250616  0.12394058
   0.43613282  0.45363389  0.34498482