unknown system                          
            1
     9.726678    0.000000    0.000000
     0.000000    8.423550    0.000000
     0.000000    0.000000   45.000000
   Fe   Mn
 273  15
Direct configuration=     1
   0.18746989  0.11781026  0.30188941
   0.81249354  0.71015753  0.69814738
   0.18716213  0.11509616  0.16837791
   0.31238232  0.03350397  0.25758355
   0.56269153  0.70698477  0.56516725
   0.18786635  0.29575562  0.87332931
   0.06247677  0.87806341  0.78627233
   0.18742753  0.78651507  0.39027910
   0.68771272  0.96270736  0.83114977
   0.43753404  0.46266603  0.83115074
   0.81240089  0.36821692  0.30192755
   0.18711487  0.95172742  0.34633734
   0.68778599  0.45531548  0.47876141
   0.56252837  0.87832929  0.78631158
   0.31267642  0.69960748  0.21363400
   0.18746885  0.45997903  0.69806689
   0.43744288  0.95983097  0.69813507
   0.81227023  0.70535540  0.47877665
   0.43760453  0.45002091  0.21358121
   0.93749330  0.45758641  0.56522379
   0.56247398  0.20968614  0.69812947
   0.06236879  0.37795773  0.78628133
   0.18750288  0.79196034  0.60980426
   0.06264558  0.04173382  0.60979563
   0.06266260  0.86563534  0.16873186
   0.56224285  0.87092444  0.43514907
   0.18770918  0.28608639  0.39033058
   0.31263943  0.53653998  0.39041704
   0.43742411  0.95199152  0.34626184
   0.56261480  0.37579372  0.65369586
   0.68756995  0.12589612  0.65370724
   0.81270233  0.87069580  0.43487851
   0.06262289  0.21209330  0.83127317
   0.81285536  0.87263925  0.52142406
   0.56243828  0.53606092  0.39028794
   0.31237275  0.20717035  0.56518016
   0.06256619  0.70525067  0.47881058
   0.18801491  0.61716301  0.30188165
   0.06239278  0.20200806  0.34634078
   0.81250042  0.53385727  0.25772303
   0.31267997  0.04578217  0.87330201
   0.68689436  0.45156049  0.34627944
   0.06236666  0.70012868  0.21352580
   0.18778309  0.45761873  0.56517949
   0.93766598  0.79211166  0.60973237
   0.81268114  0.04577028  0.87331392
   0.31305847  0.36812618  0.30192232
   0.43688586  0.78170471  0.12651488
   0.06270010  0.70733752  0.56510274
   0.56262298  0.69964832  0.21363634
   0.93720246  0.95140484  0.34629824
   0.31249801  0.37827815  0.78630179
   0.81283938  0.37607670  0.65374928
   0.31281675  0.04423799  0.74226445
   0.81280808  0.19942209  0.21353574
   0.93807581  0.11788295  0.30170606
   0.31224371  0.71025310  0.69815141
   0.06247153  0.86707005  0.30192522
   0.18778634  0.29180904  0.60967677
   0.56263600  0.04157186  0.60980722
   0.93727874  0.79399192  0.74219371
   0.06256172  0.21021689  0.69816484
   0.31248551  0.70211912  0.34636472
   0.68795890  0.78176447  0.12664911
   0.43741306  0.29156635  0.60986402
   0.43707150  0.45543998  0.47872409
   0.93740504  0.95545414  0.47867800
   0.68764387  0.62565243  0.65373120
   0.06261841  0.53323034  0.25763602
   0.56239337  0.70493019  0.47876301
   0.93755946  0.12601933  0.65366309
   0.31224919  0.20984811  0.69811325
   0.31194491  0.87078631  0.43483632
   0.18776153  0.78358286  0.25764044
   0.31237688  0.37276962  0.52152275
   0.56235644  0.20504840  0.47881764
   0.18770859  0.96234817  0.83117695
   0.81266874  0.20199492  0.34627349
   0.81272443  0.70726397  0.56520568
   0.68744205  0.12094574  0.43489046
   0.81255056  0.87597067  0.65366098
   0.68723492  0.62845173  0.78637174
   0.93762931  0.62608345  0.65367620
   0.68768916  0.12318571  0.52151792
   0.56296672  0.36779962  0.30199432
   0.93753875  0.29573877  0.87334181
   0.43739107  0.28336024  0.25767886
   0.31288003  0.54432180  0.74222866
   0.81255516  0.21259192  0.83126585
   0.93771224  0.28625383  0.39036943
   0.43735666  0.62302565  0.52149750
   0.43752090  0.29569948  0.87324469
   0.93745773  0.45176040  0.34643004
   0.43736650  0.45989560  0.69811399
   0.93707111  0.12061541  0.43491068
   0.56246685  0.04429088  0.74227077
   0.68740336  0.94933388  0.21345468
   0.43712692  0.11468646  0.16854825
   0.43729788  0.95718501  0.56519362
   0.43783828  0.79175433  0.60985307
   0.31234976  0.87834199  0.78630814
   0.93764757  0.94954367  0.21344462
   0.18773661  0.12600500  0.65360249
   0.93763587  0.29200187  0.60976084
   0.56253580  0.03333702  0.25757518
   0.43719388  0.78340096  0.25770050
   0.93753787  0.79584277  0.87333236
   0.81168031  0.03117460  0.12652130
   0.56251493  0.37282083  0.52147910
   0.68759204  0.95537365  0.47877845
   0.56246649  0.71031065  0.69812876
   0.93777178  0.61748644  0.30185466
   0.81234578  0.36526073  0.16880196
   0.56205477  0.19922435  0.21356646
   0.93743640  0.12776798  0.78637038
   0.93754150  0.45536891  0.47886152
   0.93745278  0.61526670  0.16867055
   0.81202832  0.53639352  0.39047993
   0.81259316  0.04202306  0.60987682
   0.68718565  0.45984652  0.69814409
   0.93705921  0.62089313  0.43507628
   0.93749115  0.95712840  0.56512361
   0.81262510  0.54585968  0.87333862
   0.68760302  0.61807117  0.30176791
   0.68772924  0.62293059  0.52148071
   0.81247039  0.87820426  0.78633046
   0.56263195  0.53407792  0.25776824
   0.18769872  0.46228579  0.83117210
   0.68768206  0.45004001  0.21359023
   0.31272929  0.87578333  0.65365783
   0.56297697  0.36527218  0.16878887
   0.31194613  0.20181860  0.34624969
   0.68747641  0.95205707  0.34637665
   0.06258735  0.20729561  0.56512294
   0.93774955  0.78339183  0.25768756
   0.68794963  0.62070721  0.43473492
   0.31252729  0.53245336  0.12670958
   0.68778018  0.79573384  0.87324667
   0.06198463  0.37109713  0.43492733
   0.18761965  0.79428390  0.74223667
   0.68748675  0.61452269  0.16884921
   0.18764673  0.62283907  0.52145905
   0.06262262  0.71227896  0.83126006
   0.06272621  0.37631318  0.65357043
   0.18746599  0.12789173  0.78631561
   0.56259991  0.87557452  0.65377347
   0.31287917  0.86694802  0.30196514
   0.31239874  0.53371220  0.25771943
   0.18772622  0.61531369  0.16870783
   0.93743510  0.12276073  0.52142065
   0.56267417  0.04591979  0.87325261
   0.18785975  0.28342820  0.25767921
   0.43747765  0.79585799  0.87326362
   0.93687119  0.78164603  0.12670892
   0.18785021  0.79596336  0.87330725
   0.06262811  0.03423695  0.25762081
   0.81241169  0.20997861  0.69816006
   0.81197560  0.70191028  0.34633271
   0.81205128  0.54416802  0.74227706
   0.31263655  0.54150590  0.60985828
   0.06273193  0.04611430  0.87326603
   0.93760398  0.96252919  0.83113588
   0.56245241  0.37832050  0.78629206
   0.43740205  0.29421304  0.74224364
   0.31262049  0.70550548  0.47874254
   0.31276849  0.54594356  0.87331427
   0.81253019  0.71274051  0.83128006
   0.93752684  0.11563982  0.16855718
   0.43744774  0.12301911  0.52147689
   0.31250876  0.70728089  0.56523067
   0.43756252  0.45749611  0.56517377
   0.81224686  0.53150096  0.12670457
   0.18737333  0.45220743  0.34633120
   0.68702216  0.78605792  0.39027975
   0.43754216  0.62836031  0.78630070
   0.56245786  0.54428661  0.74226531
   0.18763600  0.96023845  0.69805459
   0.31247445  0.36455589  0.16865911
   0.18766997  0.95532616  0.47869249
   0.56234831  0.53107710  0.12678870
   0.81262728  0.54153621  0.60982673
   0.06213188  0.36498583  0.16862469
   0.06238598  0.03594942  0.39029517
   0.43770851  0.12084846  0.43485563
   0.18702971  0.28195368  0.12656067
   0.06237020  0.87075676  0.43497643
   0.56199450  0.20171540  0.34626422
   0.81242702  0.20542824  0.47866733
   0.43714748  0.62083074  0.43482576
   0.31268378  0.71271540  0.83125906
   0.56237462  0.70226636  0.34631766
   0.93755583  0.46234134  0.83117119
   0.56245760  0.03642212  0.39035837
   0.06267056  0.37301713  0.52151140
   0.18741208  0.62118399  0.43502079
   0.68748911  0.29149362  0.60976762
   0.43756168  0.12841775  0.78627753
   0.68782838  0.29567843  0.87326733
   0.43706624  0.28626971  0.39036604
   0.68756007  0.29424282  0.74224713
   0.43697998  0.61519265  0.16880531
   0.43744011  0.61771600  0.30194776
   0.18749986  0.45536016  0.47872816
   0.68718019  0.28335876  0.25769815
   0.06234967  0.71029447  0.69815166
   0.56239538  0.86554153  0.16859912
   0.31241088  0.37130993  0.43493548
   0.93743949  0.62285548  0.52147953
   0.06211775  0.03151225  0.12649476
   0.18732711  0.29419526  0.74219916
   0.31249088  0.37592670  0.65372136
   0.68745767  0.79186162  0.60984606
   0.81243828  0.03349339  0.25758336
   0.56268959  0.71249956  0.83114267
   0.68775345  0.45739543  0.56515426
   0.81219609  0.86546129  0.16861841
   0.18741679  0.94959825  0.21365834
   0.81268750  0.37101809  0.43508700
   0.56265569  0.21239434  0.83114665
   0.06258003  0.54174107  0.60981101
   0.06270331  0.54622567  0.87329283
   0.18751549  0.62599254  0.65370107
   0.68745511  0.12823996  0.78630263
   0.93742522  0.96014675  0.69806764
   0.68742882  0.79418530  0.74227405
   0.81257607  0.86786212  0.30188887
   0.68706810  0.78346125  0.25774478
   0.43732950  0.45179051  0.34636801
   0.56262885  0.54127192  0.60989157
   0.43739098  0.78626102  0.39019126
   0.43755513  0.62567801  0.65373377
   0.18745306  0.62798460  0.78631269
   0.43740670  0.11738125  0.30179063
   0.81260187  0.37828076  0.78633366
   0.31258766  0.04178648  0.60985663
   0.06249132  0.53652102  0.39039925
   0.18729351  0.44966010  0.21360506
   0.06244996  0.87305931  0.52146820
   0.81232117  0.03601736  0.39030676
   0.68748496  0.28194519  0.12665755
   0.81301134  0.20703100  0.56513961
   0.31244739  0.87266739  0.52145495
   0.06255082  0.87632999  0.65360726
   0.93716715  0.28175803  0.12654533
   0.31252769  0.03106298  0.12635880
   0.31264361  0.20575654  0.47861737
   0.43790464  0.94902193  0.21356348
   0.06221633  0.53195969  0.12664735
   0.68732551  0.11519050  0.16866721
   0.68771443  0.46270472  0.83118720
   0.06244442  0.70188295  0.34622057
   0.93730218  0.29442379  0.74224966
   0.81268881  0.37261592  0.52153314
   0.93772477  0.45005148  0.21361065
   0.43712073  0.95547470  0.47866911
   0.31270932  0.21258589  0.83123967
   0.56244552  0.86791695  0.30193422
   0.81216640  0.04411776  0.74225965
   0.18784630  0.95720151  0.56508769
   0.18770665  0.12293673  0.52134209
   0.31248395  0.03643046  0.39026034
   0.93737941  0.62786302  0.78634339
   0.68707299  0.95989344  0.69813684
   0.43753799  0.96269270  0.83116257
   0.81231312  0.70017070  0.21355934
   0.43763221  0.12575743  0.65372054
   0.43737488  0.79424576  0.74226731
   0.06248949  0.20552979  0.47866969
   0.68800622  0.95712616  0.56520676
   0.56268441  0.54613446  0.87326375
   0.43772692  0.28192131  0.12667720
   0.56299484  0.03103928  0.12655327
   0.18766748  0.78181639  0.12642052
   0.56270227  0.20685944  0.56521686
   0.06281182  0.54447976  0.74255941
   0.56166787  0.37139303  0.43516323
   0.93761706  0.78635133  0.39007730
   0.06227328  0.19937345  0.21362997
   0.31247111  0.86553818  0.16808224
   0.31366027  0.19878192  0.21382564
   0.56250434  0.87300755  0.52138446
   0.18767425  0.12035423  0.43489723
   0.93695739  0.45990727  0.69794165
   0.68793481  0.11765362  0.30176144
   0.93637357  0.28324830  0.25763787
   0.06230131  0.04424606  0.74236362
   0.68744562  0.28577186  0.39012265
   0.06273071  0.36814711  0.30211155
Direct configuration=     2
   0.18832111  0.11725829  0.30220530
   0.81230631  0.70913498  0.69721262
   0.18749269  0.11391538  0.16801676
   0.31232119  0.03330084  0.25786796
   0.56285156  0.70555341  0.56551968
   0.18603112  0.29578558  0.87372416
   0.06215490  0.87889378  0.78597118
   0.18969078  0.78749783  0.39066298
   0.68814199  0.96321682  0.83102483
   0.43833700  0.46247782  0.83044744
   0.81221577  0.36924399  0.30179752
   0.18848689  0.95365648  0.34655036
   0.68857878  0.45434985  0.47877803
   0.56273237  0.87897680  0.78646229
   0.31276452  0.69961135  0.21392905
   0.18640782  0.45933601  0.69729974
   0.43842776  0.96078232  0.69714127
   0.81173150  0.70483026  0.47872736
   0.43709325  0.45091302  0.21402876
   0.93741418  0.45675200  0.56547194
   0.56247393  0.20916101  0.69703296
   0.06209988  0.37782780  0.78602818
   0.18764550  0.79181655  0.60990162
   0.06267100  0.04236349  0.60985155
   0.06347867  0.86636715  0.16826001
   0.56201955  0.87147975  0.43529297
   0.18786068  0.28499499  0.39081815
   0.31221375  0.53637450  0.39089486
   0.43557903  0.95350703  0.34666006
   0.56214966  0.37519148  0.65335187
   0.68714585  0.12562236  0.65350771
   0.81242547  0.87135938  0.43545351
   0.06094434  0.21213836  0.83098698
   0.81330852  0.87300358  0.52150415
   0.56011471  0.53722706  0.39096599
   0.31241362  0.20805407  0.56532447
   0.06139760  0.70473190  0.47876214
   0.18864761  0.61757549  0.30203754
   0.06409673  0.20116138  0.34672969
   0.81305769  0.53373809  0.25773675
   0.31342878  0.04443790  0.87342979
   0.68601503  0.45111897  0.34615062
   0.06317041  0.69981395  0.21398927
   0.18785751  0.45664436  0.56546094
   0.93729980  0.79166440  0.60982659
   0.81257148  0.04556339  0.87358219
   0.31318540  0.36729447  0.30210390
   0.43641598  0.78246149  0.12617132
   0.06251912  0.70671265  0.56552915
   0.56160693  0.69944136  0.21413667
   0.93815782  0.95323732  0.34626534
   0.31252796  0.37846338  0.78607549
   0.81331026  0.37606948  0.65358658
   0.31162776  0.04424723  0.74203712
   0.81268411  0.19966324  0.21415331
   0.93953785  0.11665831  0.30177286
   0.31298046  0.71040219  0.69723175
   0.06290840  0.86750051  0.30208513
   0.18796667  0.29179160  0.60960430
   0.56227925  0.04204588  0.61012665
   0.93842501  0.79407392  0.74211443
   0.06175731  0.21112289  0.69746756
   0.31184716  0.70343566  0.34657628
   0.68909967  0.78245413  0.12621545
   0.43756125  0.29141314  0.60983255
   0.43769944  0.45414955  0.47879454
   0.93632930  0.95706213  0.47859742
   0.68744920  0.62616520  0.65334992
   0.06228161  0.53266396  0.25753196
   0.56365691  0.70426217  0.47872260
   0.93748112  0.12601240  0.65326265
   0.31316210  0.20980350  0.69725698
   0.31231186  0.87214630  0.43480416
   0.18830133  0.78414109  0.25771146
   0.31245808  0.37178064  0.52184247
   0.56290680  0.20493339  0.47881325
   0.18764067  0.96208366  0.83073863
   0.81426659  0.20110184  0.34650335
   0.81304435  0.70618812  0.56544621
   0.68755897  0.12084034  0.43554245
   0.81207484  0.87595579  0.65326622
   0.68728365  0.62888835  0.78647041
   0.93740743  0.62561809  0.65334113
   0.68836906  0.12495905  0.52156392
   0.56140096  0.36837091  0.30199147
   0.93595217  0.29586521  0.87363286
   0.43771375  0.28380726  0.25787380
   0.31179745  0.54414339  0.74216842
   0.81288098  0.21190216  0.83116775
   0.94052420  0.28523914  0.39104789
   0.43785773  0.62094604  0.52177650
   0.43862252  0.29469598  0.87370099
   0.93857550  0.45084157  0.34675795
   0.43802189  0.45903771  0.69713545
   0.93766272  0.12204520  0.43525291
   0.56184823  0.04448301  0.74199956
   0.68710371  0.94967752  0.21406491
   0.43679943  0.11446551  0.16821501
   0.43687643  0.95832166  0.56550680
   0.43810070  0.79167323  0.61007050
   0.31231233  0.87874421  0.78617495
   0.93771886  0.94936072  0.21404299
   0.18819154  0.12595464  0.65314838
   0.93762638  0.29224563  0.60962094
   0.56161807  0.03356331  0.25743288
   0.43704936  0.78362087  0.25777343
   0.93601012  0.79572229  0.87373154
   0.81246565  0.03056356  0.12594847
   0.56283918  0.37290141  0.52167145
   0.68827711  0.95668844  0.47867492
   0.56295942  0.71065842  0.69702945
   0.93804821  0.61904411  0.30173023
   0.81231525  0.36545962  0.16849847
   0.56220899  0.19900579  0.21413841
   0.93702403  0.12737364  0.78625396
   0.93675549  0.45367063  0.47872444
   0.93728371  0.61501480  0.16825025
   0.81278872  0.53575270  0.39123873
   0.81292039  0.04247876  0.61009470
   0.68798424  0.45942593  0.69715673
   0.93686350  0.61919297  0.43563114
   0.93787116  0.95793726  0.56534557
   0.81407565  0.54631582  0.87370442
   0.68782195  0.61831732  0.30161648
   0.68807643  0.62081630  0.52168758
   0.81268871  0.87906360  0.78640424
   0.56190484  0.53372633  0.25777134
   0.18649285  0.46200675  0.83071430
   0.68753817  0.44973161  0.21412768
   0.31313994  0.87622037  0.65313122
   0.56220313  0.36532765  0.16865224
   0.31096506  0.20065933  0.34652170
   0.68699750  0.95329857  0.34674438
   0.06271768  0.20792619  0.56526885
   0.93731738  0.78336725  0.25793925
   0.68812316  0.62025595  0.43528368
   0.31199659  0.53394547  0.12658386
   0.68917695  0.79693483  0.87357516
   0.06167504  0.36972156  0.43513174
   0.18663382  0.79500305  0.74221410
   0.68719070  0.61439428  0.16850227
   0.18783918  0.62163993  0.52184159
   0.06139894  0.71309652  0.83115794
   0.06236481  0.37634654  0.65327635
   0.18680717  0.12746732  0.78601109
   0.56243831  0.87571667  0.65343495
   0.31253843  0.86785109  0.30222334
   0.31282772  0.53278151  0.25768031
   0.18859441  0.61508881  0.16856881
   0.93694976  0.12415765  0.52163352
   0.56423069  0.04460171  0.87354050
   0.18824890  0.28343978  0.25796597
   0.43876357  0.79742198  0.87368554
   0.93709407  0.78237600  0.12594766
   0.18691902  0.79634492  0.87362548
   0.06315991  0.03461362  0.25782254
   0.81236974  0.21089912  0.69719315
   0.81213359  0.70222697  0.34604566
   0.81398027  0.54409725  0.74183289
   0.31275691  0.54106192  0.60984900
   0.06066910  0.04566471  0.87352326
   0.93665214  0.96258732  0.83104459
   0.56226757  0.37782566  0.78636663
   0.43660622  0.29343477  0.74194290
   0.31307781  0.70549051  0.47870924
   0.31237185  0.54671094  0.87377072
   0.81276852  0.71293245  0.83132763
   0.93766988  0.11548251  0.16800951
   0.43690513  0.12469562  0.52161529
   0.31215374  0.70636138  0.56551189
   0.43756528  0.45642143  0.56542611
   0.81293961  0.53215198  0.12633733
   0.18820669  0.45070913  0.34667987
   0.68475826  0.78768727  0.39104056
   0.43756482  0.62836142  0.78624166
   0.56209318  0.54433337  0.74202396
   0.18787480  0.96120097  0.69738281
   0.31278863  0.36544015  0.16867456
   0.18773390  0.95741931  0.47861798
   0.56296983  0.53172223  0.12660809
   0.81258887  0.54129924  0.60974122
   0.06250442  0.36568554  0.16849519
   0.06438324  0.03833261  0.39074859
   0.43697087  0.12096731  0.43502382
   0.18652726  0.28085049  0.12637054
   0.06253863  0.87237520  0.43527614
   0.55950379  0.20062088  0.34634765
   0.81238625  0.20585019  0.47863221
   0.43723174  0.62075713  0.43493179
   0.31308828  0.71441192  0.83085918
   0.56094284  0.70295085  0.34659279
   0.93670182  0.46158761  0.83121161
   0.55999895  0.03466374  0.39082721
   0.06219765  0.37196164  0.52186652
   0.18731471  0.62021652  0.43509479
   0.68719236  0.29179799  0.60965315
   0.43808280  0.12792805  0.78620908
   0.69025377  0.29413065  0.87350375
   0.43429671  0.28504784  0.39081906
   0.68775860  0.29385953  0.74195653
   0.43655305  0.61478053  0.16875664
   0.43631606  0.61734094  0.30182964
   0.18686963  0.45348625  0.47865299
   0.68677083  0.28362302  0.25754867
   0.06137725  0.70883134  0.69747665
   0.56179493  0.86518930  0.16829105
   0.31190175  0.37004169  0.43505092
   0.93643927  0.62152382  0.52178240
   0.06149642  0.03005281  0.12601829
   0.18650135  0.29350762  0.74197902
   0.31273166  0.37537623  0.65330735
   0.68725989  0.79127691  0.61012184
   0.81291187  0.03336678  0.25751978
   0.56327737  0.71388685  0.83083303
   0.68779820  0.45669733  0.56538024
   0.81239571  0.86532125  0.16806469
   0.18794959  0.94850612  0.21399450
   0.81379476  0.37026407  0.43577711
   0.56397442  0.21133791  0.83070183
   0.06234716  0.54146331  0.60975335
   0.06016528  0.54623944  0.87373420
   0.18774095  0.62602992  0.65310240
   0.68809197  0.12769086  0.78656852
   0.93680493  0.96088269  0.69728778
   0.68788262  0.79445726  0.74204357
   0.81367854  0.86730911  0.30184888
   0.68717610  0.78379839  0.25780632
   0.43613671  0.45016648  0.34648208
   0.56272794  0.54075310  0.60993549
   0.43633752  0.78826930  0.39085640
   0.43773063  0.62599212  0.65329353
   0.18728501  0.62802802  0.78595768
   0.43546616  0.11727297  0.30203176
   0.81299290  0.37713255  0.78644799
   0.31260183  0.04244522  0.61007230
   0.06435244  0.53408754  0.39106223
   0.18772287  0.45086928  0.21405799
   0.06227249  0.87403613  0.52176248
   0.81272662  0.03623995  0.39094046
   0.68827069  0.28133350  0.12630647
   0.81304220  0.20833921  0.56527746
   0.31195990  0.87404063  0.52169300
   0.06278882  0.87660502  0.65304939
   0.93638022  0.28083821  0.12614757
   0.31205440  0.02999477  0.12611419
   0.31270752  0.20545270  0.47859795
   0.43755280  0.94809900  0.21406416
   0.06144093  0.53372377  0.12622115
   0.68722220  0.11562404  0.16827262
   0.68902927  0.46211060  0.83087285
   0.06429661  0.70181034  0.34609632
   0.93863202  0.29468050  0.74186953
   0.81261690  0.37220202  0.52172508
   0.93801036  0.44997767  0.21415840
   0.43736948  0.95738080  0.47857215
   0.31281806  0.21136528  0.83069909
   0.56109922  0.86797160  0.30191885
   0.81344992  0.04425376  0.74219278
   0.18770938  0.95810575  0.56532791
   0.18809715  0.12417181  0.52169507
   0.31236528  0.03693408  0.39060165
   0.93756809  0.62806419  0.78616810
   0.68649981  0.96038100  0.69702081
   0.43809222  0.96240342  0.83090799
   0.81240712  0.70002899  0.21410030
   0.43768228  0.12581707  0.65339422
   0.43661247  0.79490255  0.74211661
   0.06185583  0.20576125  0.47844855
   0.68837589  0.95819905  0.56541366
   0.56432145  0.54739004  0.87361331
   0.43824565  0.28109222  0.12653868
   0.56333837  0.03084972  0.12616494
   0.18668911  0.78247221  0.12591600
   0.56241172  0.20827583  0.56533359
   0.06219613  0.54390988  0.74219250
   0.56138887  0.37076593  0.43591890
   0.93909149  0.78803513  0.39098564
   0.06178846  0.19970274  0.21420266
   0.31181872  0.86568669  0.16802442
   0.31425536  0.19916482  0.21430128
   0.56264041  0.87341598  0.52132629
   0.18753878  0.12169285  0.43496654
   0.93673438  0.45933646  0.69707803
   0.68752287  0.11677770  0.30175153
   0.93592659  0.28315498  0.25756808
   0.06286109  0.04429202  0.74225621
   0.68747795  0.28399342  0.39087973
   0.06459436  0.36755203  0.30218637
Direct configuration=     3
   0.18816338  0.11736057  0.30214676
   0.81234100  0.70932446  0.69738583
   0.18743143  0.11413418  0.16808368
   0.31233252  0.03333848  0.25781526
   0.56282191  0.70581865  0.56545438
   0.18637119  0.29578003  0.87365099
   0.06221454  0.87873991  0.78602699
   0.18927140  0.78731572  0.39059185
   0.68806244  0.96312242  0.83104798
   0.43818821  0.46251269  0.83057776
   0.81225007  0.36905368  0.30182162
   0.18823265  0.95329902  0.34651089
   0.68843187  0.45452878  0.47877495
   0.56269457  0.87885682  0.78643436
   0.31274820  0.69961063  0.21387438
   0.18660443  0.45945516  0.69744189
   0.43824526  0.96060604  0.69732542
   0.81183133  0.70492757  0.47873649
   0.43718799  0.45074771  0.21394582
   0.93742884  0.45690661  0.56542596
   0.56247394  0.20925832  0.69723614
   0.06214971  0.37785188  0.78607509
   0.18761907  0.79184320  0.60988357
   0.06266629  0.04224681  0.60984119
   0.06332745  0.86623154  0.16834744
   0.56206093  0.87137685  0.43526631
   0.18783261  0.28519723  0.39072780
   0.31229263  0.53640516  0.39080632
   0.43592093  0.95322621  0.34658627
   0.56223585  0.37530307  0.65341561
   0.68722444  0.12567309  0.65354468
   0.81247677  0.87123641  0.43534696
   0.06125538  0.21213001  0.83104001
   0.81322455  0.87293607  0.52148931
   0.56054527  0.53701098  0.39084034
   0.31240605  0.20789032  0.56529773
   0.06161414  0.70482803  0.47877111
   0.18853037  0.61749905  0.30200865
   0.06378098  0.20131827  0.34665762
   0.81295443  0.53376017  0.25773421
   0.31329002  0.04468699  0.87340611
   0.68617797  0.45120078  0.34617449
   0.06302148  0.69987227  0.21390339
   0.18784372  0.45682491  0.56540879
   0.93736765  0.79174728  0.60980913
   0.81259180  0.04560173  0.87353248
   0.31316188  0.36744859  0.30207025
   0.43650305  0.78232126  0.12623498
   0.06255265  0.70682844  0.56545014
   0.56179521  0.69947971  0.21404396
   0.93798079  0.95289776  0.34627144
   0.31252241  0.37842906  0.78611742
   0.81322301  0.37607081  0.65361673
   0.31184808  0.04424552  0.74207925
   0.81270708  0.19961856  0.21403888
   0.93926693  0.11688524  0.30176048
   0.31284394  0.71037456  0.69740216
   0.06282745  0.86742075  0.30205550
   0.18793325  0.29179483  0.60961773
   0.56234536  0.04195805  0.61006746
   0.93821261  0.79405872  0.74212912
   0.06190637  0.21095501  0.69759677
   0.31196545  0.70319170  0.34653708
   0.68888828  0.78232634  0.12629581
   0.43753379  0.29144153  0.60983838
   0.43758308  0.45438867  0.47878148
   0.93652864  0.95676417  0.47861235
   0.68748527  0.62607018  0.65342057
   0.06234402  0.53276891  0.25755125
   0.56342278  0.70438595  0.47873008
   0.93749564  0.12601368  0.65333685
   0.31299294  0.20981177  0.69741565
   0.31224386  0.87189429  0.43481012
   0.18820130  0.78403765  0.25769830
   0.31244303  0.37196390  0.52178323
   0.56280482  0.20495470  0.47881406
   0.18765325  0.96213267  0.83081985
   0.81397051  0.20126733  0.34646075
   0.81298506  0.70638748  0.56540164
   0.68753731  0.12085987  0.43542163
   0.81216299  0.87595855  0.65333937
   0.68727462  0.62880744  0.78645213
   0.93744855  0.62570432  0.65340322
   0.68824307  0.12463045  0.52155540
   0.56169109  0.36826505  0.30199200
   0.93624617  0.29584178  0.87357893
   0.43765396  0.28372442  0.25783768
   0.31199806  0.54417645  0.74217958
   0.81282061  0.21202997  0.83118593
   0.94000314  0.28542716  0.39092217
   0.43776488  0.62133140  0.52172480
   0.43841839  0.29488193  0.87361644
   0.93836838  0.45101183  0.34669719
   0.43790045  0.45919668  0.69731678
   0.93755310  0.12178025  0.43518949
   0.56196286  0.04444741  0.74204982
   0.68715924  0.94961384  0.21395183
   0.43686011  0.11450645  0.16827676
   0.43695453  0.95811104  0.56544877
   0.43805207  0.79168826  0.61003021
   0.31231927  0.87866968  0.78619963
   0.93770565  0.94939462  0.21393211
   0.18810724  0.12596397  0.65323253
   0.93762814  0.29220046  0.60964686
   0.56178813  0.03352138  0.25745925
   0.43707614  0.78358012  0.25775991
   0.93629322  0.79574461  0.87365757
   0.81232012  0.03067678  0.12605462
   0.56277909  0.37288648  0.52163581
   0.68815017  0.95644481  0.47869411
   0.56286808  0.71059398  0.69723315
   0.93799699  0.61875547  0.30175329
   0.81232091  0.36542276  0.16855470
   0.56218041  0.19904629  0.21403243
   0.93710045  0.12744671  0.78627553
   0.93690114  0.45398532  0.47874984
   0.93731504  0.61506148  0.16832813
   0.81264781  0.53587144  0.39109813
   0.81285976  0.04239432  0.61005433
   0.68783626  0.45950386  0.69733969
   0.93689976  0.61950801  0.43552832
   0.93780075  0.95778738  0.56530444
   0.81380686  0.54623130  0.87363663
   0.68778138  0.61827171  0.30164454
   0.68801209  0.62120808  0.52164925
   0.81264825  0.87890437  0.78639057
   0.56203957  0.53379148  0.25777077
   0.18671630  0.46205846  0.83079913
   0.68756483  0.44978875  0.21402809
   0.31306384  0.87613938  0.65322880
   0.56234652  0.36531737  0.16867756
   0.31114685  0.20087415  0.34647130
   0.68708625  0.95306852  0.34667624
   0.06269353  0.20780934  0.56524182
   0.93739746  0.78337181  0.25789261
   0.68809100  0.62033957  0.43518199
   0.31209493  0.53366898  0.12660715
   0.68891812  0.79671228  0.87351429
   0.06173241  0.36997646  0.43509387
   0.18681650  0.79486979  0.74221828
   0.68724556  0.61441808  0.16856655
   0.18780352  0.62186214  0.52177071
   0.06162569  0.71294502  0.83117687
   0.06243178  0.37634035  0.65333085
   0.18692925  0.12754597  0.78606752
   0.56246825  0.87569033  0.65349768
   0.31260157  0.86768375  0.30217550
   0.31274823  0.53295396  0.25768756
   0.18843353  0.61513048  0.16859457
   0.93703969  0.12389880  0.52159408
   0.56394227  0.04484595  0.87348715
   0.18817679  0.28343763  0.25791283
   0.43852529  0.79713217  0.87360736
   0.93705277  0.78224074  0.12608873
   0.18709157  0.79627422  0.87356651
   0.06306136  0.03454382  0.25778516
   0.81237751  0.21072855  0.69737232
   0.81210431  0.70216829  0.34609885
   0.81362283  0.54411036  0.74191519
   0.31273461  0.54114419  0.60985072
   0.06105135  0.04574802  0.87347559
   0.93682852  0.96257655  0.83106150
   0.56230182  0.37791735  0.78635281
   0.43675369  0.29357898  0.74199863
   0.31299307  0.70549328  0.47871541
   0.31244534  0.54656874  0.87368614
   0.81272436  0.71289689  0.83131882
   0.93764337  0.11551166  0.16811100
   0.43700568  0.12438496  0.52158964
   0.31221952  0.70653177  0.56545978
   0.43756477  0.45662057  0.56537935
   0.81281124  0.53203135  0.12640538
   0.18805227  0.45098677  0.34661526
   0.68517776  0.78738535  0.39089958
   0.43756062  0.62836122  0.78625260
   0.56216076  0.54432471  0.74206868
   0.18783055  0.96102261  0.69750729
   0.31273041  0.36527629  0.16867170
   0.18772206  0.95703144  0.47863179
   0.56285466  0.53160269  0.12664156
   0.81259599  0.54134315  0.60975707
   0.06243538  0.36555588  0.16851918
   0.06401315  0.03789100  0.39066457
   0.43710756  0.12094529  0.43499266
   0.18662037  0.28105491  0.12640578
   0.06250742  0.87207530  0.43522060
   0.55996532  0.20082369  0.34633219
   0.81239380  0.20577200  0.47863872
   0.43721613  0.62077077  0.43491214
   0.31301332  0.71409755  0.83093328
   0.56120815  0.70282401  0.34654181
   0.93686007  0.46172728  0.83120412
   0.56045454  0.03498957  0.39074034
   0.06228528  0.37215722  0.52180071
   0.18733275  0.62039580  0.43508107
   0.68724735  0.29174159  0.60967437
   0.43798624  0.12801879  0.78622176
   0.68980434  0.29441745  0.87345994
   0.43480990  0.28527425  0.39073512
   0.68772181  0.29393055  0.74201038
   0.43663216  0.61485689  0.16876566
   0.43652435  0.61741044  0.30185153
   0.18698641  0.45383349  0.47866692
   0.68684668  0.28357405  0.25757636
   0.06155744  0.70910246  0.69760173
   0.56190620  0.86525457  0.16834813