<?xml version="1.0" encoding="ISO-8859-1"?>
<modeling>
 <generator>
  <i name="program" type="string">vasp </i>
  <i name="version" type="string">5.4.4.18Apr17-6-g9f103f2a35  </i>
  <i name="subversion" type="string">(build Sep 27 2018 12:46:37) complex + VL-xray_ parallel </i>
  <i name="platform" type="string">LLNL_Quartz_ifc </i>
  <i name="date" type="string">2021 09 26 </i>
  <i name="time" type="string">17:37:09 </i>
 </generator>
 <incar>
  <i type="int" name="ISTART">     2</i>
  <i type="string" name="PREC">accurate</i>
  <i type="string" name="ALGO"> Fast</i>
  <i type="int" name="ICHARG">     2</i>
  <i type="int" name="INIWAV">     1</i>
  <i type="int" name="NELM">   200</i>
  <i type="int" name="NELMIN">     4</i>
  <i type="int" name="IBRION">     2</i>
  <i name="EDIFF">      0.00000100</i>
  <i type="int" name="NSW">   500</i>
  <i type="int" name="ISIF">     2</i>
  <i type="int" name="ISYM">     2</i>
  <i name="ENCUT">    500.00000000</i>
  <i name="POTIM">      0.25000000</i>
  <i type="string" name="LREAL"> Auto</i>
  <i type="int" name="ISMEAR">     0</i>
  <i name="SIGMA">      0.05000000</i>
  <i type="logical" name="LWAVE"> F  </i>
  <i type="logical" name="LCHARG"> F  </i>
  <i type="int" name="ICORELEVEL">     0</i>
  <i type="int" name="CLNT">     1</i>
  <i type="int" name="CLN">     1</i>
  <i type="int" name="INCAR     ">     0</i>
  <i name="CLZ">      0.00000000</i>
  <v type="int" name="KPOINT_BSE">    -1     0     0     0</v>
  <i type="int" name="NELM">   200</i>
 </incar>
 <structure name="primitive_cell" >
  <crystal>
   <varray name="basis" >
    <v>       9.72667804       0.00000000       0.00000000 </v>
    <v>       0.00000000       8.42355028       0.00000000 </v>
    <v>       0.00000000       0.00000000      45.00000000 </v>
   </varray>
   <i name="volume">   3686.99226691 </i>
   <varray name="rec_basis" >
    <v>       0.10281002       0.00000000       0.00000000 </v>
    <v>       0.00000000       0.11871479       0.00000000 </v>
    <v>       0.00000000       0.00000000       0.02222222 </v>
   </varray>
  </crystal>
  <varray name="positions" >
   <v>       0.06255887      -0.29079675       0.21241053 </v>
   <v>       0.18696698      -0.04177200       0.21241885 </v>
   <v>       0.06264191      -0.12818579       0.16789413 </v>
   <v>       0.06273378      -0.45613563       0.25657972 </v>
   <v>      -0.06235157       0.45947725       0.21246279 </v>
   <v>      -0.06293309      -0.04142570       0.21240976 </v>
   <v>       0.31243133      -0.29138886       0.21249889 </v>
   <v>       0.18770961       0.45913861       0.21244736 </v>
   <v>      -0.18760351      -0.29077301       0.21241951 </v>
   <v>      -0.06202721      -0.20576358       0.25664963 </v>
   <v>       0.18778499      -0.20584882       0.25668305 </v>
   <v>      -0.06195822      -0.37814566       0.16785280 </v>
   <v>       0.18805830      -0.37810436       0.16778906 </v>
   <v>      -0.18703286      -0.12815127       0.16789500 </v>
   <v>       0.31223867      -0.45616700       0.25663534 </v>
   <v>      -0.18710481      -0.45600176       0.25670920 </v>
   <v>       0.31306057      -0.12829370       0.16791707 </v>
   <v>       0.06261029       0.04418097       0.25672221 </v>
   <v>       0.06268241       0.37163843       0.16776576 </v>
   <v>       0.18776580      -0.21015577       0.12543930 </v>
   <v>      -0.06222733      -0.20974856       0.12535778 </v>
   <v>       0.06224431      -0.45854942       0.12538934 </v>
   <v>      -0.06213029       0.12196157       0.16785279 </v>
   <v>       0.18810593       0.12215298       0.16793007 </v>
   <v>      -0.06249829       0.29432470       0.25669350 </v>
   <v>       0.18751857       0.29430060       0.25673675 </v>
   <v>       0.06275051       0.20868801       0.21239407 </v>
   <v>       0.43709543       0.45904020       0.21246494 </v>
   <v>       0.43749441      -0.04136563       0.21246031 </v>
   <v>      -0.31285348      -0.04178295       0.21242119 </v>
   <v>       0.43747831      -0.20591269       0.25667253 </v>
   <v>       0.06250435      -0.12499601       0.30082430 </v>
   <v>      -0.31249186      -0.20577288       0.25666084 </v>
   <v>      -0.31298543       0.45872163       0.21240543 </v>
   <v>      -0.31189131      -0.37797157       0.16791950 </v>
   <v>       0.31237067       0.04392375       0.25671695 </v>
   <v>      -0.06289538      -0.37480262       0.30094865 </v>
   <v>      -0.18779349       0.04403400       0.25678085 </v>
   <v>       0.18825106      -0.37462504       0.30099356 </v>
   <v>       0.43828380      -0.37808008       0.16793125 </v>
   <v>      -0.18782205       0.37194252       0.16786974 </v>
   <v>       0.31276754       0.37199114       0.16778321 </v>
   <v>       0.06195583       0.04093387       0.12543625 </v>
   <v>       0.31267128      -0.45925979       0.12548861 </v>
   <v>      -0.18773940      -0.45901159       0.12546945 </v>
   <v>       0.31220377       0.20845134       0.21249526 </v>
   <v>      -0.18746449       0.20848682       0.21256961 </v>
   <v>      -0.43793766      -0.29124797       0.21250375 </v>
   <v>       0.31205445      -0.12480465       0.30086147 </v>
   <v>      -0.18803281      -0.12556276       0.30080542 </v>
   <v>       0.06259111       0.37492304       0.30091792 </v>
   <v>       0.31234255       0.04136390       0.12544681 </v>
   <v>      -0.18794543       0.04105588       0.12542870 </v>
   <v>      -0.31256353      -0.21014447       0.12542984 </v>
   <v>       0.43795803      -0.21007796       0.12545707 </v>
   <v>       0.18799443       0.29026564       0.12548273 </v>
   <v>      -0.06297982       0.29051363       0.12541591 </v>
   <v>       0.43736416       0.12194708       0.16791303 </v>
   <v>      -0.31270368       0.12210192       0.16790897 </v>
   <v>      -0.43714386      -0.12814633       0.16799776 </v>
   <v>      -0.31265001       0.29440336       0.25668776 </v>
   <v>      -0.43772032      -0.45631403       0.25665166 </v>
   <v>       0.43779271       0.29400376       0.25676587 </v>
   <v>      -0.06232985       0.12505004       0.30077126 </v>
   <v>       0.31207905       0.37509343       0.30076857 </v>
   <v>       0.18792522       0.12530221       0.30099558 </v>
   <v>      -0.31197409      -0.37447873       0.30101589 </v>
   <v>       0.43795519      -0.37440292       0.30085071 </v>
   <v>      -0.18789333       0.37550017       0.30104547 </v>
   <v>      -0.43778301       0.04385960       0.25675310 </v>
   <v>      -0.43801470       0.37192871       0.16788273 </v>
   <v>       0.06269937      -0.29535174       0.34530298 </v>
   <v>      -0.43794748      -0.45871367       0.12545670 </v>
   <v>       0.43736019       0.29020298       0.12552817 </v>
   <v>      -0.31267567       0.29024460       0.12551067 </v>
   <v>      -0.43777156       0.20911433       0.21241793 </v>
   <v>       0.43699986       0.12540601       0.30082825 </v>
   <v>      -0.43738594      -0.12520386       0.30081127 </v>
   <v>      -0.31237584       0.12519840       0.30095132 </v>
   <v>       0.18763475      -0.04531052       0.34520519 </v>
   <v>      -0.06249003      -0.04535704       0.34531302 </v>
   <v>      -0.18718188      -0.29591806       0.34504105 </v>
   <v>       0.31238348      -0.29552247       0.34519161 </v>
   <v>      -0.06254668       0.45436220       0.34518345 </v>
   <v>       0.18744255       0.45451217       0.34521270 </v>
   <v>      -0.43811533       0.04080233       0.12552846 </v>
   <v>      -0.43771720       0.37484411       0.30084787 </v>
   <v>       0.06239886       0.20498175       0.34532022 </v>
   <v>      -0.31239803      -0.04534046       0.34529318 </v>
   <v>       0.43771363      -0.04478054       0.34523338 </v>
   <v>       0.43732354       0.45517768       0.34510875 </v>
   <v>      -0.31253458       0.45479719       0.34515702 </v>
   <v>      -0.18751855       0.20464665       0.34521683 </v>
   <v>       0.31263126       0.20454321       0.34529263 </v>
   <v>      -0.43756284      -0.29554316       0.34521620 </v>
   <v>       0.18726156      -0.20862356       0.38930902 </v>
   <v>      -0.06232270      -0.20856308       0.38931895 </v>
   <v>       0.06216421      -0.45844713       0.38935051 </v>
   <v>       0.06249446       0.04189174       0.38935151 </v>
   <v>       0.31232513      -0.45819459       0.38933785 </v>
   <v>      -0.18747071      -0.45926485       0.38950141 </v>
   <v>      -0.43731970       0.20483135       0.34533694 </v>
   <v>       0.31276609       0.04144985       0.38927678 </v>
   <v>      -0.18742967       0.04115518       0.38934946 </v>
   <v>       0.43799162      -0.20837226       0.38931229 </v>
   <v>      -0.31249688      -0.20867629       0.38938924 </v>
   <v>      -0.06232869       0.29159017       0.38933702 </v>
   <v>       0.18768458       0.29148078       0.38932771 </v>
   <v>      -0.43742879      -0.45837237       0.38935795 </v>
   <v>      -0.31228742       0.29100653       0.38954362 </v>
   <v>       0.43798319       0.29079109       0.38953531 </v>
   <v>      -0.43769157       0.04121331       0.38935505 </v>
   <v>       0.18749276      -0.37493690       0.43335226 </v>
   <v>      -0.06248366      -0.37529928       0.43340652 </v>
   <v>       0.06206977      -0.12424943       0.43347407 </v>
   <v>       0.06227115       0.37499147       0.43344687 </v>
   <v>       0.31215968      -0.12457385       0.43374088 </v>
   <v>      -0.18778378      -0.12503258       0.43372095 </v>
   <v>       0.43719927      -0.37512154       0.43340782 </v>
   <v>      -0.06234704       0.12505672       0.43363053 </v>
   <v>       0.31242957       0.37587603       0.43359399 </v>
   <v>      -0.31215751      -0.37499184       0.43368330 </v>
   <v>      -0.18749715       0.37560847       0.43369283 </v>
   <v>       0.18729840       0.12543811       0.43375269 </v>
   <v>      -0.43749400      -0.12476266       0.43336561 </v>
   <v>       0.43741066       0.12555172       0.43354586 </v>
   <v>      -0.31243247       0.12511523       0.43360991 </v>
   <v>      -0.43752016       0.37534397       0.43360050 </v>
   <v>       0.06266287      -0.29157755       0.47766673 </v>
   <v>      -0.06229023       0.45863585       0.47767406 </v>
   <v>       0.18766905      -0.04109390       0.47772526 </v>
   <v>      -0.18738096      -0.29117250       0.47772075 </v>
   <v>       0.31258090      -0.29122860       0.47771833 </v>
   <v>       0.18748289       0.45869704       0.47771747 </v>
   <v>      -0.06265576      -0.04149152       0.47779754 </v>
   <v>       0.06269818       0.20835451       0.47764800 </v>
   <v>       0.43752597      -0.04168628       0.47767101 </v>
   <v>      -0.31251438      -0.04103694       0.47774331 </v>
   <v>       0.43767011       0.45887324       0.47772448 </v>
   <v>      -0.31230669       0.45883885       0.47779019 </v>
   <v>      -0.18761041       0.20870361       0.47767760 </v>
   <v>      -0.43755191      -0.29143578       0.47767276 </v>
   <v>       0.31267865       0.20845575       0.47775122 </v>
   <v>      -0.43745314       0.20845934       0.47775630 </v>
   <v>       0.18751770      -0.20884098      -0.47779405 </v>
   <v>       0.06244916      -0.45952649      -0.47781223 </v>
   <v>      -0.06277009      -0.20902343      -0.47774116 </v>
   <v>      -0.18740787      -0.45943567      -0.47781983 </v>
   <v>       0.06227462       0.04086115      -0.47769787 </v>
   <v>       0.31254561      -0.45946876      -0.47777880 </v>
   <v>       0.31143638       0.04007663      -0.47780580 </v>
   <v>      -0.31231947      -0.20939321      -0.47789097 </v>
   <v>       0.43714118      -0.20929457      -0.47783967 </v>
   <v>      -0.18749717       0.04036911      -0.47778165 </v>
   <v>       0.18749841       0.29099171      -0.47779497 </v>
   <v>      -0.06258141       0.29106800      -0.47776051 </v>
   <v>      -0.43737414      -0.45924988      -0.47784274 </v>
   <v>       0.43706146       0.29093435      -0.47775746 </v>
   <v>      -0.31265410       0.29119914      -0.47773124 </v>
   <v>      -0.43740705       0.04045475      -0.47767181 </v>
   <v>       0.06489970      -0.28580201      -0.12537823 </v>
   <v>      -0.06227762      -0.04323207      -0.12514953 </v>
   <v>       0.18856079      -0.04291033      -0.12544868 </v>
   <v>       0.31428614      -0.28572107      -0.12536856 </v>
   <v>      -0.18718141      -0.28549787      -0.12546833 </v>
   <v>      -0.06166150       0.45584035      -0.12541717 </v>
   <v>       0.18764150       0.45620211      -0.12554598 </v>
   <v>       0.06531106       0.21471822      -0.12530676 </v>
   <v>       0.43673254      -0.04321408      -0.12529600 </v>
   <v>      -0.31340150      -0.04275019      -0.12524979 </v>
   <v>       0.43593616       0.45645232      -0.12553420 </v>
   <v>      -0.31236685       0.45648104      -0.12552062 </v>
   <v>      -0.18668960       0.21429860      -0.12527731 </v>
   <v>       0.31152446       0.21451249      -0.12539836 </v>
   <v>      -0.43982974      -0.28515839      -0.12539388 </v>
   <v>       0.18768485      -0.37608920      -0.43354666 </v>
   <v>       0.06252895      -0.12516093      -0.43341790 </v>
   <v>      -0.06240566      -0.37547306      -0.43343811 </v>
   <v>       0.31177934      -0.12542479      -0.43374966 </v>
   <v>       0.06207308       0.37487379      -0.43370475 </v>
   <v>      -0.18742238      -0.12578885      -0.43344453 </v>
   <v>       0.31278365       0.37459334      -0.43390150 </v>
   <v>      -0.06212374       0.12498112      -0.43378112 </v>
   <v>      -0.18749796       0.37483273      -0.43384284 </v>
   <v>       0.18760467       0.12352500      -0.43367996 </v>
   <v>      -0.31260927      -0.37600452      -0.43377705 </v>
   <v>       0.43786160      -0.37564574      -0.43363119 </v>
   <v>      -0.43918768       0.21509172      -0.12536993 </v>
   <v>      -0.31244035       0.12462986      -0.43383487 </v>
   <v>       0.43780724       0.12469428      -0.43368284 </v>
   <v>      -0.43773230      -0.12514541      -0.43338419 </v>
   <v>      -0.43747739       0.37483555      -0.43354550 </v>
   <v>      -0.06354720      -0.36724978      -0.16707567 </v>
   <v>       0.06168789      -0.12230107      -0.16790049 </v>
   <v>       0.18722504      -0.37151665      -0.16816042 </v>
   <v>      -0.18731931      -0.11970119      -0.16680562 </v>
   <v>       0.06269648       0.37961860      -0.16824204 </v>
   <v>       0.31222259      -0.12221665      -0.16814072 </v>
   <v>      -0.31213836      -0.36727071      -0.16701868 </v>
   <v>      -0.18828599       0.38236497      -0.16732873 </v>
   <v>      -0.06381877       0.13014348      -0.16765443 </v>
   <v>       0.31257316       0.37739767      -0.16817861 </v>
   <v>       0.18730392       0.12844396      -0.16803767 </v>
   <v>       0.43699356      -0.37111772      -0.16825604 </v>
   <v>      -0.31159979       0.13132168      -0.16733589 </v>
   <v>      -0.43671723      -0.12163221      -0.16796290 </v>
   <v>       0.43736937       0.13002567      -0.16804585 </v>
   <v>       0.06319387      -0.29187579      -0.38947349 </v>
   <v>      -0.43791916       0.37841110      -0.16810298 </v>
   <v>      -0.06229174      -0.04176490      -0.38947024 </v>
   <v>      -0.18670924      -0.29160426      -0.38942829 </v>
   <v>       0.31320460      -0.29135054      -0.38938121 </v>
   <v>      -0.06195844       0.45911652      -0.38934054 </v>
   <v>       0.18779822      -0.04169839      -0.38928887 </v>
   <v>       0.18662162       0.45856071      -0.38928683 </v>
   <v>      -0.31295509       0.45825252      -0.38946988 </v>
   <v>       0.06302528       0.20896355      -0.38939117 </v>
   <v>       0.43750201      -0.04266126      -0.38935570 </v>
   <v>       0.43807050       0.45816443      -0.38944368 </v>
   <v>      -0.31349058      -0.04112942      -0.38938551 </v>
   <v>       0.31320325       0.20815175      -0.38942214 </v>
   <v>      -0.43733991      -0.29126130      -0.38938305 </v>
   <v>      -0.18754007       0.20882258      -0.38936029 </v>
   <v>      -0.43609738       0.20942203      -0.38960736 </v>
   <v>      -0.06256508      -0.20913579      -0.21241574 </v>
   <v>       0.18804445      -0.20964310      -0.21243666 </v>
   <v>       0.06333828      -0.45885215      -0.21251113 </v>
   <v>       0.06147006       0.04135609      -0.21227280 </v>
   <v>      -0.18669419      -0.45888127      -0.21236666 </v>
   <v>       0.31303786      -0.45934366      -0.21239655 </v>
   <v>      -0.18737595       0.04201644      -0.21232383 </v>
   <v>       0.31346158       0.04006173      -0.21236552 </v>
   <v>       0.43783237      -0.20898358      -0.21240902 </v>
   <v>      -0.06250197       0.29121807      -0.21241674 </v>
   <v>      -0.31252174      -0.20849409      -0.21255533 </v>
   <v>       0.18755602       0.29122992      -0.21256530 </v>
   <v>      -0.43786362      -0.45897184      -0.21230741 </v>
   <v>      -0.31259743       0.29141406      -0.21242875 </v>
   <v>       0.43744358       0.29041647      -0.21244239 </v>
   <v>      -0.43696006       0.04183653      -0.21270376 </v>
   <v>       0.06203610      -0.45488989      -0.34537443 </v>
   <v>      -0.06316564      -0.20561228      -0.34518675 </v>
   <v>       0.18765547      -0.20507522      -0.34509216 </v>
   <v>       0.31161195      -0.45464832      -0.34519445 </v>
   <v>      -0.18765243      -0.45529997      -0.34512746 </v>
   <v>       0.06140253       0.04415588      -0.34513771 </v>
   <v>      -0.06266231       0.29231178      -0.34552888 </v>
   <v>       0.43790062      -0.20667406      -0.34546258 </v>
   <v>       0.18691090       0.29467306      -0.34523587 </v>
   <v>      -0.18815191       0.04520191      -0.34517943 </v>
   <v>      -0.31409506      -0.20649854      -0.34515587 </v>
   <v>       0.31175952       0.04549781      -0.34513662 </v>
   <v>      -0.31129218       0.29336181      -0.34534451 </v>
   <v>       0.43618896       0.29392701      -0.34529210 </v>
   <v>      -0.43907914      -0.45658277      -0.34519479 </v>
   <v>      -0.43868692       0.04313953      -0.34555704 </v>
   <v>       0.06207522      -0.29483865      -0.25651707 </v>
   <v>       0.18658611      -0.04382935      -0.25668901 </v>
   <v>      -0.06226481      -0.04429780      -0.25673878 </v>
   <v>       0.18608297       0.45523270      -0.25668392 </v>
   <v>      -0.06308262       0.45498773      -0.25665760 </v>
   <v>      -0.18661136      -0.29523316      -0.25679744 </v>
   <v>       0.31204008      -0.29447089      -0.25681891 </v>
   <v>       0.06231537       0.20533547      -0.25655051 </v>
   <v>       0.43734809      -0.04325117      -0.25654335 </v>
   <v>      -0.31317901      -0.04499891      -0.25668923 </v>
   <v>      -0.31221988       0.45508521      -0.25662597 </v>
   <v>       0.43872044       0.45708636      -0.25674756 </v>
   <v>      -0.43705212      -0.29375004      -0.25655522 </v>
   <v>      -0.18760483       0.20482242      -0.25672106 </v>
   <v>       0.31352533       0.20624879      -0.25690889 </v>
   <v>       0.18874772      -0.37566828      -0.30095702 </v>
   <v>      -0.06364290      -0.37552476      -0.30091933 </v>
   <v>       0.06337669      -0.12518675      -0.30085894 </v>
   <v>      -0.43718579       0.20512820      -0.25640599 </v>
   <v>      -0.18652861      -0.12532582      -0.30105733 </v>
   <v>       0.31222806      -0.12548262      -0.30083042 </v>
   <v>       0.06385971       0.37498323      -0.30069629 </v>
   <v>      -0.06323365       0.12465552      -0.30107924 </v>
   <v>       0.18817570       0.12450524      -0.30095685 </v>
   <v>       0.31315076       0.37429150      -0.30104185 </v>
   <v>      -0.31196209      -0.37539541      -0.30093771 </v>
   <v>       0.43667071      -0.37539066      -0.30088552 </v>
   <v>      -0.18839804       0.37492989      -0.30087614 </v>
   <v>      -0.31170429       0.12468500      -0.30093666 </v>
   <v>       0.43629973       0.12451610      -0.30081421 </v>
   <v>      -0.43598053      -0.12485188      -0.30068084 </v>
   <v>      -0.43752508       0.37517077      -0.30092482 </v>
  </varray>
 </structure>
 <varray name="primitive_index" >
  <v type="int" >        1 </v>
  <v type="int" >      109 </v>
  <v type="int" >      208 </v>
  <v type="int" >      220 </v>
  <v type="int" >      242 </v>
  <v type="int" >       71 </v>
  <v type="int" >      192 </v>
  <v type="int" >       10 </v>
  <v type="int" >       81 </v>
  <v type="int" >      238 </v>
  <v type="int" >       89 </v>
  <v type="int" >      193 </v>
  <v type="int" >       35 </v>
  <v type="int" >      231 </v>
  <v type="int" >      243 </v>
  <v type="int" >      227 </v>
  <v type="int" >      191 </v>
  <v type="int" >      263 </v>
  <v type="int" >       55 </v>
  <v type="int" >      262 </v>
  <v type="int" >      155 </v>
  <v type="int" >       22 </v>
  <v type="int" >      158 </v>
  <v type="int" >      126 </v>
  <v type="int" >      252 </v>
  <v type="int" >       45 </v>
  <v type="int" >      160 </v>
  <v type="int" >       28 </v>
  <v type="int" >       15 </v>
  <v type="int" >      161 </v>
  <v type="int" >      226 </v>
  <v type="int" >      147 </v>
  <v type="int" >      128 </v>
  <v type="int" >      205 </v>
  <v type="int" >      117 </v>
  <v type="int" >      278 </v>
  <v type="int" >       38 </v>
  <v type="int" >      222 </v>
  <v type="int" >      253 </v>
  <v type="int" >      265 </v>
  <v type="int" >      183 </v>
  <v type="int" >      138 </v>
  <v type="int" >       48 </v>
  <v type="int" >      197 </v>
  <v type="int" >       14 </v>
  <v type="int" >       61 </v>
  <v type="int" >       70 </v>
  <v type="int" >      251 </v>
  <v type="int" >      108 </v>
  <v type="int" >      277 </v>
  <v type="int" >       26 </v>
  <v type="int" >       23 </v>
  <v type="int" >       99 </v>
  <v type="int" >       25 </v>
  <v type="int" >       83 </v>
  <v type="int" >      189 </v>
  <v type="int" >      133 </v>
  <v type="int" >      143 </v>
  <v type="int" >       90 </v>
  <v type="int" >       44 </v>
  <v type="int" >      203 </v>
  <v type="int" >       33 </v>
  <v type="int" >        5 </v>
  <v type="int" >      145 </v>
  <v type="int" >       52 </v>
  <v type="int" >      142 </v>
  <v type="int" >      144 </v>
  <v type="int" >      100 </v>
  <v type="int" >      104 </v>
  <v type="int" >      261 </v>
  <v type="int" >      122 </v>
  <v type="int" >      112 </v>
  <v type="int" >       43 </v>
  <v type="int" >      279 </v>
  <v type="int" >      267 </v>
  <v type="int" >       63 </v>
  <v type="int" >      169 </v>
  <v type="int" >      255 </v>
  <v type="int" >      170 </v>
  <v type="int" >      254 </v>
  <v type="int" >       92 </v>
  <v type="int" >      118 </v>
  <v type="int" >      257 </v>
  <v type="int" >      190 </v>
  <v type="int" >      120 </v>
  <v type="int" >      214 </v>
  <v type="int" >      124 </v>
  <v type="int" >      153 </v>
  <v type="int" >       24 </v>
  <v type="int" >      236 </v>
  <v type="int" >       95 </v>
  <v type="int" >       34 </v>
  <v type="int" >      172 </v>
  <v type="int" >      258 </v>
  <v type="int" >      123 </v>
  <v type="int" >      229 </v>
  <v type="int" >      198 </v>
  <v type="int" >      247 </v>
  <v type="int" >      246 </v>
  <v type="int" >       57 </v>
  <v type="int" >       86 </v>
  <v type="int" >       50 </v>
  <v type="int" >      134 </v>
  <v type="int" >       17 </v>
  <v type="int" >       79 </v>
  <v type="int" >      156 </v>
  <v type="int" >      273 </v>
  <v type="int" >      105 </v>
  <v type="int" >      171 </v>
  <v type="int" >      232 </v>
  <v type="int" >      248 </v>
  <v type="int" >      244 </v>
  <v type="int" >      168 </v>
  <v type="int" >      137 </v>
  <v type="int" >      211 </v>
  <v type="int" >      256 </v>
  <v type="int" >      240 </v>
  <v type="int" >       46 </v>
  <v type="int" >      281 </v>
  <v type="int" >       32 </v>
  <v type="int" >      215 </v>
  <v type="int" >       94 </v>
  <v type="int" >       29 </v>
  <v type="int" >      223 </v>
  <v type="int" >      239 </v>
  <v type="int" >      184 </v>
  <v type="int" >      115 </v>
  <v type="int" >      136 </v>
  <v type="int" >       62 </v>
  <v type="int" >      166 </v>
  <v type="int" >      176 </v>
  <v type="int" >      268 </v>
  <v type="int" >      217 </v>
  <v type="int" >      132 </v>
  <v type="int" >      179 </v>
  <v type="int" >      185 </v>
  <v type="int" >      130 </v>
  <v type="int" >       91 </v>
  <v type="int" >       19 </v>
  <v type="int" >      249 </v>
  <v type="int" >      206 </v>
  <v type="int" >      207 </v>
  <v type="int" >      175 </v>
  <v type="int" >       11 </v>
  <v type="int" >      107 </v>
  <v type="int" >      178 </v>
  <v type="int" >      116 </v>
  <v type="int" >      241 </v>
  <v type="int" >      218 </v>
  <v type="int" >      230 </v>
  <v type="int" >      282 </v>
  <v type="int" >       18 </v>
  <v type="int" >      187 </v>
  <v type="int" >       93 </v>
  <v type="int" >      225 </v>
  <v type="int" >      209 </v>
  <v type="int" >      141 </v>
  <v type="int" >      111 </v>
  <v type="int" >       87 </v>
  <v type="int" >      181 </v>
  <v type="int" >       58 </v>
  <v type="int" >      274 </v>
  <v type="int" >      154 </v>
  <v type="int" >        2 </v>
  <v type="int" >      286 </v>
  <v type="int" >      151 </v>
  <v type="int" >      125 </v>
  <v type="int" >      212 </v>
  <v type="int" >       97 </v>
  <v type="int" >      234 </v>
  <v type="int" >      173 </v>
  <v type="int" >       27 </v>
  <v type="int" >       41 </v>
  <v type="int" >       39 </v>
  <v type="int" >      131 </v>
  <v type="int" >      148 </v>
  <v type="int" >       12 </v>
  <v type="int" >       72 </v>
  <v type="int" >       40 </v>
  <v type="int" >      250 </v>
  <v type="int" >      276 </v>
  <v type="int" >      216 </v>
  <v type="int" >      259 </v>
  <v type="int" >      146 </v>
  <v type="int" >      233 </v>
  <v type="int" >      264 </v>
  <v type="int" >       21 </v>
  <v type="int" >       13 </v>
  <v type="int" >      235 </v>
  <v type="int" >       68 </v>
  <v type="int" >       98 </v>
  <v type="int" >       16 </v>
  <v type="int" >       59 </v>
  <v type="int" >      177 </v>
  <v type="int" >       66 </v>
  <v type="int" >      285 </v>
  <v type="int" >        6 </v>
  <v type="int" >        7 </v>
  <v type="int" >      271 </v>
  <v type="int" >       73 </v>
  <v type="int" >      129 </v>
  <v type="int" >      150 </v>
  <v type="int" >      188 </v>
  <v type="int" >      152 </v>
  <v type="int" >      221 </v>
  <v type="int" >      174 </v>
  <v type="int" >      269 </v>
  <v type="int" >      180 </v>
  <v type="int" >      103 </v>
  <v type="int" >      201 </v>
  <v type="int" >       82 </v>
  <v type="int" >      280 </v>
  <v type="int" >      245 </v>
  <v type="int" >       51 </v>
  <v type="int" >      194 </v>
  <v type="int" >      102 </v>
  <v type="int" >      228 </v>
  <v type="int" >      288 </v>
  <v type="int" >        4 </v>
  <v type="int" >        3 </v>
  <v type="int" >       77 </v>
  <v type="int" >      162 </v>
  <v type="int" >      167 </v>
  <v type="int" >      287 </v>
  <v type="int" >      149 </v>
  <v type="int" >       36 </v>
  <v type="int" >      284 </v>
  <v type="int" >       67 </v>
  <v type="int" >      106 </v>
  <v type="int" >       60 </v>
  <v type="int" >      260 </v>
  <v type="int" >       85 </v>
  <v type="int" >      114 </v>
  <v type="int" >      199 </v>
  <v type="int" >       88 </v>
  <v type="int" >      266 </v>
  <v type="int" >      121 </v>
  <v type="int" >      182 </v>
  <v type="int" >      127 </v>
  <v type="int" >      283 </v>
  <v type="int" >      196 </v>
  <v type="int" >      157 </v>
  <v type="int" >      113 </v>
  <v type="int" >       49 </v>
  <v type="int" >       42 </v>
  <v type="int" >      135 </v>
  <v type="int" >       69 </v>
  <v type="int" >       53 </v>
  <v type="int" >      200 </v>
  <v type="int" >      213 </v>
  <v type="int" >      210 </v>
  <v type="int" >      186 </v>
  <v type="int" >       76 </v>
  <v type="int" >      159 </v>
  <v type="int" >       31 </v>
  <v type="int" >      140 </v>
  <v type="int" >      204 </v>
  <v type="int" >      237 </v>
  <v type="int" >      275 </v>
  <v type="int" >      110 </v>
  <v type="int" >      119 </v>
  <v type="int" >      202 </v>
  <v type="int" >       84 </v>
  <v type="int" >        9 </v>
  <v type="int" >       20 </v>
  <v type="int" >       80 </v>
  <v type="int" >       54 </v>
  <v type="int" >       78 </v>
  <v type="int" >      272 </v>
  <v type="int" >       96 </v>
  <v type="int" >       64 </v>
  <v type="int" >       74 </v>
  <v type="int" >      164 </v>
  <v type="int" >      195 </v>
  <v type="int" >      101 </v>
  <v type="int" >      163 </v>
  <v type="int" >      219 </v>
  <v type="int" >       65 </v>
  <v type="int" >      139 </v>
  <v type="int" >      165 </v>
  <v type="int" >      270 </v>
  <v type="int" >       56 </v>
  <v type="int" >        8 </v>
  <v type="int" >       30 </v>
  <v type="int" >      224 </v>
  <v type="int" >       37 </v>
  <v type="int" >       75 </v>
  <v type="int" >       47 </v>
 </varray>
 <kpoints>
  <generation param="Gamma">
   <v type="int" name="divisions">       6        6        1 </v>
   <v name="usershift">      0.00000000       0.00000000       0.00000000 </v>
   <v name="genvec1">      0.16666667       0.00000000       0.00000000 </v>
   <v name="genvec2">      0.00000000       0.16666667       0.00000000 </v>
   <v name="genvec3">      0.00000000       0.00000000       1.00000000 </v>
   <v name="shift">      0.00000000       0.00000000       0.00000000 </v>
  </generation>
  <varray name="kpointlist" >
   <v>       0.00000000       0.00000000       0.00000000 </v>
   <v>       0.16666667       0.00000000       0.00000000 </v>
   <v>       0.33333333       0.00000000       0.00000000 </v>
   <v>       0.50000000       0.00000000       0.00000000 </v>
   <v>       0.00000000       0.16666667       0.00000000 </v>
   <v>       0.16666667       0.16666667       0.00000000 </v>
   <v>       0.33333333       0.16666667       0.00000000 </v>
   <v>       0.50000000       0.16666667       0.00000000 </v>
   <v>      -0.33333333       0.16666667       0.00000000 </v>
   <v>      -0.16666667       0.16666667       0.00000000 </v>
   <v>       0.00000000       0.33333333       0.00000000 </v>
   <v>       0.16666667       0.33333333       0.00000000 </v>
   <v>       0.33333333       0.33333333       0.00000000 </v>
   <v>       0.50000000       0.33333333       0.00000000 </v>
   <v>      -0.33333333       0.33333333       0.00000000 </v>
   <v>      -0.16666667       0.33333333       0.00000000 </v>
   <v>       0.00000000       0.50000000       0.00000000 </v>
   <v>       0.16666667       0.50000000       0.00000000 </v>
   <v>       0.33333333       0.50000000       0.00000000 </v>
   <v>       0.50000000       0.50000000       0.00000000 </v>
  </varray>
  <varray name="weights" >
   <v>       0.02777778 </v>
   <v>       0.05555556 </v>
   <v>       0.05555556 </v>
   <v>       0.02777778 </v>
   <v>       0.05555556 </v>
   <v>       0.05555556 </v>
   <v>       0.05555556 </v>
   <v>       0.05555556 </v>
   <v>       0.05555556 </v>
   <v>       0.05555556 </v>
   <v>       0.05555556 </v>
   <v>       0.05555556 </v>
   <v>       0.05555556 </v>
   <v>       0.05555556 </v>
   <v>       0.05555556 </v>
   <v>       0.05555556 </v>
   <v>       0.02777778 </v>
   <v>       0.05555556 </v>
   <v>       0.05555556 </v>
   <v>       0.02777778 </v>
  </varray>
 </kpoints>
 <parameters>
  <separator name="general" >
   <i type="string" name="SYSTEM">unknown system</i>
   <i type="logical" name="LCOMPAT"> F  </i>
  </separator>
  <separator name="electronic" >
   <i type="string" name="PREC">accura</i>
   <i name="ENMAX">    500.00000000</i>
   <i name="ENAUG">    838.43500000</i>
   <i name="EDIFF">      0.00000100</i>
   <i type="int" name="IALGO">    68</i>
   <i type="int" name="IWAVPR">    11</i>
   <i type="int" name="NBANDS">  1380</i>
   <i name="NELECT">   2297.00000000</i>
   <i type="int" name="TURBO">     0</i>
   <i type="int" name="IRESTART">     0</i>
   <i type="int" name="NREBOOT">     0</i>
   <i type="int" name="NMIN">     0</i>
   <i name="EREF">      0.00000000</i>
   <separator name="electronic smearing" >
    <i type="int" name="ISMEAR">     0</i>
    <i name="SIGMA">      0.05000000</i>
    <i name="KSPACING">      0.50000000</i>
    <i type="logical" name="KGAMMA"> T  </i>
   </separator>
   <separator name="electronic projectors" >
    <i type="logical" name="LREAL"> T  </i>
    <v name="ROPT">     -0.00025000     -0.00025000</v>
    <i type="int" name="LMAXPAW">  -100</i>
    <i type="int" name="LMAXMIX">     2</i>
    <i type="logical" name="NLSPLINE"> F  </i>
   </separator>
   <separator name="electronic startup" >
    <i type="int" name="ISTART">     0</i>
    <i type="int" name="ICHARG">     2</i>
    <i type="int" name="INIWAV">     1</i>
   </separator>
   <separator name="electronic spin" >
    <i type="int" name="ISPIN">     1</i>
    <i type="logical" name="LNONCOLLINEAR"> F  </i>
    <v name="MAGMOM">      1.00000000      1.00000000      1.00000000      1.00000000      1.00000000      1.00000000      1.00000000      1.00000000      1.00000000      1.00000000      1.00000000      1.00000000      1.00000000      1.00000000      1.00000000      1.00000000      1.00000000      1.00000000      1.00000000      1.00000000
      1.00000000      1.00000000      1.00000000      1.00000000      1.00000000      1.00000000      1.00000000      1.00000000      1.00000000      1.00000000      1.00000000      1.00000000      1.00000000      1.00000000      1.00000000      1.00000000      1.00000000      1.00000000      1.00000000      1.00000000
      1.00000000      1.00000000      1.00000000      1.00000000      1.00000000      1.00000000      1.00000000      1.00000000      1.00000000      1.00000000      1.00000000      1.00000000      1.00000000      1.00000000      1.00000000      1.00000000      1.00000000      1.00000000      1.00000000      1.00000000
      1.00000000      1.00000000      1.00000000      1.00000000      1.00000000      1.00000000      1.00000000      1.00000000      1.00000000      1.00000000      1.00000000      1.00000000      1.00000000      1.00000000      1.00000000      1.00000000      1.00000000      1.00000000      1.00000000      1.00000000
      1.00000000      1.00000000      1.00000000      1.00000000      1.00000000      1.00000000      1.00000000      1.00000000      1.00000000      1.00000000      1.00000000      1.00000000      1.00000000      1.00000000      1.00000000      1.00000000      1.00000000      1.00000000      1.00000000      1.00000000
      1.00000000      1.00000000      1.00000000      1.00000000      1.00000000      1.00000000      1.00000000      1.00000000      1.00000000      1.00000000      1.00000000      1.00000000      1.00000000      1.00000000      1.00000000      1.00000000      1.00000000      1.00000000      1.00000000      1.00000000
      1.00000000      1.00000000      1.00000000      1.00000000      1.00000000      1.00000000      1.00000000      1.00000000      1.00000000      1.00000000      1.00000000      1.00000000      1.00000000      1.00000000      1.00000000      1.00000000      1.00000000      1.00000000      1.00000000      1.00000000
      1.00000000      1.00000000      1.00000000      1.00000000      1.00000000      1.00000000      1.00000000      1.00000000      1.00000000      1.00000000      1.00000000      1.00000000      1.00000000      1.00000000      1.00000000      1.00000000      1.00000000      1.00000000      1.00000000      1.00000000
      1.00000000      1.00000000      1.00000000      1.00000000      1.00000000      1.00000000      1.00000000      1.00000000      1.00000000      1.00000000      1.00000000      1.00000000      1.00000000      1.00000000      1.00000000      1.00000000      1.00000000      1.00000000      1.00000000      1.00000000
      1.00000000      1.00000000      1.00000000      1.00000000      1.00000000      1.00000000      1.00000000      1.00000000      1.00000000      1.00000000      1.00000000      1.00000000      1.00000000      1.00000000      1.00000000      1.00000000      1.00000000      1.00000000      1.00000000      1.00000000
      1.00000000      1.00000000      1.00000000      1.00000000      1.00000000      1.00000000      1.00000000      1.00000000      1.00000000      1.00000000      1.00000000      1.00000000      1.00000000      1.00000000      1.00000000      1.00000000      1.00000000      1.00000000      1.00000000      1.00000000
      1.00000000      1.00000000      1.00000000      1.00000000      1.00000000      1.00000000      1.00000000      1.00000000      1.00000000      1.00000000      1.00000000      1.00000000      1.00000000      1.00000000      1.00000000      1.00000000      1.00000000      1.00000000      1.00000000      1.00000000
      1.00000000      1.00000000      1.00000000      1.00000000      1.00000000      1.00000000      1.00000000      1.00000000      1.00000000      1.00000000      1.00000000      1.00000000      1.00000000      1.00000000      1.00000000      1.00000000      1.00000000      1.00000000      1.00000000      1.00000000
      1.00000000      1.00000000      1.00000000      1.00000000      1.00000000      1.00000000      1.00000000      1.00000000      1.00000000      1.00000000      1.00000000      1.00000000      1.00000000      1.00000000      1.00000000      1.00000000      1.00000000      1.00000000      1.00000000      1.00000000
      1.00000000      1.00000000      1.00000000      1.00000000      1.00000000      1.00000000      1.00000000      1.00000000</v>
    <i name="NUPDOWN">     -1.00000000</i>
    <i type="logical" name="LSORBIT"> F  </i>
    <v name="SAXIS">      0.00000000      0.00000000      1.00000000</v>
    <i type="logical" name="LSPIRAL"> F  </i>
    <v name="QSPIRAL">      0.00000000      0.00000000      0.00000000</v>
    <i type="logical" name="LZEROZ"> F  </i>
   </separator>
   <separator name="electronic exchange-correlation" >
    <i type="logical" name="LASPH"> F  </i>
    <i type="logical" name="LMETAGGA"> F  </i>
   </separator>
   <separator name="electronic convergence" >
    <i type="int" name="NELM">   200</i>
    <i type="int" name="NELMDL">     0</i>
    <i type="int" name="NELMIN">     4</i>
    <i name="ENINI">    500.00000000</i>
    <separator name="electronic convergence detail" >
     <i type="logical" name="LDIAG"> T  </i>
     <i type="logical" name="LSUBROT"> F  </i>
     <i name="WEIMIN">      0.00100000</i>
     <i name="EBREAK">      0.00000000</i>
     <i name="DEPER">      0.30000000</i>
     <i type="int" name="NRMM">     4</i>
     <i name="TIME">      0.40000000</i>
    </separator>
   </separator>
   <separator name="electronic mixer" >
    <i name="AMIX">      0.40000000</i>
    <i name="BMIX">      1.00000000</i>
    <i name="AMIN">      0.10000000</i>
    <i name="AMIX_MAG">      1.60000000</i>
    <i name="BMIX_MAG">      1.00000000</i>
    <separator name="electronic mixer details" >
     <i type="int" name="IMIX">     4</i>
     <i type="logical" name="MIXFIRST"> F  </i>
     <i type="int" name="MAXMIX">   -45</i>
     <i name="WC">    100.00000000</i>
     <i type="int" name="INIMIX">     1</i>
     <i type="int" name="MIXPRE">     1</i>
     <i type="int" name="MREMOVE">     5</i>
    </separator>
   </separator>
   <separator name="electronic dipolcorrection" >
    <i type="logical" name="LDIPOL"> F  </i>
    <i type="logical" name="LMONO"> F  </i>
    <i type="int" name="IDIPOL">     0</i>
    <i name="EPSILON">      1.00000000</i>
    <v name="DIPOL">   -100.00000000   -100.00000000   -100.00000000</v>
    <i name="EFIELD">      0.00000000</i>
   </separator>
  </separator>
  <separator name="grids" >
   <i type="int" name="NGX">    72</i>
   <i type="int" name="NGY">    64</i>
   <i type="int" name="NGZ">   336</i>
   <i type="int" name="NGXF">   144</i>
   <i type="int" name="NGYF">   128</i>
   <i type="int" name="NGZF">   672</i>
   <i type="logical" name="ADDGRID"> F  </i>
  </separator>
  <separator name="ionic" >
   <i type="int" name="NSW">   500</i>
   <i type="int" name="IBRION">     2</i>
   <i type="int" name="MDALGO">     0</i>
   <i type="int" name="ISIF">     2</i>
   <i name="PSTRESS">      0.00000000</i>
   <i name="EDIFFG">      0.00001000</i>
   <i type="int" name="NFREE">     1</i>
   <i name="POTIM">      0.25000000</i>
   <i name="SMASS">     -3.00000000</i>
   <i name="SCALEE">      1.00000000</i>
  </separator>
  <separator name="ionic md" >
   <i name="TEBEG">      0.00010000</i>
   <i name="TEEND">      0.00010000</i>
   <i type="int" name="NBLOCK">     1</i>
   <i type="int" name="KBLOCK">   500</i>
   <i type="int" name="NPACO">   256</i>
   <i name="APACO">     16.00000000</i>
  </separator>
  <separator name="symmetry" >
   <i type="int" name="ISYM">     2</i>
   <i name="SYMPREC">      0.00001000</i>
  </separator>
  <separator name="dos" >
   <i type="int" name="LORBIT">     0</i>
   <v name="RWIGS">     -1.00000000     -1.00000000</v>
   <i type="int" name="NEDOS">   301</i>
   <i name="EMIN">     10.00000000</i>
   <i name="EMAX">    -10.00000000</i>
   <i name="EFERMI">      0.00000000</i>
  </separator>
  <separator name="writing" >
   <i type="int" name="NWRITE">     2</i>
   <i type="logical" name="LWAVE"> F  </i>
   <i type="logical" name="LDOWNSAMPLE"> F  </i>
   <i type="logical" name="LCHARG"> F  </i>
   <i type="logical" name="LPARD"> F  </i>
   <i type="logical" name="LVTOT"> F  </i>
   <i type="logical" name="LVHAR"> F  </i>
   <i type="logical" name="LELF"> F  </i>
   <i type="logical" name="LOPTICS"> F  </i>
   <v name="STM">      0.00000000      0.00000000      0.00000000      0.00000000      0.00000000      0.00000000      0.00000000</v>
  </separator>
  <separator name="performance" >
   <i type="int" name="NPAR">    12</i>
   <i type="int" name="NSIM">     4</i>
   <i type="int" name="NBLK">    -1</i>
   <i type="logical" name="LPLANE"> T  </i>
   <i type="logical" name="LSCALAPACK"> T  </i>
   <i type="logical" name="LSCAAWARE"> F  </i>
   <i type="logical" name="LSCALU"> F  </i>
   <i type="logical" name="LASYNC"> F  </i>
   <i type="logical" name="LORBITALREAL"> F  </i>
  </separator>
  <separator name="miscellaneous" >
   <i type="int" name="IDIOT">     3</i>
   <i type="int" name="ISPECIAL">     0</i>
   <i type="logical" name="LMUSIC"> F  </i>
   <v name="POMASS">     55.84700000     54.93800000</v>
   <v name="DARWINR">      0.00000000      0.00000000</v>
   <v name="DARWINV">      1.00000000      1.00000000</v>
   <i type="logical" name="LCORR"> T  </i>
  </separator>
  <i type="logical" name="GGA_COMPAT"> T  </i>
  <i type="logical" name="LBERRY"> F  </i>
  <i type="int" name="ICORELEVEL">     0</i>
  <i type="logical" name="LDAU"> F  </i>
  <i type="int" name="I_CONSTRAINED_M">     0</i>
  <separator name="electronic exchange-correlation" >
   <i type="string" name="GGA">--</i>
   <i type="int" name="VOSKOWN">     0</i>
   <i type="logical" name="LHFCALC"> F  </i>
   <i type="string" name="PRECFOCK"></i>
   <i type="logical" name="LSYMGRAD"> F  </i>
   <i type="logical" name="LHFONE"> F  </i>
   <i type="logical" name="LRHFCALC"> F  </i>
   <i type="logical" name="LTHOMAS"> F  </i>
   <i type="logical" name="LMODELHF"> F  </i>
   <i name="ENCUT4O">     -1.00000000</i>
   <i type="int" name="EXXOEP">     0</i>
   <i type="int" name="FOURORBIT">     0</i>
   <i name="AEXX">      0.00000000</i>
   <i name="HFALPHA">      0.00000000</i>
   <i name="MCALPHA">      0.00000000</i>
   <i name="ALDAX">      1.00000000</i>
   <i name="AGGAX">      1.00000000</i>
   <i name="ALDAC">      1.00000000</i>
   <i name="AGGAC">      1.00000000</i>
   <i type="int" name="NKREDX">     1</i>
   <i type="int" name="NKREDY">     1</i>
   <i type="int" name="NKREDZ">     1</i>
   <i type="logical" name="SHIFTRED"> F  </i>
   <i type="logical" name="ODDONLY"> F  </i>
   <i type="logical" name="EVENONLY"> F  </i>
   <i type="int" name="LMAXFOCK">     0</i>
   <i type="int" name="NMAXFOCKAE">     0</i>
   <i type="logical" name="LFOCKAEDFT"> F  </i>
   <i name="HFSCREEN">      0.00000000</i>
   <i name="HFSCREENC">      0.00000000</i>
   <i type="int" name="NBANDSGWLOW">     0</i>
  </separator>
  <separator name="vdW DFT" >
   <i type="logical" name="LUSE_VDW"> F  </i>
   <i name="Zab_VDW">     -0.84910000</i>
   <i name="PARAM1">      0.12340000</i>
   <i name="PARAM2">      1.00000000</i>
   <i name="PARAM3">      0.00000000</i>
  </separator>
  <separator name="model GW" >
   <i type="int" name="MODEL_GW">     0</i>
   <i name="MODEL_EPS0">      7.68123389</i>
   <i name="MODEL_ALPHA">      1.00000000</i>
  </separator>
  <separator name="linear response parameters" >
   <i type="logical" name="LEPSILON"> F  </i>
   <i type="logical" name="LRPA"> F  </i>
   <i type="logical" name="LNABLA"> F  </i>
   <i type="logical" name="LVEL"> F  </i>
   <i type="int" name="KINTER">     0</i>
   <i name="CSHIFT">      0.10000000</i>
   <i name="OMEGAMAX">     -1.00000000</i>
   <i name="DEG_THRESHOLD">      0.00200000</i>
   <i name="RTIME">     -0.10000000</i>
   <i name="WPLASMAI">      0.00000000</i>
   <v name="DFIELD">      0.00000000      0.00000000      0.00000000</v>
   <v name="WPLASMA">      0.00000000      0.00000000      0.00000000      0.00000000      0.00000000      0.00000000      0.00000000      0.00000000      0.00000000</v>
  </separator>
  <separator name="orbital magnetization" >
   <i type="logical" name="NUCIND"> F  </i>
   <v name="MAGPOS">      0.00000000      0.00000000      0.00000000</v>
   <i type="logical" name="LNICSALL"> T  </i>
   <i type="logical" name="ORBITALMAG"> F  </i>
   <i type="logical" name="LMAGBLOCH"> F  </i>
   <i type="logical" name="LCHIMAG"> F  </i>
   <i type="logical" name="LGAUGE"> T  </i>
   <i type="int" name="MAGATOM">     0</i>
   <v name="MAGDIPOL">      0.00000000      0.00000000      0.00000000</v>
   <v name="AVECCONST">      0.00000000      0.00000000      0.00000000</v>
  </separator>
  <separator name="response functions" >
   <i type="logical" name="LADDER"> F  </i>
   <i type="logical" name="LRPAFORCE"> F  </i>
   <i type="logical" name="LFXC"> F  </i>
   <i type="logical" name="LHARTREE"> T  </i>
   <i type="int" name="IBSE">     0</i>
   <v type="int" name="KPOINT">    -1     0     0     0</v>
   <i type="logical" name="LTCTE"> F  </i>
   <i type="logical" name="LTETE"> F  </i>
   <i type="logical" name="LTRIPLET"> F  </i>
   <i type="logical" name="LFXCEPS"> F  </i>
   <i type="logical" name="LFXHEG"> F  </i>
   <i type="int" name="NATURALO">     2</i>
   <i type="logical" name="L2ORDER"> F  </i>
   <i type="logical" name="LMP2LT"> F  </i>
   <i type="logical" name="LUSEW"> F  </i>
   <i name="ENCUTGW">     -2.00000000</i>
   <i name="ENCUTGWSOFT">     -2.00000000</i>
   <i name="ENCUTLF">     -1.00000000</i>
   <i type="int" name="LMAXMP2">    -1</i>
   <i name="SCISSOR">      0.00000000</i>
   <i type="int" name="NOMEGA">     0</i>
   <i type="int" name="NOMEGAR">     0</i>
   <i type="int" name="NBANDSGW">    -1</i>
   <i type="int" name="NBANDSO">    -1</i>
   <i type="int" name="NBANDSV">    -1</i>
   <i type="int" name="NELM">   200</i>
   <i type="int" name="NELMHF">     1</i>
   <i type="int" name="DIM">     3</i>
   <i type="int" name="ANTIRES">     0</i>
   <i name="OMEGAMAX">    -30.00000000</i>
   <i name="OMEGAMIN">    -30.00000000</i>
   <i name="OMEGATL">   -200.00000000</i>
   <i type="int" name="OMEGAGRID">   140</i>
   <i name="CSHIFT">     -0.10000000</i>
   <i type="logical" name="SELFENERGY"> F  </i>
   <i type="logical" name="LSPECTRAL"> F  </i>
   <i type="logical" name="LSPECTRALGW"> F  </i>
   <i type="logical" name="LSINGLES"> F  </i>
   <i type="logical" name="LFERMIGW"> F  </i>
   <i type="logical" name="ODDONLYGW"> F  </i>
   <i type="logical" name="EVENONLYGW"> F  </i>
   <i type="int" name="NKREDLFX">     1</i>
   <i type="int" name="NKREDLFY">     1</i>
   <i type="int" name="NKREDLFZ">     1</i>
   <i type="int" name="MAXMEM">  2800</i>
   <i type="int" name="TELESCOPE">     0</i>
   <i type="int" name="TAUPAR">     1</i>
   <i type="int" name="OMEGAPAR">    -1</i>
   <i name="LAMBDA">      1.00000000</i>
  </separator>
  <separator name="External order field" >
   <i name="OFIELD_KAPPA">      0.00000000</i>
   <v name="OFIELD_K">      0.00000000      0.00000000      0.00000000</v>
   <i name="OFIELD_Q6_NEAR">      0.00000000</i>
   <i name="OFIELD_Q6_FAR">      0.00000000</i>
   <i name="OFIELD_A">      0.00000000</i>
  </separator>
 </parameters>
 <atominfo>
  <atoms>     288 </atoms>
  <types>       2 </types>
  <array name="atoms" >
   <dimension dim="1">ion</dimension>
   <field type="string">element</field>
   <field type="int">atomtype</field>
   <set>
    <rc><c>Fe</c><c>   1</c></rc>
    <rc><c>Fe</c><c>   1</c></rc>
    <rc><c>Fe</c><c>   1</c></rc>
    <rc><c>Fe</c><c>   1</c></rc>
    <rc><c>Fe</c><c>   1</c></rc>
    <rc><c>Fe</c><c>   1</c></rc>
    <rc><c>Fe</c><c>   1</c></rc>
    <rc><c>Fe</c><c>   1</c></rc>
    <rc><c>Fe</c><c>   1</c></rc>
    <rc><c>Fe</c><c>   1</c></rc>
    <rc><c>Fe</c><c>   1</c></rc>
    <rc><c>Fe</c><c>   1</c></rc>
    <rc><c>Fe</c><c>   1</c></rc>
    <rc><c>Fe</c><c>   1</c></rc>
    <rc><c>Fe</c><c>   1</c></rc>
    <rc><c>Fe</c><c>   1</c></rc>
    <rc><c>Fe</c><c>   1</c></rc>
    <rc><c>Fe</c><c>   1</c></rc>
    <rc><c>Fe</c><c>   1</c></rc>
    <rc><c>Fe</c><c>   1</c></rc>
    <rc><c>Fe</c><c>   1</c></rc>
    <rc><c>Fe</c><c>   1</c></rc>
    <rc><c>Fe</c><c>   1</c></rc>
    <rc><c>Fe</c><c>   1</c></rc>
    <rc><c>Fe</c><c>   1</c></rc>
    <rc><c>Fe</c><c>   1</c></rc>
    <rc><c>Fe</c><c>   1</c></rc>
    <rc><c>Fe</c><c>   1</c></rc>
    <rc><c>Fe</c><c>   1</c></rc>
    <rc><c>Fe</c><c>   1</c></rc>
    <rc><c>Fe</c><c>   1</c></rc>
    <rc><c>Fe</c><c>   1</c></rc>
    <rc><c>Fe</c><c>   1</c></rc>
    <rc><c>Fe</c><c>   1</c></rc>
    <rc><c>Fe</c><c>   1</c></rc>
    <rc><c>Fe</c><c>   1</c></rc>
    <rc><c>Fe</c><c>   1</c></rc>
    <rc><c>Fe</c><c>   1</c></rc>
    <rc><c>Fe</c><c>   1</c></rc>
    <rc><c>Fe</c><c>   1</c></rc>
    <rc><c>Fe</c><c>   1</c></rc>
    <rc><c>Fe</c><c>   1</c></rc>
    <rc><c>Fe</c><c>   1</c></rc>
    <rc><c>Fe</c><c>   1</c></rc>
    <rc><c>Fe</c><c>   1</c></rc>
    <rc><c>Fe</c><c>   1</c></rc>
    <rc><c>Fe</c><c>   1</c></rc>
    <rc><c>Fe</c><c>   1</c></rc>
    <rc><c>Fe</c><c>   1</c></rc>
    <rc><c>Fe</c><c>   1</c></rc>
    <rc><c>Fe</c><c>   1</c></rc>
    <rc><c>Fe</c><c>   1</c></rc>
    <rc><c>Fe</c><c>   1</c></rc>
    <rc><c>Fe</c><c>   1</c></rc>
    <rc><c>Fe</c><c>   1</c></rc>
    <rc><c>Fe</c><c>   1</c></rc>
    <rc><c>Fe</c><c>   1</c></rc>
    <rc><c>Fe</c><c>   1</c></rc>
    <rc><c>Fe</c><c>   1</c></rc>
    <rc><c>Fe</c><c>   1</c></rc>
    <rc><c>Fe</c><c>   1</c></rc>
    <rc><c>Fe</c><c>   1</c></rc>
    <rc><c>Fe</c><c>   1</c></rc>
    <rc><c>Fe</c><c>   1</c></rc>
    <rc><c>Fe</c><c>   1</c></rc>
    <rc><c>Fe</c><c>   1</c></rc>
    <rc><c>Fe</c><c>   1</c></rc>
    <rc><c>Fe</c><c>   1</c></rc>
    <rc><c>Fe</c><c>   1</c></rc>
    <rc><c>Fe</c><c>   1</c></rc>
    <rc><c>Fe</c><c>   1</c></rc>
    <rc><c>Fe</c><c>   1</c></rc>
    <rc><c>Fe</c><c>   1</c></rc>
    <rc><c>Fe</c><c>   1</c></rc>
    <rc><c>Fe</c><c>   1</c></rc>
    <rc><c>Fe</c><c>   1</c></rc>
    <rc><c>Fe</c><c>   1</c></rc>
    <rc><c>Fe</c><c>   1</c></rc>
    <rc><c>Fe</c><c>   1</c></rc>
    <rc><c>Fe</c><c>   1</c></rc>
    <rc><c>Fe</c><c>   1</c></rc>
    <rc><c>Fe</c><c>   1</c></rc>
    <rc><c>Fe</c><c>   1</c></rc>
    <rc><c>Fe</c><c>   1</c></rc>
    <rc><c>Fe</c><c>   1</c></rc>
    <rc><c>Fe</c><c>   1</c></rc>
    <rc><c>Fe</c><c>   1</c></rc>
    <rc><c>Fe</c><c>   1</c></rc>
    <rc><c>Fe</c><c>   1</c></rc>
    <rc><c>Fe</c><c>   1</c></rc>
    <rc><c>Fe</c><c>   1</c></rc>
    <rc><c>Fe</c><c>   1</c></rc>
    <rc><c>Fe</c><c>   1</c></rc>
    <rc><c>Fe</c><c>   1</c></rc>
    <rc><c>Fe</c><c>   1</c></rc>
    <rc><c>Fe</c><c>   1</c></rc>
    <rc><c>Fe</c><c>   1</c></rc>
    <rc><c>Fe</c><c>   1</c></rc>
    <rc><c>Fe</c><c>   1</c></rc>
    <rc><c>Fe</c><c>   1</c></rc>
    <rc><c>Fe</c><c>   1</c></rc>
    <rc><c>Fe</c><c>   1</c></rc>
    <rc><c>Fe</c><c>   1</c></rc>
    <rc><c>Fe</c><c>   1</c></rc>
    <rc><c>Fe</c><c>   1</c></rc>
    <rc><c>Fe</c><c>   1</c></rc>
    <rc><c>Fe</c><c>   1</c></rc>
    <rc><c>Fe</c><c>   1</c></rc>
    <rc><c>Fe</c><c>   1</c></rc>
    <rc><c>Fe</c><c>   1</c></rc>
    <rc><c>Fe</c><c>   1</c></rc>
    <rc><c>Fe</c><c>   1</c></rc>
    <rc><c>Fe</c><c>   1</c></rc>
    <rc><c>Fe</c><c>   1</c></rc>
    <rc><c>Fe</c><c>   1</c></rc>
    <rc><c>Fe</c><c>   1</c></rc>
    <rc><c>Fe</c><c>   1</c></rc>
    <rc><c>Fe</c><c>   1</c></rc>
    <rc><c>Fe</c><c>   1</c></rc>
    <rc><c>Fe</c><c>   1</c></rc>
    <rc><c>Fe</c><c>   1</c></rc>
    <rc><c>Fe</c><c>   1</c></rc>
    <rc><c>Fe</c><c>   1</c></rc>
    <rc><c>Fe</c><c>   1</c></rc>
    <rc><c>Fe</c><c>   1</c></rc>
    <rc><c>Fe</c><c>   1</c></rc>
    <rc><c>Fe</c><c>   1</c></rc>
    <rc><c>Fe</c><c>   1</c></rc>
    <rc><c>Fe</c><c>   1</c></rc>
    <rc><c>Fe</c><c>   1</c></rc>
    <rc><c>Fe</c><c>   1</c></rc>
    <rc><c>Fe</c><c>   1</c></rc>
    <rc><c>Fe</c><c>   1</c></rc>
    <rc><c>Fe</c><c>   1</c></rc>
    <rc><c>Fe</c><c>   1</c></rc>
    <rc><c>Fe</c><c>   1</c></rc>
    <rc><c>Fe</c><c>   1</c></rc>
    <rc><c>Fe</c><c>   1</c></rc>
    <rc><c>Fe</c><c>   1</c></rc>
    <rc><c>Fe</c><c>   1</c></rc>
    <rc><c>Fe</c><c>   1</c></rc>
    <rc><c>Fe</c><c>   1</c></rc>
    <rc><c>Fe</c><c>   1</c></rc>
    <rc><c>Fe</c><c>   1</c></rc>
    <rc><c>Fe</c><c>   1</c></rc>
    <rc><c>Fe</c><c>   1</c></rc>
    <rc><c>Fe</c><c>   1</c></rc>
    <rc><c>Fe</c><c>   1</c></rc>
    <rc><c>Fe</c><c>   1</c></rc>
    <rc><c>Fe</c><c>   1</c></rc>
    <rc><c>Fe</c><c>   1</c></rc>
    <rc><c>Fe</c><c>   1</c></rc>
    <rc><c>Fe</c><c>   1</c></rc>
    <rc><c>Fe</c><c>   1</c></rc>
    <rc><c>Fe</c><c>   1</c></rc>
    <rc><c>Fe</c><c>   1</c></rc>
    <rc><c>Fe</c><c>   1</c></rc>
    <rc><c>Fe</c><c>   1</c></rc>
    <rc><c>Fe</c><c>   1</c></rc>
    <rc><c>Fe</c><c>   1</c></rc>
    <rc><c>Fe</c><c>   1</c></rc>
    <rc><c>Fe</c><c>   1</c></rc>
    <rc><c>Fe</c><c>   1</c></rc>
    <rc><c>Fe</c><c>   1</c></rc>
    <rc><c>Fe</c><c>   1</c></rc>
    <rc><c>Fe</c><c>   1</c></rc>
    <rc><c>Fe</c><c>   1</c></rc>
    <rc><c>Fe</c><c>   1</c></rc>
    <rc><c>Fe</c><c>   1</c></rc>
    <rc><c>Fe</c><c>   1</c></rc>
    <rc><c>Fe</c><c>   1</c></rc>
    <rc><c>Fe</c><c>   1</c></rc>
    <rc><c>Fe</c><c>   1</c></rc>
    <rc><c>Fe</c><c>   1</c></rc>
    <rc><c>Fe</c><c>   1</c></rc>
    <rc><c>Fe</c><c>   1</c></rc>
    <rc><c>Fe</c><c>   1</c></rc>
    <rc><c>Fe</c><c>   1</c></rc>
    <rc><c>Fe</c><c>   1</c></rc>
    <rc><c>Fe</c><c>   1</c></rc>
    <rc><c>Fe</c><c>   1</c></rc>
    <rc><c>Fe</c><c>   1</c></rc>
    <rc><c>Fe</c><c>   1</c></rc>
    <rc><c>Fe</c><c>   1</c></rc>
    <rc><c>Fe</c><c>   1</c></rc>
    <rc><c>Fe</c><c>   1</c></rc>
    <rc><c>Fe</c><c>   1</c></rc>
    <rc><c>Fe</c><c>   1</c></rc>
    <rc><c>Fe</c><c>   1</c></rc>
    <rc><c>Fe</c><c>   1</c></rc>
    <rc><c>Fe</c><c>   1</c></rc>
    <rc><c>Fe</c><c>   1</c></rc>
    <rc><c>Fe</c><c>   1</c></rc>
    <rc><c>Fe</c><c>   1</c></rc>
    <rc><c>Fe</c><c>   1</c></rc>
    <rc><c>Fe</c><c>   1</c></rc>
    <rc><c>Fe</c><c>   1</c></rc>
    <rc><c>Fe</c><c>   1</c></rc>
    <rc><c>Fe</c><c>   1</c></rc>
    <rc><c>Fe</c><c>   1</c></rc>
    <rc><c>Fe</c><c>   1</c></rc>
    <rc><c>Fe</c><c>   1</c></rc>
    <rc><c>Fe</c><c>   1</c></rc>
    <rc><c>Fe</c><c>   1</c></rc>
    <rc><c>Fe</c><c>   1</c></rc>
    <rc><c>Fe</c><c>   1</c></rc>
    <rc><c>Fe</c><c>   1</c></rc>
    <rc><c>Fe</c><c>   1</c></rc>
    <rc><c>Fe</c><c>   1</c></rc>
    <rc><c>Fe</c><c>   1</c></rc>
    <rc><c>Fe</c><c>   1</c></rc>
    <rc><c>Fe</c><c>   1</c></rc>
    <rc><c>Fe</c><c>   1</c></rc>
    <rc><c>Fe</c><c>   1</c></rc>
    <rc><c>Fe</c><c>   1</c></rc>
    <rc><c>Fe</c><c>   1</c></rc>
    <rc><c>Fe</c><c>   1</c></rc>
    <rc><c>Fe</c><c>   1</c></rc>
    <rc><c>Fe</c><c>   1</c></rc>
    <rc><c>Fe</c><c>   1</c></rc>
    <rc><c>Fe</c><c>   1</c></rc>
    <rc><c>Fe</c><c>   1</c></rc>
    <rc><c>Fe</c><c>   1</c></rc>
    <rc><c>Fe</c><c>   1</c></rc>
    <rc><c>Fe</c><c>   1</c></rc>
    <rc><c>Fe</c><c>   1</c></rc>
    <rc><c>Fe</c><c>   1</c></rc>
    <rc><c>Fe</c><c>   1</c></rc>
    <rc><c>Fe</c><c>   1</c></rc>
    <rc><c>Fe</c><c>   1</c></rc>
    <rc><c>Fe</c><c>   1</c></rc>
    <rc><c>Fe</c><c>   1</c></rc>
    <rc><c>Fe</c><c>   1</c></rc>
    <rc><c>Fe</c><c>   1</c></rc>
    <rc><c>Fe</c><c>   1</c></rc>
    <rc><c>Fe</c><c>   1</c></rc>
    <rc><c>Fe</c><c>   1</c></rc>
    <rc><c>Fe</c><c>   1</c></rc>
    <rc><c>Fe</c><c>   1</c></rc>
    <rc><c>Fe</c><c>   1</c></rc>
    <rc><c>Fe</c><c>   1</c></rc>
    <rc><c>Fe</c><c>   1</c></rc>
    <rc><c>Fe</c><c>   1</c></rc>
    <rc><c>Fe</c><c>   1</c></rc>
    <rc><c>Fe</c><c>   1</c></rc>
    <rc><c>Fe</c><c>   1</c></rc>
    <rc><c>Fe</c><c>   1</c></rc>
    <rc><c>Fe</c><c>   1</c></rc>
    <rc><c>Fe</c><c>   1</c></rc>
    <rc><c>Fe</c><c>   1</c></rc>
    <rc><c>Fe</c><c>   1</c></rc>
    <rc><c>Fe</c><c>   1</c></rc>
    <rc><c>Fe</c><c>   1</c></rc>
    <rc><c>Fe</c><c>   1</c></rc>
    <rc><c>Fe</c><c>   1</c></rc>
    <rc><c>Fe</c><c>   1</c></rc>
    <rc><c>Fe</c><c>   1</c></rc>
    <rc><c>Fe</c><c>   1</c></rc>
    <rc><c>Fe</c><c>   1</c></rc>
    <rc><c>Fe</c><c>   1</c></rc>
    <rc><c>Fe</c><c>   1</c></rc>
    <rc><c>Fe</c><c>   1</c></rc>
    <rc><c>Fe</c><c>   1</c></rc>
    <rc><c>Fe</c><c>   1</c></rc>
    <rc><c>Fe</c><c>   1</c></rc>
    <rc><c>Fe</c><c>   1</c></rc>
    <rc><c>Fe</c><c>   1</c></rc>
    <rc><c>Fe</c><c>   1</c></rc>
    <rc><c>Fe</c><c>   1</c></rc>
    <rc><c>Fe</c><c>   1</c></rc>
    <rc><c>Fe</c><c>   1</c></rc>
    <rc><c>Fe</c><c>   1</c></rc>
    <rc><c>Fe</c><c>   1</c></rc>
    <rc><c>Fe</c><c>   1</c></rc>
    <rc><c>Fe</c><c>   1</c></rc>
    <rc><c>Fe</c><c>   1</c></rc>
    <rc><c>Fe</c><c>   1</c></rc>
    <rc><c>Fe</c><c>   1</c></rc>
    <rc><c>Fe</c><c>   1</c></rc>
    <rc><c>Fe</c><c>   1</c></rc>
    <rc><c>Fe</c><c>   1</c></rc>
    <rc><c>Mn</c><c>   2</c></rc>
    <rc><c>Mn</c><c>   2</c></rc>
    <rc><c>Mn</c><c>   2</c></rc>
    <rc><c>Mn</c><c>   2</c></rc>
    <rc><c>Mn</c><c>   2</c></rc>
    <rc><c>Mn</c><c>   2</c></rc>
    <rc><c>Mn</c><c>   2</c></rc>
   </set>
  </array>
  <array name="atomtypes" >
   <dimension dim="1">type</dimension>
   <field type="int">atomspertype</field>
   <field type="string">element</field>
   <field>mass</field>
   <field>valence</field>
   <field type="string">pseudopotential</field>
   <set>
    <rc><c> 281</c><c>Fe</c><c>     55.84700000</c><c>      8.00000000</c><c>  PAW_PBE Fe_GW 31Mar2010               </c></rc>
    <rc><c>   7</c><c>Mn</c><c>     54.93800000</c><c>      7.00000000</c><c>  PAW_PBE Mn_GW 31Mar2010               </c></rc>
   </set>
  </array>
 </atominfo>
 <structure name="initialpos" >
  <crystal>
   <varray name="basis" >
    <v>       9.72667804       0.00000000       0.00000000 </v>
    <v>       0.00000000       8.42355028       0.00000000 </v>
    <v>       0.00000000       0.00000000      45.00000000 </v>
   </varray>
   <i name="volume">   3686.99226691 </i>
   <varray name="rec_basis" >
    <v>       0.10281002       0.00000000       0.00000000 </v>
    <v>       0.00000000       0.11871479       0.00000000 </v>
    <v>       0.00000000       0.00000000       0.02222222 </v>
   </varray>
  </crystal>
  <varray name="positions" >
   <v>       0.06255887       0.70920325       0.21241053 </v>
   <v>       0.31428614       0.71427893       0.87463144 </v>
   <v>       0.68650942       0.95887058       0.61061449 </v>
   <v>       0.43807050       0.45816443       0.61055632 </v>
   <v>       0.43779271       0.29400376       0.25676587 </v>
   <v>       0.06269648       0.37961860       0.83175796 </v>
   <v>       0.31222259       0.87778335       0.83185928 </v>
   <v>       0.43667071       0.62460934       0.69911448 </v>
   <v>       0.06231537       0.20533547       0.74344949 </v>
   <v>       0.18770961       0.45913861       0.21244736 </v>
   <v>       0.56254686       0.20845934       0.47775630 </v>
   <v>       0.06252895       0.87483907       0.56658210 </v>
   <v>       0.56081232       0.21509172       0.87463007 </v>
   <v>       0.81226060       0.54098841       0.12546945 </v>
   <v>       0.43749441       0.95863437       0.21246031 </v>
   <v>       0.56252261       0.37483555       0.56645450 </v>
   <v>       0.81257033       0.04115518       0.38934946 </v>
   <v>       0.68768053       0.79060679       0.52210903 </v>
   <v>       0.43767011       0.45887324       0.47772448 </v>
   <v>       0.43734809       0.95674883       0.74345665 </v>
   <v>       0.43786160       0.62435426       0.56636881 </v>
   <v>       0.06224431       0.54145058       0.12538934 </v>
   <v>       0.31234255       0.04136390       0.12544681 </v>
   <v>       0.68760197       0.95465954       0.34529318 </v>
   <v>       0.68743647       0.78985553       0.12542984 </v>
   <v>       0.06259111       0.37492304       0.30091792 </v>
   <v>       0.68763315       0.45648104       0.87447938 </v>
   <v>       0.43709543       0.45904020       0.21246494 </v>
   <v>       0.81250285       0.37560847       0.43369283 </v>
   <v>       0.81160196       0.37492989       0.69912386 </v>
   <v>       0.56092086       0.54341723       0.65480521 </v>
   <v>       0.93765296       0.12505672       0.43363053 </v>
   <v>       0.56227968       0.54368597       0.25665166 </v>
   <v>       0.68746542       0.45479719       0.34515702 </v>
   <v>       0.18805830       0.62189564       0.16778906 </v>
   <v>       0.18804445       0.79035690       0.78756334 </v>
   <v>       0.43629973       0.12451610       0.69918579 </v>
   <v>       0.93710462       0.62519738       0.30094865 </v>
   <v>       0.31152446       0.21451249       0.87460164 </v>
   <v>       0.31177934       0.87457521       0.56625034 </v>
   <v>       0.81331040       0.21429860       0.87472269 </v>
   <v>       0.81234757       0.54470003       0.65487254 </v>
   <v>       0.56205252       0.54128633       0.12545670 </v>
   <v>       0.56285614       0.87185367       0.16799776 </v>
   <v>       0.18751857       0.29430060       0.25673675 </v>
   <v>       0.81221622       0.87496742       0.43372095 </v>
   <v>       0.56247492       0.37517077       0.69907518 </v>
   <v>       0.06195583       0.04093387       0.12543625 </v>
   <v>       0.31161195       0.54535168       0.65480555 </v>
   <v>       0.56268030       0.20483135       0.34533694 </v>
   <v>       0.18779822       0.95830161       0.61071113 </v>
   <v>       0.31207905       0.37509343       0.30076857 </v>
   <v>       0.43790062       0.79332594       0.65453742 </v>
   <v>       0.68778012       0.45508521       0.74337403 </v>
   <v>       0.06268241       0.37163843       0.16776576 </v>
   <v>       0.68803791       0.62460459       0.69906229 </v>
   <v>       0.31232513       0.54180541       0.38933785 </v>
   <v>       0.06489970       0.71419799       0.87462177 </v>
   <v>       0.93645280       0.63275022       0.83292433 </v>
   <v>       0.31303786       0.54065634       0.78760345 </v>
   <v>       0.31220377       0.20845134       0.21249526 </v>
   <v>       0.06266287       0.70842245       0.47766673 </v>
   <v>       0.56222844       0.20911433       0.21241793 </v>
   <v>       0.31352533       0.20624879       0.74309111 </v>
   <v>       0.06385971       0.37498323       0.69930371 </v>
   <v>       0.18722504       0.62848335       0.83183958 </v>
   <v>       0.06147006       0.04135609       0.78772720 </v>
   <v>       0.43780724       0.12469428       0.56631716 </v>
   <v>       0.93733769       0.29231178       0.65447112 </v>
   <v>       0.81253551       0.20848682       0.21256961 </v>
   <v>       0.93706691       0.95857430       0.21240976 </v>
   <v>       0.93759434       0.62452694       0.56656189 </v>
   <v>       0.81171401       0.38236497       0.83267127 </v>
   <v>       0.18874772       0.62433172       0.69904298 </v>
   <v>       0.56401947       0.87514812       0.69931916 </v>
   <v>       0.68870782       0.29336181       0.65465549 </v>
   <v>       0.31320325       0.20815175       0.61057786 </v>
   <v>       0.43872044       0.45708636       0.74325244 </v>
   <v>       0.43799162       0.79162774       0.38931229 </v>
   <v>       0.68682099       0.95500109       0.74331077 </v>
   <v>       0.81239649       0.70922699       0.21241951 </v>
   <v>       0.81329076       0.70839574       0.61057171 </v>
   <v>       0.43795803       0.78992204       0.12545707 </v>
   <v>       0.31204008       0.70552911       0.74318109 </v>
   <v>       0.31346158       0.04006173       0.78763448 </v>
   <v>       0.81252929       0.54073515       0.38950141 </v>
   <v>       0.68734590       0.29119914       0.52226876 </v>
   <v>       0.68747826       0.79150591       0.78744467 </v>
   <v>       0.18778499       0.79415118       0.25668305 </v>
   <v>       0.68729632       0.12210192       0.16790897 </v>
   <v>       0.68748562       0.95896306       0.47774331 </v>
   <v>       0.93750997       0.95464296       0.34531302 </v>
   <v>       0.81250283       0.04036911       0.52221835 </v>
   <v>       0.68784249       0.62500816       0.43368330 </v>
   <v>       0.43732354       0.45517768       0.34510875 </v>
   <v>       0.81239517       0.20482242       0.74327894 </v>
   <v>       0.43673254       0.95678592       0.87470400 </v>
   <v>       0.56226770       0.87485459       0.56661581 </v>
   <v>       0.81205457       0.04105588       0.12542870 </v>
   <v>       0.43795519       0.62559708       0.30085071 </v>
   <v>       0.56281421       0.20512820       0.74359401 </v>
   <v>       0.68704491       0.45825252       0.61053012 </v>
   <v>       0.56208084       0.37841110       0.83189702 </v>
   <v>       0.81210667       0.37550017       0.30104547 </v>
   <v>       0.18768458       0.29148078       0.38932771 </v>
   <v>       0.81330581       0.54111873       0.78763334 </v>
   <v>       0.18751770       0.79115902       0.52220595 </v>
   <v>       0.31205445       0.87519535       0.30086147 </v>
   <v>       0.18696698       0.95822800       0.21241885 </v>
   <v>       0.18608297       0.45523270       0.74331608 </v>
   <v>       0.43706146       0.29093435       0.52224254 </v>
   <v>       0.06269937       0.70464826       0.34530298 </v>
   <v>       0.18765547       0.79492478       0.65490784 </v>
   <v>       0.43783237       0.79101642       0.78759098 </v>
   <v>       0.68756753       0.12511523       0.43360991 </v>
   <v>       0.93722991       0.79097657       0.52225884 </v>
   <v>       0.68810869       0.62202843       0.16791950 </v>
   <v>       0.81281812       0.70408194       0.34504105 </v>
   <v>       0.93691738       0.45498773       0.74334240 </v>
   <v>       0.18744255       0.45451217       0.34521270 </v>
   <v>       0.56213638       0.54102816       0.78769259 </v>
   <v>       0.56198530       0.37192871       0.16788273 </v>
   <v>       0.56243716       0.70445684       0.34521620 </v>
   <v>       0.56228280       0.37484411       0.30084787 </v>
   <v>       0.18764150       0.45620211       0.87445402 </v>
   <v>       0.18810593       0.12215298       0.16793007 </v>
   <v>       0.43744358       0.29041647       0.78755761 </v>
   <v>       0.68750814       0.79422712       0.25666084 </v>
   <v>       0.93618123       0.13014348       0.83234557 </v>
   <v>       0.43752597       0.95831372       0.47767101 </v>
   <v>       0.56017026       0.71484161       0.87460612 </v>
   <v>       0.18748289       0.45869704       0.47771747 </v>
   <v>       0.93702018       0.29051363       0.12541591 </v>
   <v>       0.31276609       0.04144985       0.38927678 </v>
   <v>       0.06140253       0.04415588       0.65486229 </v>
   <v>       0.56247984       0.37534397       0.43360050 </v>
   <v>       0.93751634       0.62470072       0.43340652 </v>
   <v>       0.31276754       0.37199114       0.16778321 </v>
   <v>       0.93676635       0.12465552       0.69892076 </v>
   <v>       0.56131308       0.04313953       0.65444296 </v>
   <v>       0.56262586       0.54075012       0.52215726 </v>
   <v>       0.18792522       0.12530221       0.30099558 </v>
   <v>       0.43736416       0.12194708       0.16791303 </v>
   <v>       0.68802591       0.62552127       0.30101589 </v>
   <v>       0.93767015       0.12505004       0.30077126 </v>
   <v>       0.81250204       0.37483273       0.56615716 </v>
   <v>       0.06250435       0.87500399       0.30082430 </v>
   <v>       0.18768485       0.62391080       0.56645334 </v>
   <v>       0.93743492       0.79086421       0.78758426 </v>
   <v>       0.31257316       0.37739767       0.83182139 </v>
   <v>       0.93833850       0.45584035       0.87458283 </v>
   <v>       0.43699356       0.62888228       0.83174396 </v>
   <v>       0.06239886       0.20498175       0.34532022 </v>
   <v>       0.18856079       0.95708967       0.87455132 </v>
   <v>       0.93777267       0.79025144       0.12535778 </v>
   <v>       0.68750312       0.79132371       0.38938924 </v>
   <v>       0.93683436       0.79438772       0.65481325 </v>
   <v>       0.93786971       0.12196157       0.16785279 </v>
   <v>       0.43618896       0.29392701       0.65470790 </v>
   <v>       0.06275051       0.20868801       0.21239407 </v>
   <v>       0.68714652       0.95821705       0.21242119 </v>
   <v>       0.56266009       0.70873870       0.61061695 </v>
   <v>       0.81347139       0.87467418       0.69894267 </v>
   <v>       0.93635710       0.62447524       0.69908067 </v>
   <v>       0.18817570       0.12450524       0.69904315 </v>
   <v>       0.93770977       0.45863585       0.47767406 </v>
   <v>       0.81245993       0.20882258       0.61063971 </v>
   <v>       0.18749276       0.62506310       0.43335226 </v>
   <v>       0.43699986       0.12540601       0.30082825 </v>
   <v>       0.68762416       0.12519840       0.30095132 </v>
   <v>       0.56257121       0.54162763       0.38935795 </v>
   <v>       0.81248145       0.20464665       0.34521683 </v>
   <v>       0.43593616       0.45645232       0.87446580 </v>
   <v>       0.56328277       0.87836779       0.83203710 </v>
   <v>       0.31267865       0.20845575       0.47775122 </v>
   <v>       0.18766905       0.95890610       0.47772526 </v>
   <v>       0.06168789       0.87769893       0.83209951 </v>
   <v>       0.06244916       0.54047351       0.52218777 </v>
   <v>       0.93734424       0.95850848       0.47779754 </v>
   <v>       0.06319387       0.70812421       0.61052651 </v>
   <v>       0.56259295       0.04045475       0.52232819 </v>
   <v>       0.68740257       0.29141406       0.78757125 </v>
   <v>       0.81217795       0.37194252       0.16786974 </v>
   <v>       0.43741066       0.12555172       0.43354586 </v>
   <v>       0.06269818       0.20835451       0.47764800 </v>
   <v>       0.31175952       0.04549781       0.65486338 </v>
   <v>       0.43714118       0.79070543       0.52216033 </v>
   <v>       0.18730392       0.12844396       0.83196233 </v>
   <v>       0.18799443       0.29026564       0.12548273 </v>
   <v>       0.93745332       0.45436220       0.34518345 </v>
   <v>       0.31306057       0.87170630       0.16791707 </v>
   <v>       0.31243133       0.70861114       0.21249889 </v>
   <v>       0.93804178       0.62185434       0.16785280 </v>
   <v>       0.18662162       0.45856071       0.61071317 </v>
   <v>       0.06337669       0.87481325       0.69914106 </v>
   <v>       0.06203610       0.54511011       0.65462557 </v>
   <v>       0.31267128       0.54074021       0.12548861 </v>
   <v>       0.93767730       0.79143692       0.38931895 </v>
   <v>       0.93749803       0.29121807       0.78758326 </v>
   <v>       0.18691090       0.29467306       0.65476413 </v>
   <v>       0.93770826       0.95823510       0.61052976 </v>
   <v>       0.81338864       0.70476684       0.74320256 </v>
   <v>       0.68734999       0.29440336       0.25668776 </v>
   <v>       0.06207522       0.70516135       0.74348293 </v>
   <v>       0.68701457       0.45872163       0.21240543 </v>
   <v>       0.81238959       0.20870361       0.47767760 </v>
   <v>       0.56244809       0.70856422       0.47767276 </v>
   <v>       0.06264191       0.87181421       0.16789413 </v>
   <v>       0.93741859       0.29106800       0.52223949 </v>
   <v>       0.68590494       0.79350146       0.65484413 </v>
   <v>       0.06206977       0.87575057       0.43347407 </v>
   <v>       0.06531106       0.21471822       0.87469324 </v>
   <v>       0.81184809       0.04520191       0.65482057 </v>
   <v>       0.56188467       0.04080233       0.12552846 </v>
   <v>       0.31242957       0.37587603       0.43359399 </v>
   <v>       0.31278365       0.37459334       0.56609850 </v>
   <v>       0.31258090       0.70877140       0.47771833 </v>
   <v>       0.06227462       0.04086115       0.52230213 </v>
   <v>       0.31222806       0.87451738       0.69916958 </v>
   <v>       0.06273378       0.54386437       0.25657972 </v>
   <v>       0.68840021       0.13132168       0.83266411 </v>
   <v>       0.81220651       0.04403400       0.25678085 </v>
   <v>       0.18729840       0.12543811       0.43375269 </v>
   <v>       0.68829571       0.12468500       0.69906334 </v>
   <v>       0.18749841       0.29099171       0.52220503 </v>
   <v>       0.43747831       0.79408731       0.25667253 </v>
   <v>       0.81289519       0.54399824       0.25670920 </v>
   <v>       0.06302528       0.20896355       0.61060883 </v>
   <v>       0.18726156       0.79137644       0.38930902 </v>
   <v>       0.31254561       0.54053124       0.52222120 </v>
   <v>       0.81296714       0.87184873       0.16789500 </v>
   <v>       0.68771258       0.29100653       0.38954362 </v>
   <v>       0.18760467       0.12352500       0.56632004 </v>
   <v>       0.68659850       0.95724981       0.87475021 </v>
   <v>       0.68755965       0.12462986       0.56616513 </v>
   <v>       0.43771363       0.95521946       0.34523338 </v>
   <v>       0.18658611       0.95617065       0.74331099 </v>
   <v>       0.93797279       0.79423642       0.25664963 </v>
   <v>       0.56250600       0.87523734       0.43336561 </v>
   <v>       0.31215968       0.87542615       0.43374088 </v>
   <v>       0.81259213       0.54056433       0.52218017 </v>
   <v>       0.93764843       0.45947725       0.21246279 </v>
   <v>       0.31223867       0.54383300       0.25663534 </v>
   <v>       0.56230843       0.04121331       0.38935505 </v>
   <v>       0.93804156       0.45911652       0.61065946 </v>
   <v>       0.06249446       0.04189174       0.38935151 </v>
   <v>       0.06216421       0.54155287       0.38935051 </v>
   <v>       0.43798319       0.29079109       0.38953531 </v>
   <v>       0.68769331       0.45883885       0.47779019 </v>
   <v>       0.06207308       0.37487379       0.56629525 </v>
   <v>       0.56206234       0.70875203       0.21250375 </v>
   <v>       0.93750171       0.29432470       0.25669350 </v>
   <v>       0.18825106       0.62537496       0.30099356 </v>
   <v>       0.18763475       0.95468948       0.34520519 </v>
   <v>       0.56261406       0.87479614       0.30081127 </v>
   <v>       0.06227115       0.37499147       0.43344687 </v>
   <v>       0.31238348       0.70447753       0.34519161 </v>
   <v>       0.31263126       0.20454321       0.34529263 </v>
   <v>       0.93787626       0.12498112       0.56621888 </v>
   <v>       0.81262405       0.04201644       0.78767617 </v>
   <v>       0.56221699       0.04385960       0.25675310 </v>
   <v>       0.18776580       0.78984423       0.12543930 </v>
   <v>       0.06261029       0.04418097       0.25672221 </v>
   <v>       0.68739073       0.62399548       0.56622295 </v>
   <v>       0.43828380       0.62191992       0.16793125 </v>
   <v>       0.18755602       0.29122992       0.78743470 </v>
   <v>       0.68732433       0.29024460       0.12551067 </v>
   <v>       0.81261904       0.70882750       0.47772075 </v>
   <v>       0.43736937       0.13002567       0.83195415 </v>
   <v>       0.31315076       0.37429150       0.69895815 </v>
   <v>       0.68786164       0.63272929       0.83298132 </v>
   <v>       0.56294788       0.70624996       0.74344478 </v>
   <v>       0.93767131       0.29159017       0.38933702 </v>
   <v>       0.93772238       0.95676793       0.87485047 </v>
   <v>       0.93773519       0.95570220       0.74326122 </v>
   <v>       0.81257762       0.87421115       0.56655547 </v>
   <v>       0.81196719       0.87443724       0.30080542 </v>
   <v>       0.31237067       0.04392375       0.25671695 </v>
   <v>       0.43736019       0.29020298       0.12552817 </v>
   <v>       0.31320460       0.70864946       0.61061879 </v>
   <v>       0.43719927       0.62487846       0.43340782 </v>
   <v>       0.31143638       0.04007663       0.52219420 </v>
   <v>       0.56303994       0.04183653       0.78729624 </v>
   <v>       0.06333828       0.54114785       0.78748887 </v>
   <v>       0.81268069       0.88029881       0.83319438 </v>
   <v>       0.81281859       0.71450213       0.87453167 </v>
   <v>       0.56390262       0.20942203       0.61039264 </v>
   <v>       0.43750201       0.95733874       0.61064430 </v>
  </varray>
 </structure>
 <calculation>
  <scstep>
   <time name="dav">  186.97  187.31</time>
   <time name="total">  187.24  187.61</time>
   <energy>
    <i name="alphaZ">  16403.00255340 </i>
    <i name="ewald"> 750293.97530537 </i>
    <i name="hartreedc">-941905.03534021 </i>
    <i name="XCdc">  -6386.58160168 </i>
    <i name="pawpsdc"> 163151.95320885 </i>
    <i name="pawaedc">-160818.84594568 </i>
    <i name="eentropy">     -0.11095399 </i>
    <i name="bandstr">  39898.04266924 </i>
    <i name="atom"> 169917.62849998 </i>
    <i name="e_fr_energy">  30554.02839527 </i>
    <i name="e_wo_entrp">  30554.13934927 </i>
    <i name="e_0_energy">  30554.08387227 </i>
   </energy>
  </scstep>
  <scstep>
   <time name="dav">  188.23  188.26</time>
   <time name="total">  188.23  188.27</time>
   <energy>
    <i name="e_fr_energy">   1531.11037659 </i>
    <i name="e_wo_entrp">   1531.26506419 </i>
    <i name="e_0_energy">   1531.18772039 </i>
   </energy>
  </scstep>
  <scstep>
   <time name="dav">  244.70  244.74</time>
   <time name="total">  244.71  244.75</time>
   <energy>
    <i name="e_fr_energy">  -1883.63404877 </i>
    <i name="e_wo_entrp">  -1883.24322773 </i>
    <i name="e_0_energy">  -1883.43863825 </i>
   </energy>
  </scstep>
  <scstep>
   <time name="dav">  309.16  309.20</time>
   <time name="total">  309.17  309.21</time>
   <energy>
    <i name="e_fr_energy">  -2594.49526839 </i>
    <i name="e_wo_entrp">  -2594.09465645 </i>
    <i name="e_0_energy">  -2594.29496242 </i>
   </energy>
  </scstep>
  <scstep>
   <time name="dav">  296.54  296.58</time>
   <time name="total">  304.20  304.24</time>
   <energy>
    <i name="e_fr_energy">  -2724.63963770 </i>
    <i name="e_wo_entrp">  -2724.22587495 </i>
    <i name="e_0_energy">  -2724.43275632 </i>
   </energy>
  </scstep>
  <scstep>
   <time name="diag">   26.24   26.25</time>
   <time name="diis">  132.94  132.96</time>
   <time name="orth">    7.93    7.93</time>
   <time name="total">  174.78  174.81</time>
   <energy>
    <i name="e_fr_energy">  -6907.25505836 </i>
    <i name="e_wo_entrp">  -6906.80547845 </i>
    <i name="e_0_energy">  -6907.03026840 </i>
   </energy>
  </scstep>
  <scstep>
   <time name="diag">   26.26   26.27</time>
   <time name="diis">  135.67  135.69</time>
   <time name="orth">    7.94    7.94</time>
   <time name="total">  177.31  177.34</time>
   <energy>
    <i name="e_fr_energy">  -7291.70357137 </i>
    <i name="e_wo_entrp">  -7291.38948276 </i>
    <i name="e_0_energy">  -7291.54652707 </i>
   </energy>
  </scstep>
  <scstep>
   <time name="diag">   26.22   26.22</time>
   <time name="diis">  106.56  106.57</time>
   <time name="orth">    7.83    7.83</time>
   <time name="total">  148.12  148.15</time>
   <energy>
    <i name="e_fr_energy">  -6777.49458381 </i>
    <i name="e_wo_entrp">  -6777.15369952 </i>
    <i name="e_0_energy">  -6777.32414167 </i>
   </energy>
  </scstep>
  <scstep>
   <time name="diag">   26.25   26.25</time>
   <time name="diis">  125.45  125.46</time>
   <time name="orth">    7.83    7.83</time>
   <time name="total">  167.05  167.08</time>
   <energy>
    <i name="e_fr_energy">  -9339.39400419 </i>
    <i name="e_wo_entrp">  -9339.26460885 </i>
    <i name="e_0_energy">  -9339.32930652 </i>
   </energy>
  </scstep>
  <scstep>
   <time name="diag">   26.24   26.24</time>
   <time name="diis">  131.73  131.74</time>
   <time name="orth">    7.88    7.88</time>
   <time name="total">  173.24  173.27</time>
   <energy>
    <i name="e_fr_energy"> -10423.18072590 </i>
    <i name="e_wo_entrp"> -10423.07858546 </i>
    <i name="e_0_energy"> -10423.12965568 </i>
   </energy>
  </scstep>
  <scstep>
   <time name="diag">   26.25   26.25</time>
   <time name="diis">  127.56  127.57</time>
   <time name="orth">    7.82    7.82</time>
   <time name="total">  169.05  169.08</time>
   <energy>
    <i name="e_fr_energy"> -10779.79597453 </i>
    <i name="e_wo_entrp"> -10779.70675427 </i>
    <i name="e_0_energy"> -10779.75136440 </i>
   </energy>
  </scstep>
  <scstep>
   <time name="diag">   26.25   26.25</time>
   <time name="diis">  125.63  125.64</time>
   <time name="orth">    7.94    7.94</time>
   <time name="total">  167.44  167.48</time>
   <energy>
    <i name="e_fr_energy">  -7037.79818865 </i>
    <i name="e_wo_entrp">  -7037.32706253 </i>
    <i name="e_0_energy">  -7037.56262559 </i>
   </energy>
  </scstep>
  <scstep>
   <time name="diag">   26.30   26.30</time>
   <time name="diis">  131.70  131.71</time>
   <time name="orth">    7.91    7.91</time>
   <time name="total">  173.26  173.29</time>
   <energy>
    <i name="e_fr_energy">  -8207.65033996 </i>
    <i name="e_wo_entrp">  -8207.43111223 </i>
    <i name="e_0_energy">  -8207.54072610 </i>
   </energy>
  </scstep>
  <scstep>
   <time name="diag">   26.25   26.25</time>
   <time name="diis">  105.48  105.48</time>
   <time name="orth">    7.83    7.84</time>
   <time name="total">  147.04  147.06</time>
   <energy>
    <i name="e_fr_energy">  -5788.60487490 </i>
    <i name="e_wo_entrp">  -5788.29994600 </i>
    <i name="e_0_energy">  -5788.45241045 </i>
   </energy>
  </scstep>
  <scstep>
   <time name="diag">   26.27   26.28</time>
   <time name="diis">  123.33  123.34</time>
   <time name="orth">    7.81    7.81</time>
   <time name="total">  164.75  164.78</time>
   <energy>
    <i name="e_fr_energy">  -4795.18521449 </i>
    <i name="e_wo_entrp">  -4795.00282106 </i>
    <i name="e_0_energy">  -4795.09401778 </i>
   </energy>
  </scstep>
  <scstep>
   <time name="diag">   26.28   26.28</time>
   <time name="diis">  107.71  107.72</time>
   <time name="orth">    7.93    7.93</time>
   <time name="total">  149.42  149.45</time>
   <energy>
    <i name="e_fr_energy">  -5028.48734357 </i>
    <i name="e_wo_entrp">  -5028.18952681 </i>
    <i name="e_0_energy">  -5028.33843519 </i>
   </energy>
  </scstep>
  <scstep>
   <time name="diag">   26.30   26.30</time>
   <time name="diis">  113.27  113.28</time>
   <time name="orth">    7.84    7.84</time>
   <time name="total">  154.76  154.78</time>
   <energy>
    <i name="e_fr_energy">  -3844.13392254 </i>
    <i name="e_wo_entrp">  -3843.90408494 </i>
    <i name="e_0_energy">  -3844.01900374 </i>
   </energy>
  </scstep>
  <scstep>
   <time name="diag">   26.24   26.24</time>
   <time name="diis">  123.01  123.02</time>
   <time name="orth">    7.87    7.88</time>
   <time name="total">  164.69  164.71</time>
   <energy>
    <i name="e_fr_energy">  -3785.27198984 </i>
    <i name="e_wo_entrp">  -3784.85544088 </i>
    <i name="e_0_energy">  -3785.06371536 </i>
   </energy>
  </scstep>
  <scstep>
   <time name="diag">   26.24   26.24</time>
