<?xml version="1.0" encoding="ISO-8859-1"?>
<modeling>
 <generator>
  <i name="program" type="string">vasp </i>
  <i name="version" type="string">5.4.4.18Apr17-6-g9f103f2a35  </i>
  <i name="subversion" type="string">(build May 29 2019 08:40:53) complex            parallel </i>
  <i name="platform" type="string">LinuxPGI </i>
  <i name="date" type="string">2021 11 22 </i>
  <i name="time" type="string">02:26:46 </i>
 </generator>
 <incar>
  <i type="int" name="ISTART">     2</i>
  <i type="string" name="PREC">accurate</i>
  <i type="string" name="ALGO"> Fast</i>
  <i type="int" name="ICHARG">     2</i>
  <i type="int" name="INIWAV">     1</i>
  <i type="int" name="NELM">   100</i>
  <i type="int" name="NELMIN">     4</i>
  <i type="int" name="IBRION">     2</i>
  <i name="EDIFF">      0.00001000</i>
  <i type="int" name="NSW">   500</i>
  <i type="int" name="ISIF">     2</i>
  <i type="int" name="ISYM">     2</i>
  <i name="ENCUT">    500.00000000</i>
  <i name="POTIM">      0.25000000</i>
  <i type="string" name="LREAL"> Auto</i>
  <i type="int" name="ISMEAR">     0</i>
  <i name="SIGMA">      0.15000000</i>
  <i type="logical" name="LWAVE"> F  </i>
  <i type="logical" name="LCHARG"> F  </i>
  <v type="int" name="KPOINT_BSE">    -1     0     0     0</v>
  <i type="int" name="NELM">   100</i>
 </incar>
 <structure name="primitive_cell" >
  <crystal>
   <varray name="basis" >
    <v>       9.72667800       0.00000000       0.00000000 </v>
    <v>       0.00000000       8.42355000       0.00000000 </v>
    <v>       0.00000000       0.00000000      45.00000000 </v>
   </varray>
   <i name="volume">   3686.99213101 </i>
   <varray name="rec_basis" >
    <v>       0.10281002       0.00000000       0.00000000 </v>
    <v>       0.00000000       0.11871479       0.00000000 </v>
    <v>       0.00000000       0.00000000       0.02222222 </v>
   </varray>
  </crystal>
  <varray name="positions" >
   <v>       0.06261802       0.20139061       0.34504526 </v>
   <v>      -0.06217717      -0.04846910       0.34514587 </v>
   <v>       0.18762890      -0.04848618       0.34512682 </v>
   <v>       0.31256308       0.20173245       0.34513295 </v>
   <v>      -0.18733278       0.20113955       0.34507730 </v>
   <v>       0.06227884       0.03618000       0.38937430 </v>
   <v>      -0.06246578       0.45171447       0.34517414 </v>
   <v>       0.18753601       0.45210650       0.34514132 </v>
   <v>       0.06269632       0.36590269       0.30043666 </v>
   <v>      -0.06254417       0.28545137       0.38933447 </v>
   <v>       0.18749052       0.28620870       0.38934396 </v>
   <v>       0.18733653       0.11590955       0.30048265 </v>
   <v>      -0.06231317       0.11594146       0.30044556 </v>
   <v>       0.31239612       0.03619847       0.38936900 </v>
   <v>      -0.18746762       0.03563834       0.38927331 </v>
   <v>       0.31223685       0.36576395       0.30048323 </v>
   <v>      -0.18758315       0.36591879       0.30044271 </v>
   <v>       0.06268513      -0.46426457       0.38932895 </v>
   <v>       0.06261496      -0.13411847       0.30043699 </v>
   <v>       0.18734559      -0.38454836       0.30041042 </v>
   <v>       0.18751452      -0.21420773       0.38930267 </v>
   <v>      -0.06256351      -0.38407833       0.30043749 </v>
   <v>      -0.06256126      -0.21445974       0.38924909 </v>
   <v>       0.43740585      -0.04832726       0.34510172 </v>
   <v>       0.06285568      -0.29852773       0.34511384 </v>
   <v>      -0.31241740       0.45162428       0.34510157 </v>
   <v>       0.43744812       0.45205725       0.34518725 </v>
   <v>      -0.31267211      -0.04845169       0.34517778 </v>
   <v>       0.43735447       0.28612364       0.38931701 </v>
   <v>      -0.31249224       0.28556269       0.38930270 </v>
   <v>      -0.18755260      -0.46462579       0.38937566 </v>
   <v>       0.43732472       0.11590045       0.30051178 </v>
   <v>       0.31231567      -0.46372526       0.38930357 </v>
   <v>      -0.31278743       0.11599737       0.30043621 </v>
   <v>      -0.06243541       0.28093643       0.25629068 </v>
   <v>       0.18759168       0.28058500       0.25624693 </v>
   <v>      -0.18749592      -0.13364296       0.30050049 </v>
   <v>       0.31231701      -0.13432793       0.30049637 </v>
   <v>       0.06262548       0.03046825       0.25618137 </v>
   <v>       0.18730739       0.12004907       0.43435374 </v>
   <v>      -0.06245522       0.11979385       0.43434360 </v>
   <v>       0.06207993       0.37008582       0.43431000 </v>
   <v>       0.31255192      -0.29797014       0.34502224 </v>
   <v>      -0.43758811       0.20141677       0.34506867 </v>
   <v>      -0.18748756      -0.29846863       0.34509942 </v>
   <v>       0.06279886      -0.46922683       0.25623805 </v>
   <v>       0.06219626      -0.13000593       0.43419668 </v>
   <v>       0.31265235       0.03054365       0.25624389 </v>
   <v>      -0.18729173       0.03081196       0.25619461 </v>
   <v>       0.31252732       0.36984789       0.43425076 </v>
   <v>      -0.18756449       0.37007245       0.43431747 </v>
   <v>       0.43737393      -0.38446669       0.30041042 </v>
   <v>       0.43735341      -0.21397194       0.38930222 </v>
   <v>      -0.31257639      -0.38413661       0.30045372 </v>
   <v>      -0.31244443      -0.21441422       0.38928531 </v>
   <v>       0.31253457      -0.46972917       0.25623811 </v>
   <v>      -0.43783620       0.36599224       0.30045807 </v>
   <v>      -0.43744557       0.03627346       0.38937011 </v>
   <v>      -0.18733317      -0.46857667       0.25625016 </v>
   <v>       0.43752806       0.28045216       0.25630200 </v>
   <v>      -0.31230237       0.28085973       0.25624675 </v>
   <v>       0.31225925      -0.12977550       0.43419987 </v>
   <v>      -0.18756488      -0.13027511       0.43434808 </v>
   <v>       0.43752067       0.12002840       0.43433842 </v>
   <v>      -0.31267586       0.11984582       0.43431795 </v>
   <v>      -0.06219663      -0.21902014       0.25623319 </v>
   <v>       0.18763503      -0.21955228       0.25626870 </v>
   <v>      -0.06256647      -0.38009599       0.43429482 </v>
   <v>       0.18733333      -0.37987004       0.43455856 </v>
   <v>      -0.43773300      -0.46403866       0.38932744 </v>
   <v>      -0.43793112      -0.13416761       0.30043431 </v>
   <v>       0.06230361       0.19542303       0.21193964 </v>
   <v>       0.06261196       0.20516267       0.47855637 </v>
   <v>      -0.43769149      -0.29845488       0.34511219 </v>
   <v>       0.18730361       0.44527693       0.21201937 </v>
   <v>      -0.06270706       0.44541477       0.21197960 </v>
   <v>       0.31197383       0.19542815       0.21210798 </v>
   <v>      -0.43754922       0.03041105       0.25620833 </v>
   <v>       0.18728101      -0.04486480       0.47836803 </v>
   <v>      -0.06257488      -0.04482640       0.47835924 </v>
   <v>      -0.31246617      -0.21904110       0.25624197 </v>
   <v>       0.43747719      -0.21965885       0.25627914 </v>
   <v>      -0.18774041       0.19558709       0.21189884 </v>
   <v>      -0.43752547       0.37030276       0.43442618 </v>
   <v>       0.43769775      -0.38004393       0.43422360 </v>
   <v>       0.18731952      -0.05437930       0.21209322 </v>
   <v>       0.31253378       0.20504674       0.47837734 </v>
   <v>      -0.31272008      -0.37986952       0.43437458 </v>
   <v>      -0.18777057       0.20528394       0.47843495 </v>
   <v>      -0.06271778      -0.05449417       0.21199359 </v>
   <v>       0.18758208       0.45452471       0.47847220 </v>
   <v>      -0.06266303       0.45524582       0.47846580 </v>
   <v>      -0.43755005      -0.46942221       0.25623013 </v>
   <v>      -0.43720405      -0.13000914       0.43429869 </v>
   <v>       0.06244348      -0.30488812       0.21195141 </v>
   <v>       0.43724357       0.44529376       0.21202991 </v>
   <v>      -0.31286200       0.44536816       0.21200210 </v>
   <v>      -0.31242045      -0.04431226       0.47832903 </v>
   <v>       0.06203364      -0.29467276       0.47856991 </v>
   <v>       0.43748466      -0.04431180       0.47843641 </v>
   <v>       0.43728830      -0.05493397       0.21212521 </v>
   <v>      -0.31293155      -0.05434306       0.21203768 </v>
   <v>       0.43747873       0.45505002       0.47846674 </v>
   <v>      -0.31251072       0.45493388       0.47854148 </v>
   <v>       0.31209690      -0.30467399       0.21195662 </v>
   <v>      -0.18777822      -0.30480342       0.21201316 </v>
   <v>      -0.18735122      -0.29499675       0.47844033 </v>
   <v>       0.31276194      -0.29502669       0.47842682 </v>
   <v>      -0.43754345       0.19553748       0.21201654 </v>
   <v>      -0.43756622       0.20532085       0.47840259 </v>
   <v>      -0.06307070       0.12272212      -0.47853884 </v>
   <v>       0.18747053       0.12283024      -0.47847151 </v>
   <v>       0.06203881       0.37261849      -0.47841982 </v>
   <v>       0.06261370       0.36344721       0.16720809 </v>
   <v>       0.18788365       0.11320213       0.16721010 </v>
   <v>      -0.06240186       0.11269242       0.16715997 </v>
   <v>       0.06258133      -0.12709782      -0.47844538 </v>
   <v>       0.31246047       0.37299421      -0.47855963 </v>
   <v>      -0.18746802       0.37246262      -0.47847388 </v>
   <v>      -0.18727237       0.36323714       0.16722646 </v>
   <v>       0.31249111       0.36263805       0.16717592 </v>
   <v>       0.06269550      -0.13721217       0.16713038 </v>
   <v>       0.31193504      -0.12712038      -0.47858779 </v>
   <v>      -0.18740234      -0.12707947      -0.47858418 </v>
   <v>      -0.31256802       0.12299427      -0.47859032 </v>
   <v>       0.43804196       0.12282344      -0.47852482 </v>
   <v>      -0.43778063      -0.30477544       0.21190879 </v>
   <v>       0.18777115      -0.37682933      -0.47864242 </v>
   <v>      -0.06288725      -0.37722135      -0.47851133 </v>
   <v>      -0.43766737      -0.29518307       0.47844480 </v>
   <v>      -0.06230816      -0.38713946       0.16722615 </v>
   <v>       0.18721977      -0.38689255       0.16722663 </v>
   <v>      -0.31247631       0.11327316       0.16718777 </v>
   <v>       0.31313066      -0.13660496       0.16712906 </v>
   <v>      -0.18732344      -0.13728414       0.16712964 </v>
   <v>       0.43752502       0.11300380       0.16650134 </v>
   <v>      -0.43730702       0.37264497      -0.47848501 </v>
   <v>      -0.31276376      -0.37702928      -0.47854172 </v>
   <v>       0.43765213      -0.37712264      -0.47837705 </v>
   <v>       0.43771170      -0.38714135       0.16730223 </v>
   <v>      -0.31203163      -0.38716364       0.16716223 </v>
   <v>      -0.43730492       0.36259930       0.16718410 </v>
   <v>      -0.43738897      -0.12711550      -0.47857919 </v>
   <v>      -0.43792405      -0.13673304       0.16718585 </v>
   <v>       0.06234908       0.20786937      -0.43449219 </v>
   <v>       0.18741702       0.27817293       0.12506781 </v>
   <v>      -0.06259572       0.27812739       0.12506555 </v>
   <v>       0.06155848       0.02802191       0.12504042 </v>
   <v>       0.18688749      -0.04273378      -0.43447490 </v>
   <v>      -0.06301477      -0.04243483      -0.43448648 </v>
   <v>       0.31276473       0.20792728      -0.43439258 </v>
   <v>      -0.18807480       0.20787248      -0.43436092 </v>
   <v>       0.18699705       0.45745040      -0.43441208 </v>
   <v>      -0.06245023       0.45759097      -0.43434045 </v>
   <v>       0.06239619      -0.47217747       0.12497329 </v>
   <v>      -0.18707510       0.02803662       0.12502976 </v>
   <v>       0.31259933       0.02812921       0.12483405 </v>
   <v>       0.31202869      -0.47178067       0.12505494 </v>
   <v>      -0.18765628      -0.47206272       0.12495610 </v>
   <v>      -0.31271824       0.27807196       0.12503301 </v>
   <v>       0.43725472       0.27752326       0.12492924 </v>
   <v>       0.18734550      -0.22258554       0.12511654 </v>
   <v>      -0.06274936      -0.22214967       0.12504062 </v>
   <v>       0.06211401      -0.29253369      -0.43442640 </v>
   <v>       0.43736752      -0.04247259      -0.43455690 </v>
   <v>      -0.31216056      -0.04257916      -0.43454239 </v>
   <v>       0.43710235       0.45834830      -0.43440019 </v>
   <v>      -0.31244460       0.45779123      -0.43440637 </v>
   <v>      -0.18805890      -0.29253957      -0.43453001 </v>
   <v>       0.31268371      -0.29216149      -0.43440715 </v>
   <v>      -0.43758399       0.20783604      -0.43439707 </v>
   <v>      -0.43801279       0.02824593       0.12484171 </v>
   <v>       0.43732627      -0.22175340       0.12510567 </v>
   <v>      -0.31264465      -0.22252908       0.12510657 </v>
   <v>      -0.43739823      -0.47171311       0.12506702 </v>
   <v>      -0.43756674      -0.29188565      -0.43444104 </v>
   <v>       0.06239796       0.04190084      -0.38940650 </v>
   <v>      -0.06259907       0.29230795      -0.38933102 </v>
   <v>       0.18777799       0.29151662      -0.38931585 </v>
   <v>       0.31237633       0.04248393      -0.38942023 </v>
   <v>      -0.18718244       0.04271843      -0.38940190 </v>
   <v>       0.06249955      -0.45789582      -0.38946258 </v>
   <v>      -0.06214365      -0.20785908      -0.38952899 </v>
   <v>       0.18758332      -0.20805183      -0.38948398 </v>
   <v>      -0.31235605       0.29245642      -0.38949026 </v>
   <v>       0.43774584       0.29198230      -0.38943563 </v>
   <v>      -0.18744666      -0.45741274      -0.38942267 </v>
   <v>       0.31274313      -0.45796045      -0.38932721 </v>
   <v>      -0.31247117      -0.20720797      -0.38942949 </v>
   <v>       0.43790003      -0.20740088      -0.38940579 </v>
   <v>      -0.43717916       0.04248309      -0.38944971 </v>
   <v>      -0.43743624      -0.45729719      -0.38934439 </v>
   <v>      -0.06295249       0.12611461      -0.34515295 </v>
   <v>       0.18668367       0.12589525      -0.34512500 </v>
   <v>       0.06210986       0.37619275      -0.34519395 </v>
   <v>       0.06216520      -0.12441720      -0.34524872 </v>
   <v>       0.31207250       0.37582140      -0.34511835 </v>
   <v>      -0.18799949       0.37696029      -0.34508901 </v>
   <v>       0.31209028      -0.12387363      -0.34524237 </v>
   <v>      -0.18766438      -0.12388834      -0.34526770 </v>
   <v>       0.43699352       0.12574773      -0.34525108 </v>
   <v>      -0.31287748       0.12636199      -0.34517834 </v>
   <v>       0.18667475      -0.37406551      -0.34527740 </v>
   <v>      -0.06307371      -0.37362937      -0.34527634 </v>
   <v>      -0.43778278       0.37646645      -0.34511370 </v>
   <v>       0.43680477      -0.37385076      -0.34523169 </v>
   <v>      -0.31266253      -0.37311930      -0.34520278 </v>
   <v>      -0.43823018      -0.12371622      -0.34539759 </v>
   <v>       0.06292498       0.21234547      -0.30055134 </v>
   <v>      -0.06187752      -0.03775193      -0.30061714 </v>
   <v>       0.18814190      -0.03819697      -0.30057976 </v>
   <v>       0.31290568       0.21218558      -0.30047245 </v>
   <v>      -0.18701721       0.21263674      -0.30044900 </v>
   <v>      -0.06189565       0.46176934      -0.30059872 </v>
   <v>       0.18794746       0.46201627      -0.30060049 </v>
   <v>       0.06310886      -0.28829373      -0.30055242 </v>
   <v>      -0.31209273      -0.03788556      -0.30068357 </v>
   <v>       0.43779265      -0.03866828      -0.30053390 </v>
   <v>       0.43780420       0.46151900      -0.30073360 </v>
   <v>      -0.31232934       0.46211530      -0.30063988 </v>
   <v>      -0.18723506      -0.28776484      -0.30054554 </v>
   <v>       0.31267491      -0.28855625      -0.30058503 </v>
   <v>      -0.43745531       0.21194344      -0.30049165 </v>
   <v>      -0.43759117      -0.28776509      -0.30059337 </v>
   <v>       0.06216237       0.04787820      -0.25623392 </v>
   <v>       0.18690155       0.29761228      -0.25614953 </v>
   <v>      -0.06235170       0.29714329      -0.25610448 </v>
   <v>       0.31244167       0.04769476      -0.25625025 </v>
   <v>      -0.18750147       0.04693806      -0.25619784 </v>
   <v>       0.06243703      -0.45267433      -0.25619750 </v>
   <v>      -0.06287170      -0.20304414      -0.25630898 </v>
   <v>       0.18687420      -0.20285599      -0.25622513 </v>
   <v>       0.43669720       0.29671466      -0.25622113 </v>
   <v>      -0.31307544       0.29666998      -0.25623189 </v>
   <v>      -0.18812768      -0.45343299      -0.25635872 </v>
   <v>       0.31250764      -0.45320870      -0.25632395 </v>
   <v>       0.43690245      -0.20312095      -0.25625766 </v>
   <v>      -0.43771489       0.04646026      -0.25640276 </v>
   <v>      -0.31328615      -0.20394013      -0.25588280 </v>
   <v>      -0.43773155      -0.45313901      -0.25627715 </v>
   <v>       0.18855234       0.13228442      -0.21204409 </v>
   <v>      -0.06187336       0.13211986      -0.21189972 </v>
   <v>       0.06311562       0.38307689      -0.21197647 </v>
   <v>       0.06305107      -0.11775531      -0.21194322 </v>
   <v>      -0.18676588       0.38126917      -0.21205833 </v>
   <v>       0.31277843       0.38202525      -0.21199690 </v>
   <v>       0.31278763      -0.11668328      -0.21199938 </v>
   <v>      -0.18701985      -0.11746227      -0.21179738 </v>
   <v>      -0.31240081       0.13200700      -0.21195274 </v>
   <v>       0.43845912       0.13305773      -0.21189839 </v>
   <v>      -0.06342263      -0.36767582      -0.21221766 </v>
   <v>       0.19001513      -0.36700947      -0.21221997 </v>
   <v>      -0.43707531       0.38191048      -0.21183014 </v>
   <v>      -0.31157922      -0.36760907      -0.21198579 </v>
   <v>       0.43790603      -0.36701836      -0.21204490 </v>
   <v>      -0.43696718      -0.11703986      -0.21188355 </v>
   <v>       0.06215555       0.04990953      -0.12487069 </v>
   <v>      -0.06167797       0.29899536      -0.12460944 </v>
   <v>       0.18788610       0.29980531      -0.12475443 </v>
   <v>       0.31302728       0.04949889      -0.12472756 </v>
   <v>      -0.18618911       0.04971592      -0.12483696 </v>
   <v>       0.06288607      -0.45058198      -0.12482979 </v>
   <v>      -0.06268011      -0.20065119      -0.12482591 </v>
   <v>       0.18862746      -0.20029797      -0.12487430 </v>
   <v>      -0.31252777       0.30051312      -0.12497049 </v>
   <v>       0.43843216       0.29967240      -0.12499056 </v>
   <v>      -0.18694794      -0.44972322      -0.12485487 </v>
   <v>       0.31279059      -0.44984811      -0.12495659 </v>
   <v>       0.43849872      -0.19913305      -0.12448035 </v>
   <v>      -0.31245146      -0.19932928      -0.12469341 </v>
   <v>      -0.43722149       0.04978369      -0.12458974 </v>
   <v>      -0.43676628      -0.45064115      -0.12493670 </v>
   <v>       0.06216377       0.21547947      -0.16635952 </v>
   <v>       0.18784813      -0.03566508      -0.16703334 </v>
   <v>       0.31318636       0.21436810      -0.16716153 </v>
   <v>      -0.06263629      -0.03450620      -0.16684059 </v>
   <v>      -0.18732379       0.21474966      -0.16702522 </v>
   <v>       0.18630309       0.46463487      -0.16696288 </v>
   <v>      -0.06216020       0.46481794      -0.16689144 </v>
   <v>       0.06219460      -0.28602273      -0.16698506 </v>
   <v>      -0.31300555      -0.03585052      -0.16689455 </v>
   <v>       0.43790854       0.46564050      -0.16712722 </v>
   <v>      -0.31241328       0.46504751      -0.16689816 </v>
   <v>       0.43736540      -0.03559222      -0.16613902 </v>
   <v>      -0.18764348      -0.28540547      -0.16694932 </v>
   <v>       0.31281302      -0.28455120      -0.16691017 </v>
   <v>      -0.43804562       0.21494107      -0.16706114 </v>
   <v>      -0.43750586      -0.28436467      -0.16701479 </v>
  </varray>
 </structure>
 <varray name="primitive_index" >
  <v type="int" >        1 </v>
  <v type="int" >      238 </v>
  <v type="int" >       93 </v>
  <v type="int" >      146 </v>
  <v type="int" >      279 </v>
  <v type="int" >      183 </v>
  <v type="int" >       34 </v>
  <v type="int" >      190 </v>
  <v type="int" >       20 </v>
  <v type="int" >       94 </v>
  <v type="int" >      186 </v>
  <v type="int" >       83 </v>
  <v type="int" >       80 </v>
  <v type="int" >      136 </v>
  <v type="int" >       79 </v>
  <v type="int" >      141 </v>
  <v type="int" >      150 </v>
  <v type="int" >      123 </v>
  <v type="int" >      243 </v>
  <v type="int" >      211 </v>
  <v type="int" >      213 </v>
  <v type="int" >      256 </v>
  <v type="int" >      106 </v>
  <v type="int" >       82 </v>
  <v type="int" >      224 </v>
  <v type="int" >      248 </v>
  <v type="int" >        5 </v>
  <v type="int" >      128 </v>
  <v type="int" >       17 </v>
  <v type="int" >      239 </v>
  <v type="int" >      203 </v>
  <v type="int" >      196 </v>
  <v type="int" >      227 </v>
  <v type="int" >      270 </v>
  <v type="int" >       13 </v>
  <v type="int" >       47 </v>
  <v type="int" >      286 </v>
  <v type="int" >      272 </v>
  <v type="int" >      152 </v>
  <v type="int" >       65 </v>
  <v type="int" >      104 </v>
  <v type="int" >        8 </v>
  <v type="int" >       63 </v>
  <v type="int" >       86 </v>
  <v type="int" >       67 </v>
  <v type="int" >       37 </v>
  <v type="int" >       45 </v>
  <v type="int" >      223 </v>
  <v type="int" >       26 </v>
  <v type="int" >      284 </v>
  <v type="int" >      184 </v>
  <v type="int" >      131 </v>
  <v type="int" >       69 </v>
  <v type="int" >      139 </v>
  <v type="int" >      105 </v>
  <v type="int" >       85 </v>
  <v type="int" >      107 </v>
  <v type="int" >      194 </v>
  <v type="int" >      167 </v>
  <v type="int" >       40 </v>
  <v type="int" >      145 </v>
  <v type="int" >      127 </v>
  <v type="int" >      163 </v>
  <v type="int" >      153 </v>
  <v type="int" >       73 </v>
  <v type="int" >       58 </v>
  <v type="int" >      117 </v>
  <v type="int" >       66 </v>
  <v type="int" >       70 </v>
  <v type="int" >      109 </v>
  <v type="int" >       51 </v>
  <v type="int" >      111 </v>
  <v type="int" >      169 </v>
  <v type="int" >      250 </v>
  <v type="int" >       77 </v>
  <v type="int" >       39 </v>
  <v type="int" >      271 </v>
  <v type="int" >      121 </v>
  <v type="int" >      162 </v>
  <v type="int" >       54 </v>
  <v type="int" >      268 </v>
  <v type="int" >      245 </v>
  <v type="int" >       61 </v>
  <v type="int" >      201 </v>
  <v type="int" >      202 </v>
  <v type="int" >      140 </v>
  <v type="int" >      120 </v>
  <v type="int" >       59 </v>
  <v type="int" >      178 </v>
  <v type="int" >       48 </v>
  <v type="int" >        4 </v>
  <v type="int" >      244 </v>
  <v type="int" >       62 </v>
  <v type="int" >      114 </v>
  <v type="int" >      187 </v>
  <v type="int" >      158 </v>
  <v type="int" >      255 </v>
  <v type="int" >      262 </v>
  <v type="int" >      165 </v>
  <v type="int" >      119 </v>
  <v type="int" >      129 </v>
  <v type="int" >      170 </v>
  <v type="int" >      209 </v>
  <v type="int" >        3 </v>
  <v type="int" >      176 </v>
  <v type="int" >      103 </v>
  <v type="int" >      214 </v>
  <v type="int" >      149 </v>
  <v type="int" >      161 </v>
  <v type="int" >      237 </v>
  <v type="int" >       31 </v>
  <v type="int" >       12 </v>
  <v type="int" >      133 </v>
  <v type="int" >       88 </v>
  <v type="int" >      130 </v>
  <v type="int" >       87 </v>
  <v type="int" >      147 </v>
  <v type="int" >       19 </v>
  <v type="int" >      258 </v>
  <v type="int" >      269 </v>
  <v type="int" >      265 </v>
  <v type="int" >      261 </v>
  <v type="int" >       84 </v>
  <v type="int" >      159 </v>
  <v type="int" >      206 </v>
  <v type="int" >      215 </v>
  <v type="int" >      157 </v>
  <v type="int" >      275 </v>
  <v type="int" >       92 </v>
  <v type="int" >      219 </v>
  <v type="int" >      154 </v>
  <v type="int" >      208 </v>
  <v type="int" >      166 </v>
  <v type="int" >      246 </v>
  <v type="int" >      137 </v>
  <v type="int" >      280 </v>
  <v type="int" >      143 </v>
  <v type="int" >      142 </v>
  <v type="int" >      257 </v>
  <v type="int" >        6 </v>
  <v type="int" >      126 </v>
  <v type="int" >       46 </v>
  <v type="int" >      144 </v>
  <v type="int" >      172 </v>
  <v type="int" >      285 </v>
  <v type="int" >      182 </v>
  <v type="int" >      235 </v>
  <v type="int" >       28 </v>
  <v type="int" >      193 </v>
  <v type="int" >       53 </v>
  <v type="int" >      220 </v>
  <v type="int" >      205 </v>
  <v type="int" >       33 </v>
  <v type="int" >      249 </v>
  <v type="int" >      207 </v>
  <v type="int" >      240 </v>
  <v type="int" >       38 </v>
  <v type="int" >      116 </v>
  <v type="int" >       50 </v>
  <v type="int" >       18 </v>
  <v type="int" >       21 </v>
  <v type="int" >      241 </v>
  <v type="int" >      252 </v>
  <v type="int" >       99 </v>
  <v type="int" >      281 </v>
  <v type="int" >      225 </v>
  <v type="int" >      253 </v>
  <v type="int" >      198 </v>
  <v type="int" >       96 </v>
  <v type="int" >       57 </v>
  <v type="int" >      115 </v>
  <v type="int" >        9 </v>
  <v type="int" >       23 </v>
  <v type="int" >      231 </v>
  <v type="int" >      232 </v>
  <v type="int" >      180 </v>
  <v type="int" >      124 </v>
  <v type="int" >       14 </v>
  <v type="int" >      171 </v>
  <v type="int" >      102 </v>
  <v type="int" >       56 </v>
  <v type="int" >      230 </v>
  <v type="int" >       90 </v>
  <v type="int" >      177 </v>
  <v type="int" >       36 </v>
  <v type="int" >       15 </v>
  <v type="int" >       25 </v>
  <v type="int" >      113 </v>
  <v type="int" >       27 </v>
  <v type="int" >       29 </v>
  <v type="int" >      125 </v>
  <v type="int" >       30 </v>
  <v type="int" >      242 </v>
  <v type="int" >      138 </v>
  <v type="int" >       72 </v>
  <v type="int" >       35 </v>
  <v type="int" >      273 </v>
  <v type="int" >      226 </v>
  <v type="int" >      192 </v>
  <v type="int" >      259 </v>
  <v type="int" >      276 </v>
  <v type="int" >       68 </v>
  <v type="int" >       75 </v>
  <v type="int" >      189 </v>
  <v type="int" >      135 </v>
  <v type="int" >      229 </v>
  <v type="int" >      236 </v>
  <v type="int" >       41 </v>
  <v type="int" >      200 </v>
  <v type="int" >      174 </v>
  <v type="int" >       16 </v>
  <v type="int" >      251 </v>
  <v type="int" >      283 </v>
  <v type="int" >       49 </v>
  <v type="int" >      181 </v>
  <v type="int" >       76 </v>
  <v type="int" >      288 </v>
  <v type="int" >      185 </v>
  <v type="int" >       91 </v>
  <v type="int" >       97 </v>
  <v type="int" >       98 </v>
  <v type="int" >      188 </v>
  <v type="int" >      179 </v>
  <v type="int" >      199 </v>
  <v type="int" >      175 </v>
  <v type="int" >      216 </v>
  <v type="int" >       32 </v>
  <v type="int" >       78 </v>
  <v type="int" >      210 </v>
  <v type="int" >       81 </v>
  <v type="int" >      112 </v>
  <v type="int" >      228 </v>
  <v type="int" >       24 </v>
  <v type="int" >      264 </v>
  <v type="int" >       74 </v>
  <v type="int" >        7 </v>
  <v type="int" >      204 </v>
  <v type="int" >       89 </v>
  <v type="int" >      282 </v>
  <v type="int" >       95 </v>
  <v type="int" >      168 </v>
  <v type="int" >      222 </v>
  <v type="int" >       64 </v>
  <v type="int" >      100 </v>
  <v type="int" >      221 </v>
  <v type="int" >      108 </v>
  <v type="int" >      197 </v>
  <v type="int" >      254 </v>
  <v type="int" >       43 </v>
  <v type="int" >       44 </v>
  <v type="int" >      274 </v>
  <v type="int" >      277 </v>
  <v type="int" >       42 </v>
  <v type="int" >      217 </v>
  <v type="int" >      263 </v>
  <v type="int" >      173 </v>
  <v type="int" >      233 </v>
  <v type="int" >        2 </v>
  <v type="int" >       71 </v>
  <v type="int" >       52 </v>
  <v type="int" >       22 </v>
  <v type="int" >       55 </v>
  <v type="int" >      122 </v>
  <v type="int" >      164 </v>
  <v type="int" >      134 </v>
  <v type="int" >      260 </v>
  <v type="int" >      148 </v>
  <v type="int" >      101 </v>
  <v type="int" >      267 </v>
  <v type="int" >      191 </v>
  <v type="int" >       60 </v>
  <v type="int" >       11 </v>
  <v type="int" >      278 </v>
  <v type="int" >      110 </v>
  <v type="int" >      212 </v>
  <v type="int" >      156 </v>
  <v type="int" >      234 </v>
  <v type="int" >      151 </v>
  <v type="int" >      132 </v>
  <v type="int" >      118 </v>
  <v type="int" >       10 </v>
  <v type="int" >      247 </v>
  <v type="int" >      266 </v>
  <v type="int" >      287 </v>
  <v type="int" >      160 </v>
  <v type="int" >      195 </v>
  <v type="int" >      218 </v>
  <v type="int" >      155 </v>
 </varray>
 <kpoints>
  <generation param="Gamma">
   <v type="int" name="divisions">       4        4        1 </v>
   <v name="usershift">      0.00000000       0.00000000       0.00000000 </v>
   <v name="genvec1">      0.25000000       0.00000000       0.00000000 </v>
   <v name="genvec2">      0.00000000       0.25000000       0.00000000 </v>
   <v name="genvec3">      0.00000000       0.00000000       1.00000000 </v>
   <v name="shift">      0.00000000       0.00000000       0.00000000 </v>
  </generation>
  <varray name="kpointlist" >
   <v>       0.00000000       0.00000000       0.00000000 </v>
   <v>       0.25000000       0.00000000       0.00000000 </v>
   <v>       0.50000000       0.00000000       0.00000000 </v>
   <v>       0.00000000       0.25000000       0.00000000 </v>
   <v>       0.25000000       0.25000000       0.00000000 </v>
   <v>       0.50000000       0.25000000       0.00000000 </v>
   <v>      -0.25000000       0.25000000       0.00000000 </v>
   <v>       0.00000000       0.50000000       0.00000000 </v>
   <v>       0.25000000       0.50000000       0.00000000 </v>
   <v>       0.50000000       0.50000000       0.00000000 </v>
  </varray>
  <varray name="weights" >
   <v>       0.06250000 </v>
   <v>       0.12500000 </v>
   <v>       0.06250000 </v>
   <v>       0.12500000 </v>
   <v>       0.12500000 </v>
   <v>       0.12500000 </v>
   <v>       0.12500000 </v>
   <v>       0.06250000 </v>
   <v>       0.12500000 </v>
   <v>       0.06250000 </v>
  </varray>
 </kpoints>
 <parameters>
  <separator name="general" >
   <i type="string" name="SYSTEM">unknown system</i>
   <i type="logical" name="LCOMPAT"> F  </i>
  </separator>
  <separator name="electronic" >
   <i type="string" name="PREC">accura</i>
   <i name="ENMAX">    500.00000000</i>
   <i name="ENAUG">    838.43500000</i>
   <i name="EDIFF">      0.00001000</i>
   <i type="int" name="IALGO">    68</i>
   <i type="int" name="IWAVPR">    11</i>
   <i type="int" name="NBANDS">  1380</i>
   <i name="NELECT">   2289.00000000</i>
   <i type="int" name="TURBO">     0</i>
   <i type="int" name="IRESTART">     0</i>
   <i type="int" name="NREBOOT">     0</i>
   <i type="int" name="NMIN">     0</i>
   <i name="EREF">      0.00000000</i>
   <separator name="electronic smearing" >
    <i type="int" name="ISMEAR">     0</i>
    <i name="SIGMA">      0.15000000</i>
    <i name="KSPACING">      0.50000000</i>
    <i type="logical" name="KGAMMA"> T  </i>
   </separator>
   <separator name="electronic projectors" >
    <i type="logical" name="LREAL"> T  </i>
    <v name="ROPT">     -0.00025000     -0.00025000</v>
    <i type="int" name="LMAXPAW">  -100</i>
    <i type="int" name="LMAXMIX">     2</i>
    <i type="logical" name="NLSPLINE"> F  </i>
   </separator>
   <separator name="electronic startup" >
    <i type="int" name="ISTART">     0</i>
    <i type="int" name="ICHARG">     2</i>
    <i type="int" name="INIWAV">     1</i>
   </separator>
   <separator name="electronic spin" >
    <i type="int" name="ISPIN">     1</i>
    <i type="logical" name="LNONCOLLINEAR"> F  </i>
    <v name="MAGMOM">      1.00000000      1.00000000      1.00000000      1.00000000      1.00000000      1.00000000      1.00000000      1.00000000      1.00000000      1.00000000      1.00000000      1.00000000      1.00000000      1.00000000      1.00000000      1.00000000      1.00000000      1.00000000      1.00000000      1.00000000
      1.00000000      1.00000000      1.00000000      1.00000000      1.00000000      1.00000000      1.00000000      1.00000000      1.00000000      1.00000000      1.00000000      1.00000000      1.00000000      1.00000000      1.00000000      1.00000000      1.00000000      1.00000000      1.00000000      1.00000000
      1.00000000      1.00000000      1.00000000      1.00000000      1.00000000      1.00000000      1.00000000      1.00000000      1.00000000      1.00000000      1.00000000      1.00000000      1.00000000      1.00000000      1.00000000      1.00000000      1.00000000      1.00000000      1.00000000      1.00000000
      1.00000000      1.00000000      1.00000000      1.00000000      1.00000000      1.00000000      1.00000000      1.00000000      1.00000000      1.00000000      1.00000000      1.00000000      1.00000000      1.00000000      1.00000000      1.00000000      1.00000000      1.00000000      1.00000000      1.00000000
      1.00000000      1.00000000      1.00000000      1.00000000      1.00000000      1.00000000      1.00000000      1.00000000      1.00000000      1.00000000      1.00000000      1.00000000      1.00000000      1.00000000      1.00000000      1.00000000      1.00000000      1.00000000      1.00000000      1.00000000
      1.00000000      1.00000000      1.00000000      1.00000000      1.00000000      1.00000000      1.00000000      1.00000000      1.00000000      1.00000000      1.00000000      1.00000000      1.00000000      1.00000000      1.00000000      1.00000000      1.00000000      1.00000000      1.00000000      1.00000000
      1.00000000      1.00000000      1.00000000      1.00000000      1.00000000      1.00000000      1.00000000      1.00000000      1.00000000      1.00000000      1.00000000      1.00000000      1.00000000      1.00000000      1.00000000      1.00000000      1.00000000      1.00000000      1.00000000      1.00000000
      1.00000000      1.00000000      1.00000000      1.00000000      1.00000000      1.00000000      1.00000000      1.00000000      1.00000000      1.00000000      1.00000000      1.00000000      1.00000000      1.00000000      1.00000000      1.00000000      1.00000000      1.00000000      1.00000000      1.00000000
      1.00000000      1.00000000      1.00000000      1.00000000      1.00000000      1.00000000      1.00000000      1.00000000      1.00000000      1.00000000      1.00000000      1.00000000      1.00000000      1.00000000      1.00000000      1.00000000      1.00000000      1.00000000      1.00000000      1.00000000
      1.00000000      1.00000000      1.00000000      1.00000000      1.00000000      1.00000000      1.00000000      1.00000000      1.00000000      1.00000000      1.00000000      1.00000000      1.00000000      1.00000000      1.00000000      1.00000000      1.00000000      1.00000000      1.00000000      1.00000000
      1.00000000      1.00000000      1.00000000      1.00000000      1.00000000      1.00000000      1.00000000      1.00000000      1.00000000      1.00000000      1.00000000      1.00000000      1.00000000      1.00000000      1.00000000      1.00000000      1.00000000      1.00000000      1.00000000      1.00000000
      1.00000000      1.00000000      1.00000000      1.00000000      1.00000000      1.00000000      1.00000000      1.00000000      1.00000000      1.00000000      1.00000000      1.00000000      1.00000000      1.00000000      1.00000000      1.00000000      1.00000000      1.00000000      1.00000000      1.00000000
      1.00000000      1.00000000      1.00000000      1.00000000      1.00000000      1.00000000      1.00000000      1.00000000      1.00000000      1.00000000      1.00000000      1.00000000      1.00000000      1.00000000      1.00000000      1.00000000      1.00000000      1.00000000      1.00000000      1.00000000
      1.00000000      1.00000000      1.00000000      1.00000000      1.00000000      1.00000000      1.00000000      1.00000000      1.00000000      1.00000000      1.00000000      1.00000000      1.00000000      1.00000000      1.00000000      1.00000000      1.00000000      1.00000000      1.00000000      1.00000000
      1.00000000      1.00000000      1.00000000      1.00000000      1.00000000      1.00000000      1.00000000      1.00000000</v>
    <i name="NUPDOWN">     -1.00000000</i>
    <i type="logical" name="LSORBIT"> F  </i>
    <v name="SAXIS">      0.00000000      0.00000000      1.00000000</v>
    <i type="logical" name="LSPIRAL"> F  </i>
    <v name="QSPIRAL">      0.00000000      0.00000000      0.00000000</v>
    <i type="logical" name="LZEROZ"> F  </i>
   </separator>
   <separator name="electronic exchange-correlation" >
    <i type="logical" name="LASPH"> F  </i>
    <i type="logical" name="LMETAGGA"> F  </i>
   </separator>
   <separator name="electronic convergence" >
    <i type="int" name="NELM">   100</i>
    <i type="int" name="NELMDL">     0</i>
    <i type="int" name="NELMIN">     4</i>
    <i name="ENINI">    500.00000000</i>
    <separator name="electronic convergence detail" >
     <i type="logical" name="LDIAG"> T  </i>
     <i type="logical" name="LSUBROT"> F  </i>
     <i name="WEIMIN">      0.00100000</i>
     <i name="EBREAK">      0.00000000</i>
     <i name="DEPER">      0.30000000</i>
     <i type="int" name="NRMM">     4</i>
     <i name="TIME">      0.40000000</i>
    </separator>
   </separator>
   <separator name="electronic mixer" >
    <i name="AMIX">      0.40000000</i>
    <i name="BMIX">      1.00000000</i>
    <i name="AMIN">      0.10000000</i>
    <i name="AMIX_MAG">      1.60000000</i>
    <i name="BMIX_MAG">      1.00000000</i>
    <separator name="electronic mixer details" >
     <i type="int" name="IMIX">     4</i>
     <i type="logical" name="MIXFIRST"> F  </i>
     <i type="int" name="MAXMIX">   -45</i>
     <i name="WC">    100.00000000</i>
     <i type="int" name="INIMIX">     1</i>
     <i type="int" name="MIXPRE">     1</i>
     <i type="int" name="MREMOVE">     5</i>
    </separator>
   </separator>
   <separator name="electronic dipolcorrection" >
    <i type="logical" name="LDIPOL"> F  </i>
    <i type="logical" name="LMONO"> F  </i>
    <i type="int" name="IDIPOL">     0</i>
    <i name="EPSILON">      1.00000000</i>
    <v name="DIPOL">   -100.00000000   -100.00000000   -100.00000000</v>
    <i name="EFIELD">      0.00000000</i>
   </separator>
  </separator>
  <separator name="grids" >
   <i type="int" name="NGX">    72</i>
   <i type="int" name="NGY">    64</i>
   <i type="int" name="NGZ">   336</i>
   <i type="int" name="NGXF">   144</i>
   <i type="int" name="NGYF">   128</i>
   <i type="int" name="NGZF">   672</i>
   <i type="logical" name="ADDGRID"> F  </i>
  </separator>
  <separator name="ionic" >
   <i type="int" name="NSW">   500</i>
   <i type="int" name="IBRION">     2</i>
   <i type="int" name="MDALGO">     0</i>
   <i type="int" name="ISIF">     2</i>
   <i name="PSTRESS">      0.00000000</i>
   <i name="EDIFFG">      0.00010000</i>
   <i type="int" name="NFREE">     1</i>
   <i name="POTIM">      0.25000000</i>
   <i name="SMASS">     -3.00000000</i>
   <i name="SCALEE">      1.00000000</i>
  </separator>
  <separator name="ionic md" >
   <i name="TEBEG">      0.00010000</i>
   <i name="TEEND">      0.00010000</i>
   <i type="int" name="NBLOCK">     1</i>
   <i type="int" name="KBLOCK">   500</i>
   <i type="int" name="NPACO">   256</i>
   <i name="APACO">     16.00000000</i>
  </separator>
  <separator name="symmetry" >
   <i type="int" name="ISYM">     2</i>
   <i name="SYMPREC">      0.00001000</i>
  </separator>
  <separator name="dos" >
   <i type="int" name="LORBIT">     0</i>
   <v name="RWIGS">     -1.00000000     -1.00000000</v>
   <i type="int" name="NEDOS">   301</i>
   <i name="EMIN">     10.00000000</i>
   <i name="EMAX">    -10.00000000</i>
   <i name="EFERMI">      0.00000000</i>
  </separator>
  <separator name="writing" >
   <i type="int" name="NWRITE">     2</i>
   <i type="logical" name="LWAVE"> F  </i>
   <i type="logical" name="LDOWNSAMPLE"> F  </i>
   <i type="logical" name="LCHARG"> F  </i>
   <i type="logical" name="LPARD"> F  </i>
   <i type="logical" name="LVTOT"> F  </i>
   <i type="logical" name="LVHAR"> F  </i>
   <i type="logical" name="LELF"> F  </i>
   <i type="logical" name="LOPTICS"> F  </i>
   <v name="STM">      0.00000000      0.00000000      0.00000000      0.00000000      0.00000000      0.00000000      0.00000000</v>
  </separator>
  <separator name="performance" >
   <i type="int" name="NPAR">    10</i>
   <i type="int" name="NSIM">     4</i>
   <i type="int" name="NBLK">    -1</i>
   <i type="logical" name="LPLANE"> T  </i>
   <i type="logical" name="LSCALAPACK"> F  </i>
   <i type="logical" name="LSCAAWARE"> F  </i>
   <i type="logical" name="LSCALU"> F  </i>
   <i type="logical" name="LASYNC"> F  </i>
   <i type="logical" name="LORBITALREAL"> F  </i>
  </separator>
  <separator name="miscellaneous" >
   <i type="int" name="IDIOT">     3</i>
   <i type="int" name="ISPECIAL">     0</i>
   <i type="logical" name="LMUSIC"> F  </i>
   <v name="POMASS">     55.84700000     54.93800000</v>
   <v name="DARWINR">      0.00000000      0.00000000</v>
   <v name="DARWINV">      1.00000000      1.00000000</v>
   <i type="logical" name="LCORR"> T  </i>
  </separator>
  <i type="logical" name="GGA_COMPAT"> T  </i>
  <i type="logical" name="LBERRY"> F  </i>
  <i type="int" name="ICORELEVEL">     0</i>
  <i type="logical" name="LDAU"> F  </i>
  <i type="int" name="I_CONSTRAINED_M">     0</i>
  <separator name="electronic exchange-correlation" >
   <i type="string" name="GGA">--</i>
   <i type="int" name="VOSKOWN">     0</i>
   <i type="logical" name="LHFCALC"> F  </i>
   <i type="string" name="PRECFOCK"></i>
   <i type="logical" name="LSYMGRAD"> F  </i>
   <i type="logical" name="LHFONE"> F  </i>
   <i type="logical" name="LRHFCALC"> F  </i>
   <i type="logical" name="LTHOMAS"> F  </i>
   <i type="logical" name="LMODELHF"> F  </i>
   <i name="ENCUT4O">     -1.00000000</i>
   <i type="int" name="EXXOEP">     0</i>
   <i type="int" name="FOURORBIT">     0</i>
   <i name="AEXX">      0.00000000</i>
   <i name="HFALPHA">      0.00000000</i>
   <i name="MCALPHA">      0.00000000</i>
   <i name="ALDAX">      1.00000000</i>
   <i name="AGGAX">      1.00000000</i>
   <i name="ALDAC">      1.00000000</i>
   <i name="AGGAC">      1.00000000</i>
   <i type="int" name="NKREDX">     1</i>
   <i type="int" name="NKREDY">     1</i>
   <i type="int" name="NKREDZ">     1</i>
   <i type="logical" name="SHIFTRED"> F  </i>
   <i type="logical" name="ODDONLY"> F  </i>
   <i type="logical" name="EVENONLY"> F  </i>
   <i type="int" name="LMAXFOCK">     0</i>
   <i type="int" name="NMAXFOCKAE">     0</i>
   <i type="logical" name="LFOCKAEDFT"> F  </i>
   <i name="HFSCREEN">      0.00000000</i>
   <i name="HFSCREENC">      0.00000000</i>
   <i type="int" name="NBANDSGWLOW">     0</i>
  </separator>
  <separator name="vdW DFT" >
   <i type="logical" name="LUSE_VDW"> F  </i>
   <i name="Zab_VDW">     -0.84910000</i>
   <i name="PARAM1">      0.12340000</i>
   <i name="PARAM2">      1.00000000</i>
   <i name="PARAM3">      0.00000000</i>
  </separator>
  <separator name="model GW" >
   <i type="int" name="MODEL_GW">     0</i>
   <i name="MODEL_EPS0">      7.68123361</i>
   <i name="MODEL_ALPHA">      1.00000000</i>
  </separator>
  <separator name="linear response parameters" >
   <i type="logical" name="LEPSILON"> F  </i>
   <i type="logical" name="LRPA"> F  </i>
   <i type="logical" name="LNABLA"> F  </i>
   <i type="logical" name="LVEL"> F  </i>
   <i type="int" name="KINTER">     0</i>
   <i name="CSHIFT">      0.10000000</i>
   <i name="OMEGAMAX">     -1.00000000</i>
   <i name="DEG_THRESHOLD">      0.00200000</i>
   <i name="RTIME">     -0.10000000</i>
   <i name="WPLASMAI">      0.00000000</i>
   <v name="DFIELD">      0.00000000      0.00000000      0.00000000</v>
   <v name="WPLASMA">      0.00000000      0.00000000      0.00000000      0.00000000      0.00000000      0.00000000      0.00000000      0.00000000      0.00000000</v>
  </separator>
  <separator name="orbital magnetization" >
   <i type="logical" name="NUCIND"> F  </i>
   <v name="MAGPOS">      0.00000000      0.00000000      0.00000000</v>
   <i type="logical" name="LNICSALL"> T  </i>
   <i type="logical" name="ORBITALMAG"> F  </i>
   <i type="logical" name="LMAGBLOCH"> F  </i>
   <i type="logical" name="LCHIMAG"> F  </i>
   <i type="logical" name="LGAUGE"> T  </i>
   <i type="int" name="MAGATOM">     0</i>
   <v name="MAGDIPOL">      0.00000000      0.00000000      0.00000000</v>
   <v name="AVECCONST">      0.00000000      0.00000000      0.00000000</v>
  </separator>
  <separator name="response functions" >
   <i type="logical" name="LADDER"> F  </i>
   <i type="logical" name="LRPAFORCE"> F  </i>
   <i type="logical" name="LFXC"> F  </i>
   <i type="logical" name="LHARTREE"> T  </i>
   <i type="int" name="IBSE">     0</i>
   <v type="int" name="KPOINT">    -1     0     0     0</v>
   <i type="logical" name="LTCTE"> F  </i>
   <i type="logical" name="LTETE"> F  </i>
   <i type="logical" name="LTRIPLET"> F  </i>
   <i type="logical" name="LFXCEPS"> F  </i>
   <i type="logical" name="LFXHEG"> F  </i>
   <i type="int" name="NATURALO">     2</i>
   <i type="logical" name="L2ORDER"> F  </i>
   <i type="logical" name="LMP2LT"> F  </i>
   <i type="logical" name="LUSEW"> F  </i>
   <i name="ENCUTGW">     -2.00000000</i>
   <i name="ENCUTGWSOFT">     -2.00000000</i>
   <i name="ENCUTLF">     -1.00000000</i>
   <i type="int" name="LMAXMP2">    -1</i>
   <i name="SCISSOR">      0.00000000</i>
   <i type="int" name="NOMEGA">     0</i>
   <i type="int" name="NOMEGAR">     0</i>
   <i type="int" name="NBANDSGW">    -1</i>
   <i type="int" name="NBANDSO">    -1</i>
   <i type="int" name="NBANDSV">    -1</i>
   <i type="int" name="NELM">   100</i>
   <i type="int" name="NELMHF">     1</i>
   <i type="int" name="DIM">     3</i>
   <i type="int" name="ANTIRES">     0</i>
   <i name="OMEGAMAX">    -30.00000000</i>
   <i name="OMEGAMIN">    -30.00000000</i>
   <i name="OMEGATL">   -200.00000000</i>
   <i type="int" name="OMEGAGRID">   140</i>
   <i name="CSHIFT">     -0.10000000</i>
   <i type="logical" name="SELFENERGY"> F  </i>
   <i type="logical" name="LSPECTRAL"> F  </i>
   <i type="logical" name="LSPECTRALGW"> F  </i>
   <i type="logical" name="LSINGLES"> F  </i>
   <i type="logical" name="LFERMIGW"> F  </i>
   <i type="logical" name="ODDONLYGW"> F  </i>
   <i type="logical" name="EVENONLYGW"> F  </i>
   <i type="int" name="NKREDLFX">     1</i>
   <i type="int" name="NKREDLFY">     1</i>
   <i type="int" name="NKREDLFZ">     1</i>
   <i type="int" name="MAXMEM">  2800</i>
   <i type="int" name="TELESCOPE">     0</i>
   <i type="int" name="TAUPAR">     1</i>
   <i type="int" name="OMEGAPAR">    -1</i>
   <i name="LAMBDA">      1.00000000</i>
  </separator>
  <separator name="External order field" >
   <i name="OFIELD_KAPPA">      0.00000000</i>
   <v name="OFIELD_K">      0.00000000      0.00000000      0.00000000</v>
   <i name="OFIELD_Q6_NEAR">      0.00000000</i>
   <i name="OFIELD_Q6_FAR">      0.00000000</i>
   <i name="OFIELD_A">      0.00000000</i>
  </separator>
 </parameters>
 <atominfo>
  <atoms>     288 </atoms>
  <types>       2 </types>
  <array name="atoms" >
   <dimension dim="1">ion</dimension>
   <field type="string">element</field>
   <field type="int">atomtype</field>
   <set>
    <rc><c>Fe</c><c>   1</c></rc>
    <rc><c>Fe</c><c>   1</c></rc>
    <rc><c>Fe</c><c>   1</c></rc>
    <rc><c>Fe</c><c>   1</c></rc>
    <rc><c>Fe</c><c>   1</c></rc>
    <rc><c>Fe</c><c>   1</c></rc>
    <rc><c>Fe</c><c>   1</c></rc>
    <rc><c>Fe</c><c>   1</c></rc>
    <rc><c>Fe</c><c>   1</c></rc>
    <rc><c>Fe</c><c>   1</c></rc>
    <rc><c>Fe</c><c>   1</c></rc>
    <rc><c>Fe</c><c>   1</c></rc>
    <rc><c>Fe</c><c>   1</c></rc>
    <rc><c>Fe</c><c>   1</c></rc>
    <rc><c>Fe</c><c>   1</c></rc>
    <rc><c>Fe</c><c>   1</c></rc>
    <rc><c>Fe</c><c>   1</c></rc>
    <rc><c>Fe</c><c>   1</c></rc>
    <rc><c>Fe</c><c>   1</c></rc>
    <rc><c>Fe</c><c>   1</c></rc>
    <rc><c>Fe</c><c>   1</c></rc>
    <rc><c>Fe</c><c>   1</c></rc>
    <rc><c>Fe</c><c>   1</c></rc>
    <rc><c>Fe</c><c>   1</c></rc>
    <rc><c>Fe</c><c>   1</c></rc>
    <rc><c>Fe</c><c>   1</c></rc>
    <rc><c>Fe</c><c>   1</c></rc>
    <rc><c>Fe</c><c>   1</c></rc>
    <rc><c>Fe</c><c>   1</c></rc>
    <rc><c>Fe</c><c>   1</c></rc>
    <rc><c>Fe</c><c>   1</c></rc>
    <rc><c>Fe</c><c>   1</c></rc>
    <rc><c>Fe</c><c>   1</c></rc>
    <rc><c>Fe</c><c>   1</c></rc>
    <rc><c>Fe</c><c>   1</c></rc>
    <rc><c>Fe</c><c>   1</c></rc>
    <rc><c>Fe</c><c>   1</c></rc>
    <rc><c>Fe</c><c>   1</c></rc>
    <rc><c>Fe</c><c>   1</c></rc>
    <rc><c>Fe</c><c>   1</c></rc>
    <rc><c>Fe</c><c>   1</c></rc>
    <rc><c>Fe</c><c>   1</c></rc>
    <rc><c>Fe</c><c>   1</c></rc>
    <rc><c>Fe</c><c>   1</c></rc>
    <rc><c>Fe</c><c>   1</c></rc>
    <rc><c>Fe</c><c>   1</c></rc>
    <rc><c>Fe</c><c>   1</c></rc>
    <rc><c>Fe</c><c>   1</c></rc>
    <rc><c>Fe</c><c>   1</c></rc>
    <rc><c>Fe</c><c>   1</c></rc>
    <rc><c>Fe</c><c>   1</c></rc>
    <rc><c>Fe</c><c>   1</c></rc>
    <rc><c>Fe</c><c>   1</c></rc>
    <rc><c>Fe</c><c>   1</c></rc>
    <rc><c>Fe</c><c>   1</c></rc>
    <rc><c>Fe</c><c>   1</c></rc>
    <rc><c>Fe</c><c>   1</c></rc>
    <rc><c>Fe</c><c>   1</c></rc>
    <rc><c>Fe</c><c>   1</c></rc>
    <rc><c>Fe</c><c>   1</c></rc>
    <rc><c>Fe</c><c>   1</c></rc>
    <rc><c>Fe</c><c>   1</c></rc>
    <rc><c>Fe</c><c>   1</c></rc>
    <rc><c>Fe</c><c>   1</c></rc>
    <rc><c>Fe</c><c>   1</c></rc>
    <rc><c>Fe</c><c>   1</c></rc>
    <rc><c>Fe</c><c>   1</c></rc>
    <rc><c>Fe</c><c>   1</c></rc>
    <rc><c>Fe</c><c>   1</c></rc>
    <rc><c>Fe</c><c>   1</c></rc>
    <rc><c>Fe</c><c>   1</c></rc>
    <rc><c>Fe</c><c>   1</c></rc>
    <rc><c>Fe</c><c>   1</c></rc>
    <rc><c>Fe</c><c>   1</c></rc>
    <rc><c>Fe</c><c>   1</c></rc>
    <rc><c>Fe</c><c>   1</c></rc>
    <rc><c>Fe</c><c>   1</c></rc>
    <rc><c>Fe</c><c>   1</c></rc>
    <rc><c>Fe</c><c>   1</c></rc>
    <rc><c>Fe</c><c>   1</c></rc>
    <rc><c>Fe</c><c>   1</c></rc>
    <rc><c>Fe</c><c>   1</c></rc>
    <rc><c>Fe</c><c>   1</c></rc>
    <rc><c>Fe</c><c>   1</c></rc>
    <rc><c>Fe</c><c>   1</c></rc>
    <rc><c>Fe</c><c>   1</c></rc>
    <rc><c>Fe</c><c>   1</c></rc>
    <rc><c>Fe</c><c>   1</c></rc>
    <rc><c>Fe</c><c>   1</c></rc>
    <rc><c>Fe</c><c>   1</c></rc>
    <rc><c>Fe</c><c>   1</c></rc>
    <rc><c>Fe</c><c>   1</c></rc>
    <rc><c>Fe</c><c>   1</c></rc>
    <rc><c>Fe</c><c>   1</c></rc>
    <rc><c>Fe</c><c>   1</c></rc>
    <rc><c>Fe</c><c>   1</c></rc>
    <rc><c>Fe</c><c>   1</c></rc>
    <rc><c>Fe</c><c>   1</c></rc>
    <rc><c>Fe</c><c>   1</c></rc>
    <rc><c>Fe</c><c>   1</c></rc>
    <rc><c>Fe</c><c>   1</c></rc>
    <rc><c>Fe</c><c>   1</c></rc>
    <rc><c>Fe</c><c>   1</c></rc>
    <rc><c>Fe</c><c>   1</c></rc>
    <rc><c>Fe</c><c>   1</c></rc>
    <rc><c>Fe</c><c>   1</c></rc>
    <rc><c>Fe</c><c>   1</c></rc>
    <rc><c>Fe</c><c>   1</c></rc>
    <rc><c>Fe</c><c>   1</c></rc>
    <rc><c>Fe</c><c>   1</c></rc>
    <rc><c>Fe</c><c>   1</c></rc>
    <rc><c>Fe</c><c>   1</c></rc>
    <rc><c>Fe</c><c>   1</c></rc>
    <rc><c>Fe</c><c>   1</c></rc>
    <rc><c>Fe</c><c>   1</c></rc>
    <rc><c>Fe</c><c>   1</c></rc>
    <rc><c>Fe</c><c>   1</c></rc>
    <rc><c>Fe</c><c>   1</c></rc>
    <rc><c>Fe</c><c>   1</c></rc>
    <rc><c>Fe</c><c>   1</c></rc>
    <rc><c>Fe</c><c>   1</c></rc>
    <rc><c>Fe</c><c>   1</c></rc>
    <rc><c>Fe</c><c>   1</c></rc>
    <rc><c>Fe</c><c>   1</c></rc>
    <rc><c>Fe</c><c>   1</c></rc>
    <rc><c>Fe</c><c>   1</c></rc>
    <rc><c>Fe</c><c>   1</c></rc>
    <rc><c>Fe</c><c>   1</c></rc>
    <rc><c>Fe</c><c>   1</c></rc>
    <rc><c>Fe</c><c>   1</c></rc>
    <rc><c>Fe</c><c>   1</c></rc>
    <rc><c>Fe</c><c>   1</c></rc>
    <rc><c>Fe</c><c>   1</c></rc>
    <rc><c>Fe</c><c>   1</c></rc>
    <rc><c>Fe</c><c>   1</c></rc>
    <rc><c>Fe</c><c>   1</c></rc>
    <rc><c>Fe</c><c>   1</c></rc>
    <rc><c>Fe</c><c>   1</c></rc>
    <rc><c>Fe</c><c>   1</c></rc>
    <rc><c>Fe</c><c>   1</c></rc>
    <rc><c>Fe</c><c>   1</c></rc>
    <rc><c>Fe</c><c>   1</c></rc>
    <rc><c>Fe</c><c>   1</c></rc>
    <rc><c>Fe</c><c>   1</c></rc>
    <rc><c>Fe</c><c>   1</c></rc>
    <rc><c>Fe</c><c>   1</c></rc>
    <rc><c>Fe</c><c>   1</c></rc>
    <rc><c>Fe</c><c>   1</c></rc>
    <rc><c>Fe</c><c>   1</c></rc>
    <rc><c>Fe</c><c>   1</c></rc>
    <rc><c>Fe</c><c>   1</c></rc>
    <rc><c>Fe</c><c>   1</c></rc>
    <rc><c>Fe</c><c>   1</c></rc>
    <rc><c>Fe</c><c>   1</c></rc>
    <rc><c>Fe</c><c>   1</c></rc>
    <rc><c>Fe</c><c>   1</c></rc>
    <rc><c>Fe</c><c>   1</c></rc>
    <rc><c>Fe</c><c>   1</c></rc>
    <rc><c>Fe</c><c>   1</c></rc>
    <rc><c>Fe</c><c>   1</c></rc>
    <rc><c>Fe</c><c>   1</c></rc>
    <rc><c>Fe</c><c>   1</c></rc>
    <rc><c>Fe</c><c>   1</c></rc>
    <rc><c>Fe</c><c>   1</c></rc>
    <rc><c>Fe</c><c>   1</c></rc>
    <rc><c>Fe</c><c>   1</c></rc>
    <rc><c>Fe</c><c>   1</c></rc>
    <rc><c>Fe</c><c>   1</c></rc>
    <rc><c>Fe</c><c>   1</c></rc>
    <rc><c>Fe</c><c>   1</c></rc>
    <rc><c>Fe</c><c>   1</c></rc>
    <rc><c>Fe</c><c>   1</c></rc>
    <rc><c>Fe</c><c>   1</c></rc>
    <rc><c>Fe</c><c>   1</c></rc>
    <rc><c>Fe</c><c>   1</c></rc>
    <rc><c>Fe</c><c>   1</c></rc>
    <rc><c>Fe</c><c>   1</c></rc>
    <rc><c>Fe</c><c>   1</c></rc>
    <rc><c>Fe</c><c>   1</c></rc>
    <rc><c>Fe</c><c>   1</c></rc>
    <rc><c>Fe</c><c>   1</c></rc>
    <rc><c>Fe</c><c>   1</c></rc>
    <rc><c>Fe</c><c>   1</c></rc>
    <rc><c>Fe</c><c>   1</c></rc>
    <rc><c>Fe</c><c>   1</c></rc>
    <rc><c>Fe</c><c>   1</c></rc>
    <rc><c>Fe</c><c>   1</c></rc>
    <rc><c>Fe</c><c>   1</c></rc>
    <rc><c>Fe</c><c>   1</c></rc>
    <rc><c>Fe</c><c>   1</c></rc>
    <rc><c>Fe</c><c>   1</c></rc>
    <rc><c>Fe</c><c>   1</c></rc>
    <rc><c>Fe</c><c>   1</c></rc>
    <rc><c>Fe</c><c>   1</c></rc>
    <rc><c>Fe</c><c>   1</c></rc>
    <rc><c>Fe</c><c>   1</c></rc>
    <rc><c>Fe</c><c>   1</c></rc>
    <rc><c>Fe</c><c>   1</c></rc>
    <rc><c>Fe</c><c>   1</c></rc>
    <rc><c>Fe</c><c>   1</c></rc>
    <rc><c>Fe</c><c>   1</c></rc>
    <rc><c>Fe</c><c>   1</c></rc>
    <rc><c>Fe</c><c>   1</c></rc>
    <rc><c>Fe</c><c>   1</c></rc>
    <rc><c>Fe</c><c>   1</c></rc>
    <rc><c>Fe</c><c>   1</c></rc>
    <rc><c>Fe</c><c>   1</c></rc>
    <rc><c>Fe</c><c>   1</c></rc>
    <rc><c>Fe</c><c>   1</c></rc>
    <rc><c>Fe</c><c>   1</c></rc>
    <rc><c>Fe</c><c>   1</c></rc>
    <rc><c>Fe</c><c>   1</c></rc>
    <rc><c>Fe</c><c>   1</c></rc>
    <rc><c>Fe</c><c>   1</c></rc>
    <rc><c>Fe</c><c>   1</c></rc>
    <rc><c>Fe</c><c>   1</c></rc>
    <rc><c>Fe</c><c>   1</c></rc>
    <rc><c>Fe</c><c>   1</c></rc>
    <rc><c>Fe</c><c>   1</c></rc>
    <rc><c>Fe</c><c>   1</c></rc>
    <rc><c>Fe</c><c>   1</c></rc>
    <rc><c>Fe</c><c>   1</c></rc>
    <rc><c>Fe</c><c>   1</c></rc>
    <rc><c>Fe</c><c>   1</c></rc>
    <rc><c>Fe</c><c>   1</c></rc>
    <rc><c>Fe</c><c>   1</c></rc>
    <rc><c>Fe</c><c>   1</c></rc>
    <rc><c>Fe</c><c>   1</c></rc>
    <rc><c>Fe</c><c>   1</c></rc>
    <rc><c>Fe</c><c>   1</c></rc>
    <rc><c>Fe</c><c>   1</c></rc>
    <rc><c>Fe</c><c>   1</c></rc>
    <rc><c>Fe</c><c>   1</c></rc>
    <rc><c>Fe</c><c>   1</c></rc>
    <rc><c>Fe</c><c>   1</c></rc>
    <rc><c>Fe</c><c>   1</c></rc>
    <rc><c>Fe</c><c>   1</c></rc>
    <rc><c>Fe</c><c>   1</c></rc>
    <rc><c>Fe</c><c>   1</c></rc>
    <rc><c>Fe</c><c>   1</c></rc>
    <rc><c>Fe</c><c>   1</c></rc>
    <rc><c>Fe</c><c>   1</c></rc>
    <rc><c>Fe</c><c>   1</c></rc>
    <rc><c>Fe</c><c>   1</c></rc>
    <rc><c>Fe</c><c>   1</c></rc>
    <rc><c>Fe</c><c>   1</c></rc>
    <rc><c>Fe</c><c>   1</c></rc>
    <rc><c>Fe</c><c>   1</c></rc>
    <rc><c>Fe</c><c>   1</c></rc>
    <rc><c>Fe</c><c>   1</c></rc>
    <rc><c>Fe</c><c>   1</c></rc>
    <rc><c>Fe</c><c>   1</c></rc>
    <rc><c>Fe</c><c>   1</c></rc>
    <rc><c>Fe</c><c>   1</c></rc>
    <rc><c>Fe</c><c>   1</c></rc>
    <rc><c>Fe</c><c>   1</c></rc>
    <rc><c>Fe</c><c>   1</c></rc>
    <rc><c>Fe</c><c>   1</c></rc>
    <rc><c>Fe</c><c>   1</c></rc>
    <rc><c>Fe</c><c>   1</c></rc>
    <rc><c>Fe</c><c>   1</c></rc>
    <rc><c>Fe</c><c>   1</c></rc>
    <rc><c>Fe</c><c>   1</c></rc>
    <rc><c>Fe</c><c>   1</c></rc>
    <rc><c>Fe</c><c>   1</c></rc>
    <rc><c>Fe</c><c>   1</c></rc>
    <rc><c>Fe</c><c>   1</c></rc>
    <rc><c>Fe</c><c>   1</c></rc>
    <rc><c>Fe</c><c>   1</c></rc>
    <rc><c>Fe</c><c>   1</c></rc>
    <rc><c>Fe</c><c>   1</c></rc>
    <rc><c>Fe</c><c>   1</c></rc>
    <rc><c>Fe</c><c>   1</c></rc>
    <rc><c>Mn</c><c>   2</c></rc>
    <rc><c>Mn</c><c>   2</c></rc>
    <rc><c>Mn</c><c>   2</c></rc>
    <rc><c>Mn</c><c>   2</c></rc>
    <rc><c>Mn</c><c>   2</c></rc>
    <rc><c>Mn</c><c>   2</c></rc>
    <rc><c>Mn</c><c>   2</c></rc>
    <rc><c>Mn</c><c>   2</c></rc>
    <rc><c>Mn</c><c>   2</c></rc>
    <rc><c>Mn</c><c>   2</c></rc>
    <rc><c>Mn</c><c>   2</c></rc>
    <rc><c>Mn</c><c>   2</c></rc>
    <rc><c>Mn</c><c>   2</c></rc>
    <rc><c>Mn</c><c>   2</c></rc>
    <rc><c>Mn</c><c>   2</c></rc>
   </set>
  </array>
  <array name="atomtypes" >
   <dimension dim="1">type</dimension>
   <field type="int">atomspertype</field>
   <field type="string">element</field>
   <field>mass</field>
   <field>valence</field>
   <field type="string">pseudopotential</field>
   <set>
    <rc><c> 273</c><c>Fe</c><c>     55.84700000</c><c>      8.00000000</c><c>  PAW_PBE Fe_GW 31Mar2010               </c></rc>
    <rc><c>  15</c><c>Mn</c><c>     54.93800000</c><c>      7.00000000</c><c>  PAW_PBE Mn_GW 31Mar2010               </c></rc>
   </set>
  </array>
 </atominfo>
 <structure name="initialpos" >
  <crystal>
   <varray name="basis" >
    <v>       9.72667800       0.00000000       0.00000000 </v>
    <v>       0.00000000       8.42355000       0.00000000 </v>
    <v>       0.00000000       0.00000000      45.00000000 </v>
   </varray>
   <i name="volume">   3686.99213101 </i>
   <varray name="rec_basis" >
    <v>       0.10281002       0.00000000       0.00000000 </v>
    <v>       0.00000000       0.11871479       0.00000000 </v>
    <v>       0.00000000       0.00000000       0.02222222 </v>
   </varray>
  </crystal>
  <varray name="positions" >
   <v>       0.06261802       0.20139061       0.34504526 </v>
   <v>       0.93832203       0.29899536       0.87539056 </v>
   <v>       0.68748928       0.45493388       0.47854148 </v>
   <v>       0.18758208       0.45452471       0.47847220 </v>
   <v>       0.43744812       0.45205725       0.34518725 </v>
   <v>       0.43771170       0.61285865       0.16730223 </v>
   <v>       0.31250764       0.54679130       0.74367605 </v>
   <v>       0.06207993       0.37008582       0.43431000 </v>
   <v>       0.56198721       0.02824593       0.12484171 </v>
   <v>       0.68699445       0.96414948       0.83310545 </v>
   <v>       0.56323372       0.54935885       0.87506330 </v>
   <v>       0.18747053       0.12283024       0.52152849 </v>
   <v>       0.93756459       0.28093643       0.25629068 </v>
   <v>       0.93740093       0.29230795       0.61066898 </v>
   <v>       0.43774584       0.29198230       0.61056437 </v>
   <v>       0.18814190       0.96180303       0.69942024 </v>
   <v>       0.43735447       0.28612364       0.38931701 </v>
   <v>       0.68728176       0.27807196       0.12503301 </v>
   <v>       0.31246047       0.37299421       0.52144037 </v>
   <v>       0.06269632       0.36590269       0.30043666 </v>
   <v>       0.43725472       0.27752326       0.12492924 </v>
   <v>       0.81381089       0.04971592       0.87516304 </v>
   <v>       0.43732627       0.77824660       0.12510567 </v>
   <v>       0.43669720       0.29671466       0.74377887 </v>
   <v>       0.81255334       0.54258726       0.61057733 </v>
   <v>       0.81270827       0.03081196       0.25619461 </v>
   <v>       0.68752883       0.79279203       0.61057051 </v>
   <v>       0.06155848       0.02802191       0.12504042 </v>
   <v>       0.43790003       0.79259912       0.61059421 </v>
   <v>       0.56256376       0.54270281       0.61065561 </v>
   <v>       0.93692930       0.12272212       0.52146116 </v>
   <v>       0.93764830       0.29714329       0.74389552 </v>
   <v>       0.18699705       0.45745040       0.56558792 </v>
   <v>       0.93753422       0.45171447       0.34517414 </v>
   <v>       0.06216520       0.87558280       0.65475128 </v>
   <v>       0.68764395       0.29245642       0.61050974 </v>
   <v>       0.06279886       0.53077317       0.25623805 </v>
   <v>       0.31259933       0.02812921       0.12483405 </v>
   <v>       0.93729294       0.44541477       0.21197960 </v>
   <v>       0.43752806       0.28045216       0.25630200 </v>
   <v>       0.56176982       0.87628378       0.65460241 </v>
   <v>       0.56292469       0.38191048       0.78816986 </v>
   <v>       0.68759919       0.13200700       0.78804726 </v>
   <v>       0.43845912       0.13305773       0.78810161 </v>
   <v>       0.06219626       0.86999407       0.43419668 </v>
   <v>       0.56269508       0.36259930       0.16718410 </v>
   <v>       0.18759168       0.28058500       0.25624693 </v>
   <v>       0.93728222       0.94550583       0.21199359 </v>
   <v>       0.93810435       0.46176934       0.69940128 </v>
   <v>       0.81234372       0.52793728       0.12495610 </v>
   <v>       0.56206888       0.86583239       0.30043431 </v>
   <v>       0.31302728       0.04949889       0.87527244 </v>
   <v>       0.93698523       0.95756517       0.56551352 </v>
   <v>       0.93742512       0.95517360       0.47835924 </v>
   <v>       0.06288607       0.54941802       0.87517021 </v>
   <v>       0.81281756       0.04271843       0.61059810 </v>
   <v>       0.31268371       0.70783851       0.56559285 </v>
   <v>       0.93780337       0.78097986       0.25623319 </v>
   <v>       0.68727992       0.62013048       0.43437458 </v>
   <v>       0.56277851       0.04978369       0.87541026 </v>
   <v>       0.81225959       0.19558709       0.21189884 </v>
   <v>       0.56244995       0.53057779       0.25623013 </v>
   <v>       0.31255192       0.70202986       0.34502224 </v>
   <v>       0.06311562       0.38307689       0.78802353 </v>
   <v>       0.18730739       0.12004907       0.43435374 </v>
   <v>       0.93743353       0.61990401       0.43429482 </v>
   <v>       0.81251244       0.70153137       0.34509942 </v>
   <v>       0.68712252       0.12636199       0.65482166 </v>
   <v>       0.43735341       0.78602806       0.38930222 </v>
   <v>       0.18733333       0.62012996       0.43455856 </v>
   <v>       0.18788610       0.29980531       0.87524557 </v>
   <v>       0.06210986       0.37619275       0.65480605 </v>
   <v>       0.68732414       0.11984582       0.43431795 </v>
   <v>       0.81187232       0.54656701       0.74364128 </v>
   <v>       0.18667475       0.62593449       0.65472260 </v>
   <v>       0.06310886       0.71170627       0.69944758 </v>
   <v>       0.18730361       0.44527693       0.21201937 </v>
   <v>       0.31244167       0.04769476       0.74374975 </v>
   <v>       0.81253238       0.03563834       0.38927331 </v>
   <v>       0.93768683       0.11594146       0.30044556 </v>
   <v>       0.06243703       0.54732567       0.74380250 </v>
   <v>       0.43740585       0.95167274       0.34510172 </v>
   <v>       0.18733653       0.11590955       0.30048265 </v>
   <v>       0.31193504       0.87287962       0.52141221 </v>
   <v>       0.31253457       0.53027083       0.25623811 </v>
   <v>       0.56241189       0.20141677       0.34506867 </v>
   <v>       0.93759814       0.11269242       0.16715997 </v>
   <v>       0.06261370       0.36344721       0.16720809 </v>
   <v>       0.56228511       0.04646026       0.74359724 </v>
   <v>       0.93785635       0.79214092       0.61047101 </v>
   <v>       0.43780420       0.46151900       0.69926640 </v>
   <v>       0.93711275       0.62277865       0.52148867 </v>
   <v>       0.18762890       0.95151382       0.34512682 </v>
   <v>       0.93745583       0.28545137       0.38933447 </v>
   <v>       0.56226845       0.54686099       0.74372285 </v>
   <v>       0.81194110       0.70746043       0.56546999 </v>
   <v>       0.68767066       0.46211530       0.69936012 </v>
   <v>       0.81276494       0.71223516       0.69945446 </v>
   <v>       0.06211401       0.70746631       0.56557360 </v>
   <v>       0.06305107       0.88224469       0.78805678 </v>
   <v>       0.31279059       0.55015189       0.87504341 </v>
   <v>       0.31237633       0.04248393       0.61057977 </v>
   <v>       0.81222178       0.69519658       0.21201316 </v>
   <v>       0.93754478       0.11979385       0.43434360 </v>
   <v>       0.68755557       0.78558578       0.38928531 </v>
   <v>       0.93743874       0.78554026       0.38924909 </v>
   <v>       0.56216380       0.36599224       0.30045807 </v>
   <v>       0.31277843       0.38202525       0.78800310 </v>
   <v>       0.56226700       0.53596134       0.38932744 </v>
   <v>       0.18784813       0.96433492       0.83296666 </v>
   <v>       0.06230361       0.19542303       0.21193964 </v>
   <v>       0.93712830       0.79695586       0.74369102 </v>
   <v>       0.31274313       0.54203955       0.61067279 </v>
   <v>       0.56279595       0.86999086       0.43429869 </v>
   <v>       0.56241601       0.20783604       0.56560293 </v>
   <v>       0.31202869       0.52821933       0.12505494 </v>
   <v>       0.18763503       0.78044772       0.25626870 </v>
   <v>       0.06219460       0.71397727       0.83301494 </v>
   <v>       0.43748466       0.95568820       0.47843641 </v>
   <v>       0.31253378       0.20504674       0.47837734 </v>
   <v>       0.56245078       0.03041105       0.25620833 </v>
   <v>       0.93731989       0.79934881       0.87517409 </v>
   <v>       0.06268513       0.53573543       0.38932895 </v>
   <v>       0.06239796       0.04190084       0.61059350 </v>
   <v>       0.56282084       0.04248309       0.61055029 </v>
   <v>       0.68796837       0.61283636       0.16716223 </v>
   <v>       0.31225925       0.87022450       0.43419987 </v>
   <v>       0.68732789       0.95154831       0.34517778 </v>
   <v>       0.43728830       0.94506603       0.21212521 </v>
   <v>       0.18788365       0.11320213       0.16721010 </v>
   <v>       0.43737393       0.61553331       0.30041042 </v>
   <v>       0.93783980       0.46481794       0.83310856 </v>
   <v>       0.06203881       0.37261849       0.52158018 </v>
   <v>       0.68747223       0.30051312       0.87502951 </v>
   <v>       0.56221722       0.37646645       0.65488630 </v>
   <v>       0.31239612       0.03619847       0.38936900 </v>
   <v>       0.81267656       0.86271586       0.16712964 </v>
   <v>       0.18668367       0.12589525       0.65487500 </v>
   <v>       0.68742361       0.61586339       0.30045372 </v>
   <v>       0.18731952       0.94562070       0.21209322 </v>
   <v>       0.31223685       0.36576395       0.30048323 </v>
   <v>       0.68723624       0.62297072       0.52145828 </v>
   <v>       0.56269298       0.37264497       0.52151499 </v>
   <v>       0.56261103       0.87288450       0.52142081 </v>
   <v>       0.68769763       0.28085973       0.25624675 </v>
   <v>       0.31256308       0.20173245       0.34513295 </v>
   <v>       0.06258133       0.87290218       0.52155462 </v>
   <v>       0.81305206       0.55027678       0.87514513 </v>
   <v>       0.31276194       0.70497331       0.47842682 </v>
   <v>       0.81241685       0.36591879       0.30044271 </v>
   <v>       0.18630309       0.46463487       0.83303712 </v>
   <v>       0.06262548       0.03046825       0.25618137 </v>
   <v>       0.43752067       0.12002840       0.43433842 </v>
   <v>       0.93769184       0.61286054       0.16722615 </v>
   <v>       0.56249414       0.71563533       0.83298521 </v>
   <v>       0.93736371       0.96549380       0.83315941 </v>
   <v>       0.56221937       0.69522456       0.21190879 </v>
   <v>       0.43724357       0.44529376       0.21202991 </v>
   <v>       0.81259766       0.87292053       0.52141582 </v>
   <v>       0.81235652       0.71459453       0.83305068 </v>
   <v>       0.56245655       0.19553748       0.21201654 </v>
   <v>       0.18728101       0.95513520       0.47836803 </v>
   <v>       0.81243512       0.86972489       0.43434808 </v>
   <v>       0.18862746       0.79970203       0.87512570 </v>
   <v>       0.06203364       0.70532724       0.47856991 </v>
   <v>       0.68752369       0.11327316       0.16718777 </v>
   <v>       0.81266683       0.53142333       0.25625016 </v>
   <v>       0.18855234       0.13228442       0.78795591 </v>
   <v>       0.06261196       0.20516267       0.47855637 </v>
   <v>       0.68706845       0.94565694       0.21203768 </v>
   <v>       0.18777799       0.29151662       0.61068415 </v>
   <v>       0.56207595       0.86326696       0.16718585 </v>
   <v>       0.56303282       0.88296014       0.78811645 </v>
   <v>       0.93812248       0.96224807       0.69938286 </v>
   <v>       0.06216237       0.04787820       0.74376608 </v>
   <v>       0.31209690       0.69532601       0.21195662 </v>
   <v>       0.18758332       0.79194817       0.61051602 </v>
   <v>       0.81222943       0.20528394       0.47843495 </v>
   <v>       0.56254469       0.21194344       0.69950835 </v>
   <v>       0.56243326       0.70811435       0.56555896 </v>
   <v>       0.18794746       0.46201627       0.69939951 </v>
   <v>       0.18741702       0.27817293       0.12506781 </v>
   <v>       0.06227884       0.03618000       0.38937430 </v>
   <v>       0.81243551       0.37007245       0.43431747 </v>
   <v>       0.43779265       0.96133172       0.69946610 </v>
   <v>       0.18749052       0.28620870       0.38934396 </v>
   <v>       0.06244348       0.69511188       0.21195141 </v>
   <v>       0.31267491       0.71144375       0.69941497 </v>
   <v>       0.93692629       0.62637063       0.65472366 </v>
   <v>       0.18753601       0.45210650       0.34514132 </v>
   <v>       0.68754854       0.80067072       0.87530659 </v>
   <v>       0.31209028       0.87612637       0.65475763 </v>
   <v>       0.18688749       0.95726622       0.56552510 </v>
   <v>       0.56255443       0.03627346       0.38937011 </v>
   <v>       0.31281302       0.71544880       0.83308983 </v>
   <v>       0.43732472       0.11590045       0.30051178 </v>
   <v>       0.31278763       0.88331672       0.78800062 </v>
   <v>       0.68755540       0.45779123       0.56559363 </v>
   <v>       0.56240883       0.71223491       0.69940663 </v>
   <v>       0.06292498       0.21234547       0.69944866 </v>
   <v>       0.56247453       0.37030276       0.43442618 </v>
   <v>       0.43769775       0.61995607       0.43422360 </v>
   <v>       0.81244740       0.53537421       0.38937566 </v>
   <v>       0.43690245       0.79687905       0.74374234 </v>
   <v>       0.81192520       0.20787248       0.56563908 </v>
   <v>       0.68743198       0.12299427       0.52140968 </v>
   <v>       0.06239619       0.52782253       0.12497329 </v>
   <v>       0.18721977       0.61310745       0.16722663 </v>
   <v>       0.43747873       0.45505002       0.47846674 </v>
   <v>       0.81249853       0.04693806       0.74380216 </v>
   <v>       0.18734559       0.61545164       0.30041042 </v>
   <v>       0.31318636       0.21436810       0.83283847 </v>
   <v>       0.18751452       0.78579227       0.38930267 </v>
   <v>       0.81264878       0.70500325       0.47844033 </v>
   <v>       0.43804196       0.12282344       0.52147518 </v>
   <v>       0.18690155       0.29761228       0.74385047 </v>
   <v>       0.68842078       0.63239093       0.78801421 </v>
   <v>       0.56195438       0.21494107       0.83293886 </v>
   <v>       0.56233263       0.70481693       0.47844480 </v>
   <v>       0.31276473       0.20792728       0.56560742 </v>
   <v>       0.81323412       0.38126917       0.78794167 </v>
   <v>       0.93812664       0.13211986       0.78810028 </v>
   <v>       0.31265235       0.03054365       0.25624389 </v>
   <v>       0.06285568       0.70147227       0.34511384 </v>
   <v>       0.68783944       0.95742084       0.56545761 </v>
   <v>       0.81200051       0.37696029       0.65491099 </v>
   <v>       0.31231567       0.53627474       0.38930357 </v>
   <v>       0.18687420       0.79714401       0.74377487 </v>
   <v>       0.43680477       0.62614924       0.65476831 </v>
   <v>       0.06249955       0.54210418       0.61053742 </v>
   <v>       0.68735535       0.77747092       0.12510657 </v>
   <v>       0.56260177       0.52828689       0.12506702 </v>
   <v>       0.06215555       0.04990953       0.87512931 </v>
   <v>       0.81267621       0.21474966       0.83297478 </v>
   <v>       0.93740428       0.27812739       0.12506555 </v>
   <v>       0.68733747       0.62688070       0.65479722 </v>
   <v>       0.56243378       0.20532085       0.47840259 </v>
   <v>       0.93782283       0.95153090       0.34514587 </v>
   <v>       0.68750776       0.28556269       0.38930270 </v>
   <v>       0.81292490       0.02803662       0.12502976 </v>
   <v>       0.18734550       0.77741446       0.12511654 </v>
   <v>       0.93704751       0.12611461       0.65484705 </v>
   <v>       0.06261496       0.86588153       0.30043699 </v>
   <v>       0.93733697       0.45524582       0.47846580 </v>
   <v>       0.43747719       0.78034115       0.25627914 </v>
   <v>       0.31313066       0.86339504       0.16712906 </v>
   <v>       0.43790854       0.46564050       0.83287278 </v>
   <v>       0.68758260       0.45162428       0.34510157 </v>
   <v>       0.93754977       0.45759097       0.56565955 </v>
   <v>       0.56230851       0.70154512       0.34511219 </v>
   <v>       0.31290568       0.21218558       0.69952755 </v>
   <v>       0.93725064       0.77785033       0.12504062 </v>
   <v>       0.43710235       0.45834830       0.56559981 </v>
   <v>       0.81298015       0.88253773       0.78820262 </v>
   <v>       0.68713800       0.44536816       0.21200210 </v>
   <v>       0.93743649       0.61592167       0.30043749 </v>
   <v>       0.43765213       0.62287736       0.52162295 </v>
   <v>       0.81253198       0.37246262       0.52152612 </v>
   <v>       0.81233562       0.87611166       0.65473230 </v>
   <v>       0.43843216       0.29967240       0.87500944 </v>
   <v>       0.06269550       0.86278783       0.16713038 </v>
   <v>       0.68757955       0.95568774       0.47832903 </v>
   <v>       0.43790603       0.63298164       0.78795510 </v>
   <v>       0.68692456       0.29666998       0.74376811 </v>
   <v>       0.31249111       0.36263805       0.16717592 </v>
   <v>       0.68758672       0.46504751       0.83310184 </v>
   <v>       0.43849872       0.80086695       0.87551965 </v>
   <v>       0.68753383       0.78095890       0.25624197 </v>
   <v>       0.81272763       0.36323714       0.16722646 </v>
   <v>       0.68721257       0.11599737       0.30043621 </v>
   <v>       0.31197383       0.19542815       0.21210798 </v>
   <v>       0.31231701       0.86567207       0.30049637 </v>
   <v>       0.31207250       0.37582140       0.65488165 </v>
   <v>       0.93657737       0.63232418       0.78778234 </v>
   <v>       0.18777115       0.62317067       0.52135758 </v>
   <v>       0.43699352       0.12574773       0.65474892 </v>
   <v>       0.19001513       0.63299053       0.78778003 </v>
   <v>       0.06216377       0.21547947       0.83364048 </v>
   <v>       0.81266722       0.20113955       0.34507730 </v>
   <v>       0.43752502       0.11300380       0.16650134 </v>
   <v>       0.43736752       0.95752741       0.56544310 </v>
   <v>       0.68671385       0.79605987       0.74411720 </v>
   <v>       0.81298279       0.21263674       0.69955100 </v>
   <v>       0.31252732       0.36984789       0.43425076 </v>
   <v>       0.06234908       0.20786937       0.56550781 </v>
   <v>       0.81250408       0.86635704       0.30050049 </v>
   <v>       0.43736540       0.96440778       0.83386098 </v>
   <v>       0.68790727       0.96211444       0.69931643 </v>
  </varray>
 </structure>
 <calculation>
  <scstep>
   <time name="dav">  145.48  145.48</time>
   <time name="total">  145.93  145.93</time>
   <energy>
    <i name="alphaZ">  16277.55763135 </i>
    <i name="ewald"> 730875.10386893 </i>
    <i name="hartreedc">-921193.65264503 </i>
    <i name="XCdc">  -6528.62040324 </i>
    <i name="pawpsdc"> 162148.49262465 </i>
    <i name="pawaedc">-159453.03229289 </i>
    <i name="eentropy">     -0.96035816 </i>
    <i name="bandstr">  39758.25168992 </i>
    <i name="atom"> 168497.18126305 </i>
    <i name="e_fr_energy">  30380.32137859 </i>
    <i name="e_wo_entrp">  30381.28173675 </i>
    <i name="e_0_energy">  30380.80155767 </i>
   </energy>
  </scstep>
  <scstep>
   <time name="dav">  139.95  139.94</time>
   <time name="total">  139.95  139.95</time>
   <energy>
    <i name="e_fr_energy">   1520.11951686 </i>
    <i name="e_wo_entrp">   1521.51610845 </i>
    <i name="e_0_energy">   1520.81781266 </i>
   </energy>
  </scstep>
  <scstep>
   <time name="dav">  176.69  176.69</time>
   <time name="total">  176.70  176.69</time>
   <energy>
    <i name="e_fr_energy">  -1899.44230889 </i>
    <i name="e_wo_entrp">  -1895.90225491 </i>
    <i name="e_0_energy">  -1897.67228190 </i>
   </energy>
  </scstep>
  <scstep>
   <time name="dav">  217.16  217.15</time>
   <time name="total">  217.17  217.16</time>
   <energy>
    <i name="e_fr_energy">  -2610.72973773 </i>
    <i name="e_wo_entrp">  -2607.25165071 </i>
    <i name="e_0_energy">  -2608.99069422 </i>
   </energy>
  </scstep>
  <scstep>
   <time name="dav">  207.59  207.59</time>
   <time name="total">  212.27  212.26</time>
   <energy>
    <i name="e_fr_energy">  -2740.08794862 </i>
    <i name="e_wo_entrp">  -2736.51529782 </i>
    <i name="e_0_energy">  -2738.30162322 </i>
   </energy>
  </scstep>
  <scstep>
   <time name="diag">   30.48   30.48</time>
   <time name="diis">   75.34   75.34</time>
   <time name="orth">    8.82    8.82</time>
   <time name="total">  119.75  119.75</time>
   <energy>
    <i name="e_fr_energy">  -5994.17524283 </i>
    <i name="e_wo_entrp">  -5990.85749339 </i>
    <i name="e_0_energy">  -5992.51636811 </i>
   </energy>
  </scstep>
  <scstep>
   <time name="diag">   31.10   31.09</time>
   <time name="diis">   76.52   76.51</time>
   <time name="orth">    8.79    8.79</time>
   <time name="total">  121.56  121.56</time>
   <energy>
    <i name="e_fr_energy">  -4160.43474666 </i>
    <i name="e_wo_entrp">  -4154.94879278 </i>
    <i name="e_0_energy">  -4157.69176972 </i>
   </energy>
  </scstep>
  <scstep>
[...]
    <v>       0.81237957       0.36305823       0.16784187 </v>
    <v>       0.68731632       0.11627779       0.30112368 </v>
    <v>       0.31220549       0.19843989       0.21280970 </v>
    <v>       0.31243099       0.86596448       0.30117794 </v>
    <v>       0.31262028       0.37717173       0.65434376 </v>
    <v>       0.93592667       0.62965160       0.78718630 </v>
    <v>       0.18786924       0.62244859       0.52123219 </v>
    <v>       0.43806452       0.12721229       0.65422224 </v>
    <v>       0.18815485       0.62978245       0.78711535 </v>
    <v>       0.06284885       0.21570810       0.83298782 </v>
    <v>       0.81243498       0.19990507       0.34575727 </v>
    <v>       0.43719267       0.11248726       0.16716099 </v>
    <v>       0.43776263       0.95714700       0.56512641 </v>
    <v>       0.68834638       0.79520305       0.74348437 </v>
    <v>       0.81235487       0.21219749       0.69881810 </v>
    <v>       0.31250253       0.37038731       0.43452729 </v>
    <v>       0.06255376       0.20737672       0.56515070 </v>
    <v>       0.81265514       0.86667673       0.30118521 </v>
    <v>       0.43816264       0.96486237       0.83304558 </v>
    <v>       0.68649564       0.96198041       0.69873034 </v>
   </varray>
  </structure>
  <varray name="forces" >
   <v>       0.00544484       0.01798805       0.01353669 </v>
   <v>       0.00903653       0.00953668      -0.07731615 </v>
   <v>       0.04217458      -0.08770591       0.03415595 </v>
   <v>      -0.01042067      -0.01062867       0.00220417 </v>
   <v>       0.01709289       0.01193013      -0.00136986 </v>
   <v>       0.00930254       0.02229362      -0.01755401 </v>
   <v>      -0.03030685      -0.02399378      -0.01232276 </v>
   <v>       0.00616360       0.00792455      -0.03287037 </v>
   <v>      -0.01872154      -0.00646438       0.04988558 </v>
   <v>       0.00049305      -0.02050765       0.01388265 </v>
   <v>       0.00644708       0.01057004      -0.05943739 </v>
   <v>      -0.01277210       0.00631186       0.01580873 </v>
   <v>      -0.00831175      -0.00276224      -0.00692864 </v>
   <v>       0.01942335      -0.00824006      -0.00736843 </v>
   <v>      -0.01056653       0.00563466      -0.01592645 </v>
   <v>      -0.00146141       0.00029255      -0.03684965 </v>
   <v>      -0.00041396      -0.00606801       0.00295760 </v>
   <v>      -0.01265997       0.00021587       0.05065335 </v>
   <v>       0.02315437       0.02387370       0.02475537 </v>
   <v>      -0.00633144       0.00465862       0.00945131 </v>
   <v>       0.00439799      -0.00273672       0.03436432 </v>
   <v>       0.02023676      -0.00531990      -0.05009049 </v>
   <v>      -0.00479295       0.02892560       0.04971120 </v>
   <v>      -0.00240755       0.00298395      -0.01274312 </v>
   <v>       0.00726994       0.00462001      -0.00764745 </v>
   <v>      -0.00076620       0.00889670       0.00110650 </v>
   <v>       0.01242954       0.00023960      -0.00778112 </v>
   <v>       0.01260371      -0.00650582       0.05817380 </v>
   <v>      -0.00530267      -0.00534471      -0.00719982 </v>
   <v>      -0.00059102       0.00106849      -0.01485403 </v>
   <v>       0.03954994       0.01082992      -0.03585419 </v>
   <v>      -0.00820017      -0.00887909      -0.00975049 </v>
   <v>       0.00556542      -0.00898849       0.04057138 </v>
   <v>      -0.00145652       0.01331506       0.00776604 </v>
   <v>      -0.00571268      -0.02328605      -0.00666000 </v>
   <v>       0.01069855       0.00033348      -0.00003192 </v>
   <v>      -0.01369011       0.00474795       0.00800219 </v>
   <v>      -0.00286686      -0.00456434       0.04695946 </v>
   <v>      -0.00741385      -0.01839862       0.00213335 </v>
   <v>       0.00936963      -0.00694169       0.00170203 </v>
   <v>       0.00806127      -0.02133717      -0.00071060 </v>
   <v>       0.01789264       0.02340671      -0.01665885 </v>
   <v>       0.01592200       0.01188329      -0.00304359 </v>
   <v>       0.00270937       0.01409264      -0.01093893 </v>
   <v>      -0.01193011       0.00846857      -0.04490601 </v>
   <v>       0.01479995       0.01726789      -0.00957328 </v>
   <v>       0.00710369       0.00105659       0.00496772 </v>
   <v>      -0.01432034      -0.01839223      -0.00355296 </v>
   <v>       0.01762592       0.00414439      -0.00352776 </v>
   <v>      -0.00348013      -0.00386907       0.06739426 </v>
   <v>       0.00795682      -0.00630636       0.01516496 </v>
   <v>       0.00494214      -0.01296316      -0.05131687 </v>
   <v>      -0.00111256      -0.00004690       0.05141982 </v>
   <v>       0.01521883       0.07380993      -0.00426740 </v>
   <v>       0.00908594      -0.01671632      -0.06971676 </v>
   <v>      -0.00480056      -0.00832466      -0.00621878 </v>
   <v>      -0.01147537      -0.00624639       0.03253815 </v>
   <v>      -0.01363368      -0.00627027      -0.00470447 </v>
   <v>       0.00531054       0.00591818      -0.04354851 </v>
   <v>      -0.00190186       0.00388612      -0.03740916 </v>
   <v>      -0.00756533      -0.00644717       0.01486789 </v>
   <v>       0.02018970       0.01185736       0.00415942 </v>
   <v>       0.00422597       0.01078098       0.00326188 </v>
   <v>       0.01390002       0.03012484      -0.01077806 </v>
   <v>      -0.00981670      -0.00260977      -0.04281115 </v>
   <v>       0.00059343       0.00221249      -0.04494213 </v>
   <v>      -0.00298094       0.01323441      -0.00277118 </v>
   <v>       0.00856306      -0.01587572      -0.02304850 </v>
   <v>       0.00440966       0.00695945       0.00221181 </v>
   <v>      -0.01424305      -0.00885585      -0.02846254 </v>
   <v>      -0.01050037       0.01319276      -0.06291830 </v>
   <v>      -0.00599384      -0.00634042      -0.01372420 </v>
   <v>       0.01119786      -0.00432569      -0.03555515 </v>
   <v>       0.01745262      -0.02570758      -0.01656407 </v>
   <v>      -0.00090733      -0.00875977      -0.00636851 </v>
   <v>      -0.00083111      -0.00489758      -0.01127266 </v>
   <v>      -0.00553968      -0.02897925       0.00678357 </v>
   <v>      -0.00600919       0.00648477      -0.00666051 </v>
   <v>      -0.00631871      -0.00251514       0.00579762 </v>
   <v>      -0.00974758       0.00146676       0.01256383 </v>
   <v>      -0.01141682      -0.02222373      -0.01523451 </v>
   <v>       0.01566067       0.01394723       0.02201808 </v>
   <v>      -0.00192925       0.00559765       0.00839722 </v>
   <v>      -0.02905006       0.01893969      -0.02238744 </v>
   <v>       0.00990325       0.02402045       0.00691789 </v>
   <v>       0.00384931       0.01851378       0.00800846 </v>
   <v>       0.00751589       0.03128910      -0.00356690 </v>
   <v>      -0.01273510       0.02153269      -0.00500794 </v>
   <v>      -0.00620747       0.00690292       0.00283477 </v>
   <v>       0.00125877      -0.00220560       0.00710327 </v>
   <v>       0.01407240       0.00769589      -0.01078804 </v>
   <v>       0.00353144       0.02402921       0.01019270 </v>
   <v>      -0.00668588       0.02256447       0.01501870 </v>
   <v>       0.00471022       0.01204081       0.00117344 </v>
   <v>      -0.01740626      -0.01943316      -0.00370510 </v>
   <v>      -0.00864738      -0.00641362       0.02897867 </v>
   <v>      -0.00204995       0.00190340      -0.00397671 </v>
   <v>       0.01026124      -0.01493702      -0.02283198 </v>
   <v>       0.01048362       0.00316708       0.02434730 </v>
   <v>       0.00911262       0.01589709       0.00067638 </v>
   <v>      -0.00281608       0.01018114      -0.05655344 </v>
   <v>       0.00573746      -0.00386289      -0.01266570 </v>
   <v>      -0.00326359       0.00168066      -0.00192756 </v>
   <v>      -0.00317846      -0.01111062      -0.00873111 </v>
   <v>      -0.00810734       0.00881632      -0.00154296 </v>
   <v>      -0.00159424      -0.00131011       0.00472489 </v>
   <v>       0.00702801       0.00250845       0.01508443 </v>
   <v>      -0.01073876       0.02260015      -0.00021661 </v>
   <v>       0.00097573       0.00024157      -0.00733801 </v>
   <v>      -0.02228748      -0.01356308       0.00475107 </v>
   <v>      -0.01712448      -0.01503063      -0.00042519 </v>
   <v>      -0.00417218      -0.01389125      -0.00466558 </v>
   <v>      -0.01121447       0.00361944      -0.01753066 </v>
   <v>       0.00655851      -0.00280753      -0.04462878 </v>
   <v>      -0.00497292       0.01297675       0.01757752 </v>
   <v>      -0.00459568      -0.00396407       0.07968605 </v>
   <v>       0.00076496       0.00728656       0.00200099 </v>
   <v>      -0.00575924      -0.03674573       0.01876923 </v>
   <v>      -0.03685932      -0.08500632       0.00239345 </v>
   <v>       0.05148366      -0.02876064       0.01033350 </v>
   <v>       0.00078278       0.01386591       0.00437021 </v>
   <v>       0.01138875      -0.00277815      -0.08455817 </v>
   <v>      -0.00738848       0.00384147      -0.00889399 </v>
   <v>       0.01777486      -0.00186085      -0.00704967 </v>
   <v>      -0.00310441      -0.00240505      -0.01340167 </v>
   <v>       0.02307757       0.02553618      -0.01318863 </v>
   <v>       0.00913649      -0.00034003      -0.02536293 </v>
   <v>       0.00609953       0.01016603      -0.00332696 </v>
   <v>       0.00137769      -0.02127972       0.00168978 </v>
   <v>      -0.00545504       0.03452259      -0.01375100 </v>
   <v>       0.01129814       0.00937153       0.01623566 </v>
   <v>      -0.01213847      -0.01202600       0.02141974 </v>
   <v>       0.00493412       0.07432487       0.02163952 </v>
   <v>       0.02060667       0.00544803      -0.04724713 </v>
   <v>      -0.00049281      -0.01221058      -0.01999335 </v>
   <v>      -0.00072488       0.00674212      -0.00874767 </v>
   <v>       0.00684142       0.02364345       0.02538413 </v>
   <v>      -0.02738402      -0.01034530      -0.01539759 </v>
   <v>      -0.01249405       0.01483600       0.02108299 </v>
   <v>      -0.00807789      -0.03082053      -0.00951355 </v>
   <v>       0.00783136       0.00520239       0.01341246 </v>
   <v>       0.10112246       0.03614038      -0.00990150 </v>
   <v>       0.01598141      -0.03266550      -0.01663608 </v>
   <v>       0.00805384       0.03317737      -0.00322125 </v>
   <v>       0.00204078      -0.00092257      -0.00348729 </v>
   <v>       0.00171649       0.00553727       0.01635655 </v>
   <v>       0.03576279       0.00686740       0.01516634 </v>
   <v>       0.00132000       0.00137045      -0.04611595 </v>
   <v>       0.06324095      -0.00819661       0.03005276 </v>
   <v>      -0.01634800       0.00248709       0.00415757 </v>
   <v>      -0.01889242      -0.01178247       0.02244326 </v>
   <v>      -0.00094582       0.00348797       0.00566200 </v>
   <v>       0.00103517       0.00547490      -0.03611709 </v>
   <v>      -0.00572494       0.03188834      -0.00355490 </v>
   <v>      -0.00470297      -0.02880884       0.02681815 </v>
   <v>       0.00807258      -0.01560165       0.01765049 </v>
   <v>       0.00687233      -0.00996278       0.01119846 </v>
   <v>       0.00170853      -0.02678245       0.00609488 </v>
   <v>      -0.00928817      -0.00538920       0.01600235 </v>
   <v>       0.00425096      -0.03114933       0.02924562 </v>
   <v>      -0.00206539      -0.01094507       0.00477987 </v>
   <v>       0.00043071      -0.01342858       0.03154913 </v>
   <v>      -0.00613561       0.00317623      -0.06484854 </v>
   <v>       0.01198632      -0.01657507      -0.08921539 </v>
   <v>       0.06216075      -0.05926499       0.03131278 </v>
   <v>       0.00428187       0.02525139      -0.00583149 </v>
   <v>      -0.00589865       0.00296266      -0.00021635 </v>
   <v>       0.01095327       0.01352469       0.00959341 </v>
   <v>      -0.04020785      -0.09612738      -0.00247418 </v>
   <v>       0.00599332      -0.02585433       0.00383426 </v>
   <v>       0.01470926       0.00441563      -0.00566252 </v>
   <v>       0.01251086       0.01877321       0.01205268 </v>
   <v>       0.00896368       0.01130448      -0.00403620 </v>
   <v>       0.02773559      -0.01337980      -0.02508531 </v>
   <v>      -0.01338313       0.01487639      -0.02051937 </v>
   <v>      -0.00257563      -0.01118914       0.00643565 </v>
   <v>       0.02096425      -0.00039654      -0.00959735 </v>
   <v>      -0.01930344      -0.04241653      -0.00397913 </v>
   <v>      -0.01180974      -0.00313385      -0.01708784 </v>
   <v>       0.00279451       0.00441974       0.05052885 </v>
   <v>       0.01108620      -0.00198244      -0.01724061 </v>
   <v>       0.01067270      -0.01658206       0.05123423 </v>
   <v>       0.00731714      -0.00103395       0.00142014 </v>
   <v>      -0.01347750      -0.00713332      -0.02624324 </v>
   <v>       0.00359892       0.00425082      -0.03105363 </v>
   <v>       0.00076748      -0.00201218       0.00244052 </v>
   <v>      -0.01639694      -0.00358414      -0.00168653 </v>
   <v>      -0.00354123      -0.01661403      -0.02905421 </v>
   <v>      -0.01136761      -0.01574922      -0.00808294 </v>
   <v>      -0.00577570       0.00586699       0.01443058 </v>
   <v>       0.00194198      -0.00423810      -0.05604421 </v>
   <v>      -0.00513465      -0.02512571      -0.01721738 </v>
   <v>      -0.00089520      -0.00139906       0.03382015 </v>
   <v>      -0.00457095      -0.00187446       0.00094406 </v>
   <v>      -0.02139374      -0.01464261       0.03006646 </v>
   <v>       0.00805462       0.00845635       0.00167647 </v>
   <v>       0.00529602       0.01279987       0.00670572 </v>
   <v>       0.00284204      -0.00492639       0.04377894 </v>
   <v>       0.01372004      -0.02057323      -0.00454361 </v>
   <v>       0.01328212      -0.00265009      -0.00164207 </v>
   <v>      -0.00268133      -0.00346100      -0.02511542 </v>
   <v>       0.00485759       0.00827272      -0.02787763 </v>
   <v>      -0.00489421       0.00676102      -0.01908916 </v>
   <v>      -0.01828191      -0.00403212      -0.00949373 </v>
   <v>       0.00130223       0.00510011       0.04480665 </v>
   <v>      -0.01705347       0.06084636       0.00159169 </v>
   <v>      -0.00980127       0.00396423       0.07301527 </v>
   <v>      -0.01176824       0.01842250      -0.01861717 </v>
   <v>      -0.01425037      -0.06024489      -0.00235099 </v>
   <v>       0.00014169       0.01071614      -0.00245742 </v>
   <v>      -0.00375444       0.01473037       0.01038746 </v>
   <v>      -0.01740918      -0.02090439      -0.00101329 </v>
   <v>      -0.00102839       0.01105585      -0.00029197 </v>
   <v>      -0.05189510      -0.08176139       0.03587088 </v>
   <v>      -0.00730606       0.07741902      -0.00181096 </v>
   <v>      -0.02651122      -0.00057505      -0.01272792 </v>
   <v>       0.00121192      -0.00457061       0.00090934 </v>
   <v>      -0.00309388      -0.03283031       0.00335653 </v>
   <v>      -0.07364882       0.00075259      -0.00887409 </v>
   <v>      -0.00913844       0.00108258       0.03533299 </v>
   <v>       0.00543702       0.02700148      -0.00433002 </v>
   <v>       0.01951674       0.02180665       0.02136031 </v>
   <v>       0.01232537       0.01171548       0.01959380 </v>
   <v>      -0.00812427       0.01185059       0.00014233 </v>
   <v>       0.00328932      -0.00990499       0.04957224 </v>
   <v>       0.00121593      -0.01257065      -0.01984579 </v>
   <v>       0.00501347       0.00108703       0.00705067 </v>
   <v>      -0.01653822      -0.01160940      -0.00441950 </v>
   <v>      -0.01610790      -0.00762580      -0.01716774 </v>
   <v>       0.01883487       0.00012138      -0.01046788 </v>
   <v>      -0.00170555       0.00376417       0.03032786 </v>
   <v>       0.00977135      -0.00807167       0.07724566 </v>
   <v>       0.00123044      -0.00450829      -0.04950780 </v>
   <v>      -0.00106218      -0.02645923       0.01341101 </v>
   <v>      -0.01103286      -0.00051484       0.05348453 </v>
   <v>      -0.01526119      -0.00707688      -0.01746754 </v>
   <v>       0.01530906       0.02804533       0.03388018 </v>
   <v>      -0.01136322       0.01276072       0.01278694 </v>
   <v>      -0.00725021       0.00823695      -0.00673789 </v>
   <v>      -0.00395364      -0.00447125       0.05552903 </v>
   <v>      -0.00590034       0.01377996       0.03255410 </v>
   <v>      -0.01792572      -0.01761995      -0.00998854 </v>
   <v>      -0.00021489      -0.00781427       0.00705521 </v>
   <v>      -0.01688915      -0.04084429       0.02113974 </v>
   <v>       0.01316078       0.00367407       0.00159676 </v>
   <v>       0.00348312       0.01742481       0.00170215 </v>
   <v>      -0.01477069      -0.01167635       0.01417094 </v>
   <v>      -0.00407198       0.01665392       0.01239756 </v>
   <v>      -0.00072761       0.00888565       0.03806244 </v>
   <v>       0.01358354       0.01221450      -0.00699338 </v>
   <v>       0.00517745      -0.00800250      -0.00992579 </v>
   <v>       0.00380171       0.01237581       0.03149346 </v>
   <v>      -0.01653217      -0.00586418       0.05102242 </v>
   <v>      -0.00723800       0.02623761      -0.00918835 </v>
   <v>      -0.00268981      -0.01487983       0.00378786 </v>
   <v>      -0.00201953       0.01004354       0.02190635 </v>
   <v>      -0.03706837       0.05106712      -0.01203853 </v>
   <v>      -0.04891013       0.07279047      -0.02536454 </v>
   <v>      -0.01168571      -0.00773641      -0.02492245 </v>
   <v>       0.01123333       0.00206895      -0.06196704 </v>
   <v>      -0.00775790       0.01564464       0.00572941 </v>
   <v>       0.02824318      -0.00942660       0.00521592 </v>
   <v>       0.00816497       0.00589923       0.00840911 </v>
   <v>      -0.00257631      -0.00203179      -0.00254367 </v>
   <v>       0.00570519       0.01840035      -0.01053636 </v>
   <v>       0.00948171      -0.01259000       0.01706515 </v>
   <v>      -0.00060282       0.00199645      -0.04739508 </v>
   <v>       0.01224170       0.00474662       0.00096718 </v>
   <v>       0.00864829       0.03476656       0.00105541 </v>
   <v>      -0.00138440      -0.00251497       0.01923533 </v>
   <v>       0.00317552      -0.00610766      -0.01748644 </v>
   <v>       0.00537266       0.00468316       0.00555102 </v>
   <v>      -0.01565074      -0.00227025      -0.00868408 </v>
   <v>       0.02207942      -0.00277532       0.01876230 </v>
   <v>      -0.05392263       0.05132694       0.00085341 </v>
   <v>      -0.01138335      -0.01859742      -0.01516633 </v>
   <v>       0.02561447       0.00304847       0.02421261 </v>
   <v>      -0.01202695      -0.04798954       0.01614790 </v>
   <v>      -0.00638947       0.01226702      -0.00292756 </v>
   <v>       0.00950600       0.03935055      -0.00468304 </v>
   <v>      -0.01898494      -0.00011497       0.05333328 </v>
   <v>      -0.01452980      -0.00756761      -0.01443715 </v>
   <v>       0.01715193       0.01422256      -0.00614677 </v>
   <v>       0.00766662       0.00192010      -0.03050675 </v>
   <v>       0.00916788       0.00239471       0.04410803 </v>
   <v>      -0.01759662      -0.00302000       0.00559786 </v>
   <v>      -0.02828319      -0.04030730       0.02836620 </v>
   <v>       0.01340057      -0.01930657      -0.02209627 </v>
  </varray>
  <varray name="stress" >
   <v>      -5.56614522       0.00065373       0.06560848 </v>
   <v>       0.00065336      -2.12969759      -4.82281427 </v>
   <v>       0.06560882      -4.82281421     -19.18854644 </v>
  </varray>
  <energy>
   <i name="e_fr_energy">  -2325.96714475 </i>
   <i name="e_wo_entrp">  -2323.18489989 </i>
   <i name="e_0_energy">     -5.56448972 </i>
  </energy>
  <time name="totalsc"> 2476.47 2476.45</time>
 </calculation>
