unknown system                          
            1
     9.726678    0.000000    0.000000
     0.000000    8.423550    0.000000
     0.000000    0.000000   45.000000
   Fe   Mn
 273  15
Direct configuration=     1
   0.06261802  0.20139061  0.34504526
   0.93832203  0.29899536  0.87539056
   0.68748928  0.45493388  0.47854148
   0.18758208  0.45452471  0.47847220
   0.43744812  0.45205725  0.34518725
   0.43771170  0.61285865  0.16730223
   0.31250764  0.54679130  0.74367605
   0.06207993  0.37008582  0.43431000
   0.56198721  0.02824593  0.12484171
   0.68699445  0.96414948  0.83310545
   0.56323372  0.54935885  0.87506330
   0.18747053  0.12283024  0.52152849
   0.93756459  0.28093643  0.25629068
   0.93740093  0.29230795  0.61066898
   0.43774584  0.29198230  0.61056437
   0.18814190  0.96180303  0.69942024
   0.43735447  0.28612364  0.38931701
   0.68728176  0.27807196  0.12503301
   0.31246047  0.37299421  0.52144037
   0.06269632  0.36590269  0.30043666
   0.43725472  0.27752326  0.12492924
   0.81381089  0.04971592  0.87516304
   0.43732627  0.77824660  0.12510567
   0.43669720  0.29671466  0.74377887
   0.81255334  0.54258726  0.61057733
   0.81270827  0.03081196  0.25619461
   0.68752883  0.79279203  0.61057051
   0.06155848  0.02802191  0.12504042
   0.43790003  0.79259912  0.61059421
   0.56256376  0.54270281  0.61065561
   0.93692930  0.12272212  0.52146116
   0.93764830  0.29714329  0.74389552
   0.18699705  0.45745040  0.56558792
   0.93753422  0.45171447  0.34517414
   0.06216520  0.87558280  0.65475128
   0.68764395  0.29245642  0.61050974
   0.06279886  0.53077317  0.25623805
   0.31259933  0.02812921  0.12483405
   0.93729294  0.44541477  0.21197960
   0.43752806  0.28045216  0.25630200
   0.56176982  0.87628378  0.65460241
   0.56292469  0.38191048  0.78816986
   0.68759919  0.13200700  0.78804726
   0.43845912  0.13305773  0.78810161
   0.06219626  0.86999407  0.43419668
   0.56269508  0.36259930  0.16718410
   0.18759168  0.28058500  0.25624693
   0.93728222  0.94550583  0.21199359
   0.93810435  0.46176934  0.69940128
   0.81234372  0.52793728  0.12495610
   0.56206888  0.86583239  0.30043431
   0.31302728  0.04949889  0.87527244
   0.93698523  0.95756517  0.56551352
   0.93742512  0.95517360  0.47835924
   0.06288607  0.54941802  0.87517021
   0.81281756  0.04271843  0.61059810
   0.31268371  0.70783851  0.56559285
   0.93780337  0.78097986  0.25623319
   0.68727992  0.62013048  0.43437458
   0.56277851  0.04978369  0.87541026
   0.81225959  0.19558709  0.21189884
   0.56244995  0.53057779  0.25623013
   0.31255192  0.70202986  0.34502224
   0.06311562  0.38307689  0.78802353
   0.18730739  0.12004907  0.43435374
   0.93743353  0.61990401  0.43429482
   0.81251244  0.70153137  0.34509942
   0.68712252  0.12636199  0.65482166
   0.43735341  0.78602806  0.38930222
   0.18733333  0.62012996  0.43455856
   0.18788610  0.29980531  0.87524557
   0.06210986  0.37619275  0.65480605
   0.68732414  0.11984582  0.43431795
   0.81187232  0.54656701  0.74364128
   0.18667475  0.62593449  0.65472260
   0.06310886  0.71170627  0.69944758
   0.18730361  0.44527693  0.21201937
   0.31244167  0.04769476  0.74374975
   0.81253238  0.03563834  0.38927331
   0.93768683  0.11594146  0.30044556
   0.06243703  0.54732567  0.74380250
   0.43740585  0.95167274  0.34510172
   0.18733653  0.11590955  0.30048265
   0.31193504  0.87287962  0.52141221
   0.31253457  0.53027083  0.25623811
   0.56241189  0.20141677  0.34506867
   0.93759814  0.11269242  0.16715997
   0.06261370  0.36344721  0.16720809
   0.56228511  0.04646026  0.74359724
   0.93785635  0.79214092  0.61047101
   0.43780420  0.46151900  0.69926640
   0.93711275  0.62277865  0.52148867
   0.18762890  0.95151382  0.34512682
   0.93745583  0.28545137  0.38933447
   0.56226845  0.54686099  0.74372285
   0.81194110  0.70746043  0.56546999
   0.68767066  0.46211530  0.69936012
   0.81276494  0.71223516  0.69945446
   0.06211401  0.70746631  0.56557360
   0.06305107  0.88224469  0.78805678
   0.31279059  0.55015189  0.87504341
   0.31237633  0.04248393  0.61057977
   0.81222178  0.69519658  0.21201316
   0.93754478  0.11979385  0.43434360
   0.68755557  0.78558578  0.38928531
   0.93743874  0.78554026  0.38924909
   0.56216380  0.36599224  0.30045807
   0.31277843  0.38202525  0.78800310
   0.56226700  0.53596134  0.38932744
   0.18784813  0.96433492  0.83296666
   0.06230361  0.19542303  0.21193964
   0.93712830  0.79695586  0.74369102
   0.31274313  0.54203955  0.61067279
   0.56279595  0.86999086  0.43429869
   0.56241601  0.20783604  0.56560293
   0.31202869  0.52821933  0.12505494
   0.18763503  0.78044772  0.25626870
   0.06219460  0.71397727  0.83301494
   0.43748466  0.95568820  0.47843641
   0.31253378  0.20504674  0.47837734
   0.56245078  0.03041105  0.25620833
   0.93731989  0.79934881  0.87517409
   0.06268513  0.53573543  0.38932895
   0.06239796  0.04190084  0.61059350
   0.56282084  0.04248309  0.61055029
   0.68796837  0.61283636  0.16716223
   0.31225925  0.87022450  0.43419987
   0.68732789  0.95154831  0.34517778
   0.43728830  0.94506603  0.21212521
   0.18788365  0.11320213  0.16721010
   0.43737393  0.61553331  0.30041042
   0.93783980  0.46481794  0.83310856
   0.06203881  0.37261849  0.52158018
   0.68747223  0.30051312  0.87502951
   0.56221722  0.37646645  0.65488630
   0.31239612  0.03619847  0.38936900
   0.81267656  0.86271586  0.16712964
   0.18668367  0.12589525  0.65487500
   0.68742361  0.61586339  0.30045372
   0.18731952  0.94562070  0.21209322
   0.31223685  0.36576395  0.30048323
   0.68723624  0.62297072  0.52145828
   0.56269298  0.37264497  0.52151499
   0.56261103  0.87288450  0.52142081
   0.68769763  0.28085973  0.25624675
   0.31256308  0.20173245  0.34513295
   0.06258133  0.87290218  0.52155462
   0.81305206  0.55027678  0.87514513
   0.31276194  0.70497331  0.47842682
   0.81241685  0.36591879  0.30044271
   0.18630309  0.46463487  0.83303712
   0.06262548  0.03046825  0.25618137
   0.43752067  0.12002840  0.43433842
   0.93769184  0.61286054  0.16722615
   0.56249414  0.71563533  0.83298521
   0.93736371  0.96549380  0.83315941
   0.56221937  0.69522456  0.21190879
   0.43724357  0.44529376  0.21202991
   0.81259766  0.87292053  0.52141582
   0.81235652  0.71459453  0.83305068
   0.56245655  0.19553748  0.21201654
   0.18728101  0.95513520  0.47836803
   0.81243512  0.86972489  0.43434808
   0.18862746  0.79970203  0.87512570
   0.06203364  0.70532724  0.47856991
   0.68752369  0.11327316  0.16718777
   0.81266683  0.53142333  0.25625016
   0.18855234  0.13228442  0.78795591
   0.06261196  0.20516267  0.47855637
   0.68706845  0.94565694  0.21203768
   0.18777799  0.29151662  0.61068415
   0.56207595  0.86326696  0.16718585
   0.56303282  0.88296014  0.78811645
   0.93812248  0.96224807  0.69938286
   0.06216237  0.04787820  0.74376608
   0.31209690  0.69532601  0.21195662
   0.18758332  0.79194817  0.61051602
   0.81222943  0.20528394  0.47843495
   0.56254469  0.21194344  0.69950835
   0.56243326  0.70811435  0.56555896
   0.18794746  0.46201627  0.69939951
   0.18741702  0.27817293  0.12506781
   0.06227884  0.03618000  0.38937430
   0.81243551  0.37007245  0.43431747
   0.43779265  0.96133172  0.69946610
   0.18749052  0.28620870  0.38934396
   0.06244348  0.69511188  0.21195141
   0.31267491  0.71144375  0.69941497
   0.93692629  0.62637063  0.65472366
   0.18753601  0.45210650  0.34514132
   0.68754854  0.80067072  0.87530659
   0.31209028  0.87612637  0.65475763
   0.18688749  0.95726622  0.56552510
   0.56255443  0.03627346  0.38937011
   0.31281302  0.71544880  0.83308983
   0.43732472  0.11590045  0.30051178
   0.31278763  0.88331672  0.78800062
   0.68755540  0.45779123  0.56559363
   0.56240883  0.71223491  0.69940663
   0.06292498  0.21234547  0.69944866
   0.56247453  0.37030276  0.43442618
   0.43769775  0.61995607  0.43422360
   0.81244740  0.53537421  0.38937566
   0.43690245  0.79687905  0.74374234
   0.81192520  0.20787248  0.56563908
   0.68743198  0.12299427  0.52140968
   0.06239619  0.52782253  0.12497329
   0.18721977  0.61310745  0.16722663
   0.43747873  0.45505002  0.47846674
   0.81249853  0.04693806  0.74380216
   0.18734559  0.61545164  0.30041042
   0.31318636  0.21436810  0.83283847
   0.18751452  0.78579227  0.38930267
   0.81264878  0.70500325  0.47844033
   0.43804196  0.12282344  0.52147518
   0.18690155  0.29761228  0.74385047
   0.68842078  0.63239093  0.78801421
   0.56195438  0.21494107  0.83293886
   0.56233263  0.70481693  0.47844480
   0.31276473  0.20792728  0.56560742
   0.81323412  0.38126917  0.78794167
   0.93812664  0.13211986  0.78810028
   0.31265235  0.03054365  0.25624389
   0.06285568  0.70147227  0.34511384
   0.68783944  0.95742084  0.56545761
   0.81200051  0.37696029  0.65491099
   0.31231567  0.53627474  0.38930357
   0.18687420  0.79714401  0.74377487
   0.43680477  0.62614924  0.65476831
   0.06249955  0.54210418  0.61053742
   0.68735535  0.77747092  0.12510657
   0.56260177  0.52828689  0.12506702
   0.06215555  0.04990953  0.87512931
   0.81267621  0.21474966  0.83297478
   0.93740428  0.27812739  0.12506555
   0.68733747  0.62688070  0.65479722
   0.56243378  0.20532085  0.47840259
   0.93782283  0.95153090  0.34514587
   0.68750776  0.28556269  0.38930270
   0.81292490  0.02803662  0.12502976
   0.18734550  0.77741446  0.12511654
   0.93704751  0.12611461  0.65484705
   0.06261496  0.86588153  0.30043699
   0.93733697  0.45524582  0.47846580
   0.43747719  0.78034115  0.25627914
   0.31313066  0.86339504  0.16712906
   0.43790854  0.46564050  0.83287278
   0.68758260  0.45162428  0.34510157
   0.93754977  0.45759097  0.56565955
   0.56230851  0.70154512  0.34511219
   0.31290568  0.21218558  0.69952755
   0.93725064  0.77785033  0.12504062
   0.43710235  0.45834830  0.56559981
   0.81298015  0.88253773  0.78820262
   0.68713800  0.44536816  0.21200210
   0.93743649  0.61592167  0.30043749
   0.43765213  0.62287736  0.52162295
   0.81253198  0.37246262  0.52152612
   0.81233562  0.87611166  0.65473230
   0.43843216  0.29967240  0.87500944
   0.06269550  0.86278783  0.16713038
   0.68757955  0.95568774  0.47832903
   0.43790603  0.63298164  0.78795510
   0.68692456  0.29666998  0.74376811
   0.31249111  0.36263805  0.16717592
   0.68758672  0.46504751  0.83310184
   0.43849872  0.80086695  0.87551965
   0.68753383  0.78095890  0.25624197
   0.81272763  0.36323714  0.16722646
   0.68721257  0.11599737  0.30043621
   0.31197383  0.19542815  0.21210798
   0.31231701  0.86567207  0.30049637
   0.31207250  0.37582140  0.65488165
   0.93657737  0.63232418  0.78778234
   0.18777115  0.62317067  0.52135758
   0.43699352  0.12574773  0.65474892
   0.19001513  0.63299053  0.78778003
   0.06216377  0.21547947  0.83364048
   0.81266722  0.20113955  0.34507730
   0.43752502  0.11300380  0.16650134
   0.43736752  0.95752741  0.56544310
   0.68671385  0.79605987  0.74411720
   0.81298279  0.21263674  0.69955100
   0.31252732  0.36984789  0.43425076
   0.06234908  0.20786937  0.56550781
   0.81250408  0.86635704  0.30050049
   0.43736540  0.96440778  0.83386098
   0.68790727  0.96211444  0.69931643
Direct configuration=     2
   0.06260110  0.20133541  0.34506173
   0.93830104  0.29892713  0.87538192
   0.68749858  0.45499569  0.47852624
   0.18750739  0.45459048  0.47846004
   0.43746170  0.45196575  0.34519917
   0.43769938  0.61279081  0.16730875
   0.31248765  0.54678160  0.74367797
   0.06207940  0.37015847  0.43431324
   0.56197660  0.02831036  0.12484753
   0.68704882  0.96421527  0.83308489
   0.56323064  0.54929421  0.87506069
   0.18752817  0.12281701  0.52153581
   0.93752742  0.28094445  0.25629516
   0.93740131  0.29229267  0.61065470
   0.43768340  0.29197952  0.61054835
   0.18806050  0.96183111  0.69939293
   0.43737562  0.28610964  0.38932772
   0.68727552  0.27812061  0.12503207
   0.31253476  0.37290810  0.52145707
   0.06267431  0.36589559  0.30045755
   0.43728495  0.27759128  0.12491735
   0.81379067  0.04965011  0.87516451
   0.43732984  0.77834879  0.12509721
   0.43677479  0.29670906  0.74377377
   0.81254379  0.54258768  0.61056042
   0.81268309  0.03083101  0.25620216
   0.68751458  0.79274633  0.61054979
   0.06159883  0.02811038  0.12504512
   0.43782254  0.79256301  0.61057925
   0.56252732  0.54267318  0.61063816
   0.93696389  0.12275562  0.52146106
   0.93769672  0.29709845  0.74389107
   0.18702289  0.45743227  0.56559134
   0.93752928  0.45163407  0.34518871
   0.06220365  0.87565200  0.65473934
   0.68762011  0.29245407  0.61049810
   0.06274312  0.53079398  0.25624748
   0.31262457  0.02820261  0.12483922
   0.93730630  0.44551527  0.21198727
   0.43753186  0.28046520  0.25630486
   0.56179647  0.87632930  0.65459490
   0.56289932  0.38184003  0.78816521
   0.68758493  0.13191438  0.78804780
   0.43836304  0.13296705  0.78809668
   0.06217867  0.87004976  0.43420270
   0.56269746  0.36248674  0.16719782
   0.18757647  0.28060649  0.25625428
   0.93728798  0.94557817  0.21199711
   0.93803525  0.46177715  0.69937872
   0.81236096  0.52803669  0.12496266
   0.56209856  0.86582817  0.30045687
   0.31305339  0.04945134  0.87527005
   0.93702173  0.95753214  0.56551658
   0.93746495  0.95505448  0.47835735
   0.06287698  0.54933385  0.87517644
   0.81280193  0.04268632  0.61058139
   0.31267853  0.70780975  0.56560298
   0.93775296  0.78097180  0.25623606
   0.68728408  0.62016986  0.43437717
   0.56272457  0.04973195  0.87540210
   0.81226176  0.19569129  0.21191341
   0.56246816  0.53061214  0.25623705
   0.31254450  0.70194638  0.34504081
   0.06310715  0.38298401  0.78801319
   0.18730702  0.12008998  0.43434609
   0.93743900  0.61996304  0.43429322
   0.81250444  0.70148115  0.34511539
   0.68721112  0.12645607  0.65481120
   0.43735383  0.78600797  0.38931992
   0.18731391  0.62017456  0.43455939
   0.18783544  0.29974179  0.87523847
   0.06213952  0.37625948  0.65478732
   0.68733112  0.11991301  0.43431153
   0.81196300  0.54655818  0.74363886
   0.18674334  0.62599417  0.65471173
   0.06307695  0.71172614  0.69943083
   0.18732056  0.44535462  0.21202903
   0.31247699  0.04764062  0.74374646
   0.81252058  0.03565037  0.38929291
   0.93767107  0.11593793  0.30046655
   0.06245598  0.54729285  0.74379839
   0.43744276  0.95161627  0.34512061
   0.18733071  0.11592428  0.30050196
   0.31206032  0.87304023  0.52140897
   0.31253729  0.53034140  0.25624353
   0.56242572  0.20136181  0.34508447
   0.93758461  0.11261975  0.16717058
   0.06257705  0.36334967  0.16722343
   0.56232470  0.04647269  0.74360043
   0.93783327  0.79212651  0.61046294
   0.43775386  0.46153899  0.69924893
   0.93709394  0.62267861  0.52150019
   0.18759157  0.95147250  0.34514140
   0.93746080  0.28548325  0.38935116
   0.56227718  0.54686017  0.74372825
   0.81194083  0.70741678  0.56547716
   0.68761972  0.46210474  0.69934487
   0.81276318  0.71221802  0.69943738
   0.06214352  0.70743860  0.56558262
   0.06303965  0.88219378  0.78805631
   0.31275460  0.55007281  0.87504618
   0.31233762  0.04244712  0.61056934
   0.81224550  0.69533554  0.21202479
   0.93753040  0.11986566  0.43434236
   0.68754699  0.78558462  0.38930561
   0.93743930  0.78553578  0.38927026
   0.56219644  0.36598584  0.30047867
   0.31272253  0.38196089  0.78800819
   0.56226833  0.53594445  0.38934264
   0.18785323  0.96447413  0.83294170
   0.06231003  0.19551127  0.21195299
   0.93719284  0.79692379  0.74369543
   0.31270113  0.54207035  0.61065564
   0.56281440  0.87002607  0.43430652
   0.56240091  0.20780355  0.56559683
   0.31202965  0.52829386  0.12505877
   0.18762358  0.78048569  0.25626874
   0.06223752  0.71408430  0.83299298
   0.43747989  0.95538757  0.47844315
   0.31246971  0.20502471  0.47838287
   0.56243710  0.03045450  0.25621627
   0.93728350  0.79928649  0.87517345
   0.06268671  0.53575021  0.38934164
   0.06241918  0.04188634  0.61057905
   0.56277806  0.04246703  0.61052520
   0.68797718  0.61281112  0.16717268
   0.31227215  0.87025646  0.43420192
   0.68733322  0.95151038  0.34518922
   0.43730321  0.94512743  0.21212854
   0.18784147  0.11314225  0.16721943
   0.43740393  0.61554603  0.30043177
   0.93786398  0.46488240  0.83308171
   0.06201508  0.37273026  0.52157727
   0.68745490  0.30042502  0.87502486
   0.56225809  0.37649417  0.65487156
   0.31240523  0.03618645  0.38937963
   0.81266072  0.86265497  0.16714566
   0.18671567  0.12601008  0.65486115
   0.68742019  0.61587304  0.30047226
   0.18733937  0.94567165  0.21209407
   0.31226218  0.36576710  0.30050633
   0.68728161  0.62296356  0.52145729
   0.56257010  0.37265650  0.52152286
   0.56257417  0.87293467  0.52141398
   0.68769101  0.28087991  0.25625475
   0.31255848  0.20166814  0.34514674
   0.06254144  0.87308956  0.52155488
   0.81301733  0.55020545  0.87515398
   0.31281020  0.70499138  0.47840942
   0.81241050  0.36589862  0.30046194
   0.18635052  0.46471233  0.83301281
   0.06260438  0.03049462  0.25618951
   0.43754673  0.12008651  0.43432410
   0.93765971  0.61284487  0.16723843
   0.56254615  0.71566708  0.83296233
   0.93740388  0.96560806  0.83312865
   0.56223458  0.69533256  0.21191925
   0.43726596  0.44535768  0.21203430
   0.81254566  0.87298883  0.52141459
   0.81237455  0.71465762  0.83303046
   0.56248768  0.19563761  0.21203130
   0.18724234  0.95501638  0.47836806
   0.81243280  0.86975921  0.43435061
   0.18863903  0.79961758  0.87512852
   0.06209286  0.70527841  0.47854990
   0.68751206  0.11319511  0.16718981
   0.81263915  0.53141945  0.25625793
   0.18854557  0.13218255  0.78796016
   0.06255754  0.20514411  0.47854214
   0.68709424  0.94570423  0.21203957
   0.18775984  0.29154266  0.61067402
   0.56208219  0.86317879  0.16719841
   0.56304069  0.88284346  0.78811085
   0.93807940  0.96225781  0.69936223
   0.06217604  0.04783397  0.74375948
   0.31212571  0.69542654  0.21196915
   0.18757603  0.79191885  0.61050616
   0.81228739  0.20527700  0.47842204
   0.56251760  0.21193666  0.69949275
   0.56244058  0.70807486  0.56555718
   0.18791024  0.46203049  0.69937465
   0.18743948  0.27819780  0.12506119
   0.06228253  0.03615653  0.38938970
   0.81242519  0.37011755  0.43431640
   0.43775023  0.96138260  0.69944694
   0.18748539  0.28620014  0.38935417
   0.06244282  0.69524439  0.21196133
   0.31265303  0.71144147  0.69939779
   0.93700272  0.62639132  0.65470562
   0.18752843  0.45201963  0.34515734
   0.68751043  0.80056770  0.87529831
   0.31211967  0.87616775  0.65474478
   0.18690457  0.95722236  0.56552951
   0.56256324  0.03625432  0.38938329
   0.31280658  0.71550650  0.83306842
   0.43735643  0.11591872  0.30052589
   0.31274380  0.88320356  0.78799387
   0.68757847  0.45778518  0.56559805
   0.56241079  0.71224013  0.69939395
   0.06291993  0.21232610  0.69942523
   0.56248895  0.37036133  0.43442091
   0.43771442  0.62001328  0.43422683
   0.81244771  0.53536829  0.38938748
   0.43693822  0.79687963  0.74374411
   0.81193550  0.20782605  0.56563652
   0.68741748  0.12297609  0.52142231
   0.06237916  0.52792816  0.12498105
   0.18718214  0.61303749  0.16723814
   0.43747616  0.45511663  0.47846552
   0.81251215  0.04691173  0.74379891
   0.18734055  0.61547054  0.30043149
   0.31320767  0.21443532  0.83282919
   0.18751733  0.78579130  0.38931755
   0.81255629  0.70503996  0.47842370
   0.43793096  0.12294949  0.52149163
   0.18694814  0.29757006  0.74384850
   0.68835167  0.63229770  0.78801049
   0.56196179  0.21499036  0.83292854
   0.56230455  0.70487474  0.47843587
   0.31275926  0.20787088  0.56559711
   0.81322832  0.38123192  0.78794357
   0.93806687  0.13202227  0.78810366
   0.31265163  0.03059317  0.25625290
   0.06283326  0.70142966  0.34512735
   0.68785738  0.95735789  0.56545562
   0.81204187  0.37699441  0.65489125
   0.31232103  0.53626313  0.38931598
   0.18694143  0.79709530  0.74377521
   0.43683703  0.62619498  0.65475150
   0.06251091  0.54210218  0.61052683
   0.68736992  0.77754528  0.12509973
   0.56263345  0.52836008  0.12507202
   0.06214695  0.04986488  0.87514528
   0.81270832  0.21477550  0.83296010
   0.93739616  0.27818087  0.12506233
   0.68737511  0.62690162  0.65477962
   0.56249095  0.20528735  0.47839284
   0.93779080  0.95149092  0.34516228
   0.68749244  0.28557797  0.38931761
   0.81292777  0.02812153  0.12503730
   0.18735474  0.77749286  0.12510770
   0.93708651  0.12618366  0.65483261
   0.06261567  0.86587939  0.30045803
   0.93738418  0.45519501  0.47846411
   0.43748186  0.78038158  0.25628023
   0.31311356  0.86328533  0.16714717
   0.43792448  0.46565122  0.83285749
   0.68756361  0.45155159  0.34512042
   0.93755609  0.45758737  0.56565600
   0.56231542  0.70148729  0.34512480
   0.31290552  0.21218980  0.69949941
   0.93726795  0.77794730  0.12503216
   0.43709431  0.45830255  0.56559615
   0.81293678  0.88246478  0.78819527
   0.68715861  0.44547567  0.21201077
   0.93743401  0.61591380  0.30045937
   0.43769987  0.62287179  0.52162378
   0.81258860  0.37255268  0.52153003
   0.81236108  0.87618073  0.65471576
   0.43844025  0.29957280  0.87499894
   0.06264682  0.86270532  0.16714827
   0.68757842  0.95548510  0.47833261
   0.43787316  0.63287236  0.78795715
   0.68698744  0.29665843  0.74376291
   0.31247787  0.36252297  0.16719245
   0.68762306  0.46508627  0.83308036
   0.43848573  0.80080320  0.87551045
   0.68752984  0.78096436  0.25624356
   0.81271010  0.36315636  0.16724247
   0.68722944  0.11598687  0.30046173
   0.31199210  0.19553208  0.21211355
   0.31233747  0.86567455  0.30051494
   0.31207551  0.37592208  0.65486720
   0.93658447  0.63225496  0.78778776
   0.18769436  0.62308407  0.52135894
   0.43704796  0.12583211  0.65473711
   0.18990249  0.63287231  0.78777783
   0.06219617  0.21549661  0.83361960
   0.81263809  0.20107926  0.34509493
   0.43752327  0.11292222  0.16652361
   0.43734999  0.95749626  0.56544873
   0.68684649  0.79606590  0.74411045
   0.81294258  0.21264918  0.69951974
   0.31253146  0.36990455  0.43424504
   0.06237653  0.20782312  0.56551264
   0.81248703  0.86636045  0.30051564
   0.43737965  0.96450783  0.83383731
   0.68778680  0.96209975  0.69930516
Direct configuration=     3
   0.06255035  0.20116980  0.34511116
   0.93823808  0.29872244  0.87535600
   0.68752648  0.45518111  0.47848052
   0.18728332  0.45478776  0.47842357
   0.43750243  0.45169125  0.34523491
   0.43766244  0.61258727  0.16732830
   0.31242767  0.54675251  0.74368372
   0.06207784  0.37037641  0.43432298
   0.56194477  0.02850365  0.12486500
   0.68721191  0.96441262  0.83302320
   0.56322138  0.54910030  0.87505285
   0.18770109  0.12277730  0.52155776
   0.93741589  0.28096852  0.25630861
   0.93740244  0.29224684  0.61061187
   0.43749607  0.29197119  0.61050028
   0.18781632  0.96191534  0.69931100
   0.43743908  0.28606761  0.38935986
   0.68725678  0.27826657  0.12502924
   0.31275764  0.37264975  0.52150720
   0.06260830  0.36587427  0.30052021
   0.43737563  0.27779534  0.12488169
   0.81373004  0.04945267  0.87516892
   0.43734054  0.77865536  0.12507183
   0.43700758  0.29669225  0.74375849
   0.81251511  0.54258894  0.61050970
   0.81260756  0.03088815  0.25622482
   0.68747185  0.79260925  0.61048762
   0.06171986  0.02837577  0.12505923
   0.43759010  0.79245471  0.61053435
   0.56241802  0.54258429  0.61058582
   0.93706765  0.12285614  0.52146077
   0.93784197  0.29696391  0.74387771
   0.18710039  0.45737788  0.56560162
   0.93751444  0.45139286  0.34523240
   0.06231899  0.87585960  0.65470351
   0.68754858  0.29244701  0.61046317
   0.06257590  0.53085641  0.25627577
   0.31270028  0.02842284  0.12485474
   0.93734641  0.44581678  0.21201028
   0.43754324  0.28050434  0.25631344
   0.56187642  0.87646583  0.65457239
   0.56282321  0.38162868  0.78815125
   0.68754215  0.13163653  0.78804944
   0.43807478  0.13269499  0.78808188
   0.06212589  0.87021683  0.43422078
   0.56270460  0.36214909  0.16723896
   0.18753083  0.28067094  0.25627634
   0.93730526  0.94579516  0.21200768
   0.93782794  0.46180057  0.69931102
   0.81241267  0.52833494  0.12498235
   0.56218759  0.86581553  0.30052454
   0.31313172  0.04930867  0.87526289
   0.93713121  0.95743306  0.56552576
   0.93758442  0.95469711  0.47835169
   0.06284970  0.54908136  0.87519514
   0.81275507  0.04259000  0.61053126
   0.31266300  0.70772346  0.56563335
   0.93760171  0.78094764  0.25624465
   0.68729657  0.62028800  0.43438495
   0.56256273  0.04957675  0.87537762
   0.81226827  0.19600391  0.21195714
   0.56252276  0.53071517  0.25625783
   0.31252226  0.70169592  0.34509651
   0.06308176  0.38270537  0.78798218
   0.18730590  0.12021270  0.43432314
   0.93745540  0.62014012  0.43428841
   0.81248044  0.70133049  0.34516330
   0.68747692  0.12673834  0.65477984
   0.43735509  0.78594771  0.38937302
   0.18725563  0.62030837  0.43456189
   0.18768348  0.29955124  0.87521718
   0.06222848  0.37645966  0.65473114
   0.68735206  0.12011456  0.43429227
   0.81223503  0.54653166  0.74363159
   0.18694911  0.62617322  0.65467912
   0.06298124  0.71178576  0.69938058
   0.18737143  0.44558768  0.21205800
   0.31258294  0.04747819  0.74373659
   0.81248521  0.03568648  0.38935173
   0.93762379  0.11592734  0.30052954
   0.06251284  0.54719442  0.74378605
   0.43755349  0.95144686  0.34517727
   0.18731326  0.11596847  0.30055989
   0.31243619  0.87352205  0.52139927
   0.31254548  0.53055313  0.25625978
   0.56246722  0.20119693  0.34513189
   0.93754402  0.11240175  0.16720241
   0.06246710  0.36305705  0.16726942
   0.56244348  0.04650999  0.74361001
   0.93776403  0.79208327  0.61043875
   0.43760285  0.46159896  0.69919651
   0.93703748  0.62237848  0.52153475
   0.18747957  0.95134854  0.34518513
   0.93747571  0.28557891  0.38940122
   0.56230339  0.54685772  0.74374445
   0.81194003  0.70728585  0.56549870
   0.68746689  0.46207303  0.69929912
   0.81275790  0.71216662  0.69938611
   0.06223204  0.70735548  0.56560967
   0.06300541  0.88204105  0.78805488
   0.31264664  0.54983556  0.87505448
   0.31222149  0.04233667  0.61053805
   0.81231667  0.69575241  0.21205969
   0.93748727  0.12008108  0.43433861
   0.68752122  0.78558116  0.38936651
   0.93744098  0.78552235  0.38933377
   0.56229436  0.36596662  0.30054045
   0.31255485  0.38176782  0.78802347
   0.56227232  0.53589378  0.38938823
   0.18786853  0.96489178  0.83286685
   0.06232930  0.19577597  0.21199302
   0.93738649  0.79682759  0.74370867
   0.31257514  0.54216276  0.61060421
   0.56286975  0.87013169  0.43433002
   0.56235562  0.20770607  0.56557854
   0.31203254  0.52851743  0.12507026
   0.18758925  0.78059960  0.25626886
   0.06236627  0.71440541  0.83292712
   0.43746559  0.95448567  0.47846335
   0.31227749  0.20495861  0.47839946
   0.56239607  0.03058485  0.25624007
   0.93717430  0.79909953  0.87517153
   0.06269143  0.53579457  0.38937970
   0.06248284  0.04184287  0.61053573
   0.56264970  0.04241885  0.61044990
   0.68800361  0.61273539  0.16720401
   0.31231084  0.87035234  0.43420807
   0.68734919  0.95139659  0.34522354
   0.43734794  0.94531163  0.21213852
   0.18771493  0.11296260  0.16724740
   0.43749391  0.61558419  0.30049581
   0.93793654  0.46507577  0.83300113
   0.06194390  0.37306557  0.52156851
   0.68740292  0.30016070  0.87501089
   0.56238070  0.37657730  0.65482734
   0.31243257  0.03615038  0.38941153
   0.81261320  0.86247231  0.16719372
   0.18681170  0.12635457  0.65481959
   0.68740993  0.61590198  0.30052790
   0.18739894  0.94582449  0.21209662
   0.31233818  0.36577656  0.30057564
   0.68741773  0.62294208  0.52145431
   0.56220145  0.37269111  0.52154648
   0.56246358  0.87308518  0.52139347
   0.68767115  0.28094045  0.25627874
   0.31254468  0.20147519  0.34518810
   0.06242177  0.87365171  0.52155569
   0.81291314  0.54999147  0.87518054
   0.31295499  0.70504559  0.47835723
   0.81239145  0.36583810  0.30051964
   0.18649280  0.46494470  0.83293987
   0.06254107  0.03057373  0.25621391
   0.43762492  0.12026084  0.43428112
   0.93756331  0.61279787  0.16727524
   0.56270220  0.71576233  0.83289368
   0.93752441  0.96595086  0.83303636
   0.56228019  0.69565653  0.21195066
   0.43733314  0.44554943  0.21204746
   0.81238964  0.87319371  0.52141090
   0.81242864  0.71484687  0.83296980
   0.56258106  0.19593801  0.21207560
   0.18712634  0.95465992  0.47836816
   0.81242585  0.86986218  0.43435821
   0.18867374  0.79936424  0.87513699
   0.06227054  0.70513193  0.47848988
   0.68747718  0.11296098  0.16719592
   0.81255612  0.53140783  0.25628126
   0.18852527  0.13187695  0.78797291
   0.06239427  0.20508844  0.47849946
   0.68717163  0.94584610  0.21204523
   0.18770537  0.29162075  0.61064362
   0.56210089  0.86291431  0.16723608
   0.56306432  0.88249342  0.78809407
   0.93795016  0.96228706  0.69930035
   0.06221705  0.04770128  0.74373967
   0.31221214  0.69572814  0.21200676
   0.18755413  0.79183089  0.61047657
   0.81246127  0.20525619  0.47838331
   0.56243634  0.21191635  0.69944596
   0.56246253  0.70795641  0.56555184
   0.18779856  0.46207315  0.69930008
   0.18750684  0.27827241  0.12504135
   0.06229360  0.03608614  0.38943591
   0.81239423  0.37025287  0.43431318
   0.43762296  0.96153523  0.69938944
   0.18747001  0.28617445  0.38938480
   0.06244084  0.69564190  0.21199110
   0.31258738  0.71143462  0.69934625
   0.93723202  0.62645340  0.65465151
   0.18750569  0.45175904  0.34520543
   0.68739610  0.80025864  0.87527347
   0.31220786  0.87629189  0.65470622
   0.18695580  0.95709079  0.56554272
   0.56258968  0.03619691  0.38942283
   0.31278728  0.71567962  0.83300421
   0.43745155  0.11597352  0.30056824
   0.31261231  0.88286406  0.78797364
   0.68764766  0.45776705  0.56561132
   0.56241667  0.71225576  0.69935591
   0.06290479  0.21226796  0.69935494
   0.56253222  0.37053701  0.43440510
   0.43776441  0.62018488  0.43423653
   0.81244864  0.53535052  0.38942295
   0.43704553  0.79688136  0.74374942
   0.81196643  0.20768678  0.56562884
   0.68737400  0.12292153  0.52146021