       N       E                     dE             d eps       ncg     rms          rms(c)
DAV:   1     0.292596225653E+05    0.29260E+05   -0.86622E+05 27944   0.197E+03
DAV:   2     0.120190531726E+04   -0.28058E+05   -0.27444E+05 27720   0.605E+02
DAV:   3    -0.194088746880E+04   -0.31428E+04   -0.27293E+04 39004   0.280E+02
DAV:   4    -0.261139478639E+04   -0.67051E+03   -0.61040E+03 50890   0.976E+01
DAV:   5    -0.273208743047E+04   -0.12069E+03   -0.11304E+03 48356   0.399E+01    0.204E+02
RMM:   6    -0.592084807847E+04   -0.31888E+04   -0.12551E+04 48491   0.252E+02    0.669E+02
RMM:   7    -0.390255140973E+04    0.20183E+04   -0.34209E+03 47802   0.102E+02    0.387E+02
RMM:   8    -0.887807301004E+04   -0.49755E+04   -0.18992E+04 47438   0.317E+02    0.114E+03
RMM:   9    -0.102500899527E+05   -0.13720E+04   -0.16036E+04 50044   0.180E+02    0.942E+02
RMM:  10    -0.653676685331E+04    0.37133E+04   -0.66323E+03 36802   0.206E+02    0.575E+02
RMM:  11    -0.812925482288E+04   -0.15925E+04   -0.46255E+03 37650   0.183E+02    0.568E+02
RMM:  12    -0.960351180116E+04   -0.14743E+04   -0.10958E+04 45767   0.217E+02    0.642E+02
RMM:  13    -0.714784723034E+04    0.24557E+04   -0.53311E+03 49212   0.101E+02    0.524E+02
RMM:  14    -0.874368271056E+04   -0.15958E+04   -0.35568E+03 37875   0.103E+02    0.519E+02
RMM:  15    -0.444100043339E+04    0.43027E+04   -0.16368E+03 29174   0.859E+01    0.430E+02
RMM:  16    -0.406569772994E+04    0.37530E+03   -0.75299E+02 29948   0.516E+01    0.415E+02
RMM:  17    -0.356477363352E+04    0.50092E+03   -0.20755E+03 38873   0.748E+01    0.363E+02
RMM:  18    -0.295880007974E+04    0.60597E+03   -0.11796E+03 34370   0.504E+01    0.298E+02
RMM:  19    -0.272681752194E+04    0.23198E+03   -0.14061E+03 37585   0.498E+01    0.247E+02
RMM:  20    -0.339842543099E+04   -0.67161E+03   -0.76397E+02 30707   0.479E+01    0.337E+02
RMM:  21    -0.289251281702E+04    0.50591E+03   -0.99227E+02 31561   0.630E+01    0.224E+02
RMM:  22    -0.270025074384E+04    0.19226E+03   -0.76407E+02 40801   0.265E+01    0.204E+02
RMM:  23    -0.253309611150E+04    0.16715E+03   -0.26465E+02 32344   0.217E+01    0.175E+02
RMM:  24    -0.247643970233E+04    0.56656E+02   -0.28208E+02 43108   0.112E+01    0.155E+02
RMM:  25    -0.246194573416E+04    0.14494E+02   -0.19157E+02 35180   0.141E+01    0.144E+02
RMM:  26    -0.243043344420E+04    0.31512E+02   -0.13812E+02 43105   0.770E+00    0.128E+02
RMM:  27    -0.239747403639E+04    0.32959E+02   -0.48576E+01 34113   0.622E+00    0.112E+02
RMM:  28    -0.237381957560E+04    0.23654E+02   -0.26481E+01 32298   0.689E+00    0.989E+01
RMM:  29    -0.235207534250E+04    0.21744E+02   -0.32040E+01 40281   0.489E+00    0.791E+01
RMM:  30    -0.234551699873E+04    0.65583E+01   -0.21841E+01 30699   0.773E+00    0.710E+01
RMM:  31    -0.234391644676E+04    0.16006E+01   -0.22091E+01 43203   0.345E+00    0.677E+01
RMM:  32    -0.234111779107E+04    0.27987E+01   -0.77154E+00 31111   0.435E+00    0.642E+01
RMM:  33    -0.234457313698E+04   -0.34553E+01   -0.67366E+00 37057   0.314E+00    0.672E+01
RMM:  34    -0.234556260910E+04   -0.98947E+00   -0.52489E+00 45402   0.846E-01    0.681E+01
RMM:  35    -0.234805937161E+04   -0.24968E+01   -0.13966E+00 29721   0.218E+00    0.710E+01
RMM:  36    -0.235057894817E+04   -0.25196E+01   -0.24330E+00 29766   0.296E+00    0.724E+01
RMM:  37    -0.235040463362E+04    0.17431E+00   -0.37196E+00 44885   0.741E-01    0.726E+01
RMM:  38    -0.235035347046E+04    0.51163E-01   -0.52356E-01 30626   0.106E+00    0.725E+01
RMM:  39    -0.235023565240E+04    0.11782E+00   -0.69845E-01 41634   0.636E-01    0.726E+01
RMM:  40    -0.234851587103E+04    0.17198E+01   -0.82669E-01 30008   0.159E+00    0.709E+01
RMM:  41    -0.234745685255E+04    0.10590E+01   -0.30642E+00 33023   0.249E+00    0.701E+01
RMM:  42    -0.234461090082E+04    0.28460E+01   -0.43250E+00 30475   0.345E+00    0.664E+01
RMM:  43    -0.234355838010E+04    0.10525E+01   -0.44416E+00 29988   0.359E+00    0.647E+01
RMM:  44    -0.233998435176E+04    0.35740E+01   -0.96716E+00 31469   0.496E+00    0.600E+01
RMM:  45    -0.233940443430E+04    0.57992E+00   -0.14340E+01 40625   0.386E+00    0.607E+01
RMM:  46    -0.233920940581E+04    0.19503E+00   -0.65847E+00 42771   0.193E+00    0.617E+01
RMM:  47    -0.233813069382E+04    0.10787E+01   -0.20523E+00 42419   0.979E-01    0.609E+01
RMM:  48    -0.233717521730E+04    0.95548E+00   -0.56739E-01 39351   0.557E-01    0.598E+01
RMM:  49    -0.233504176660E+04    0.21335E+01   -0.28882E-01 29516   0.103E+00    0.571E+01
RMM:  50    -0.233150432138E+04    0.35374E+01   -0.21014E+00 31454   0.230E+00    0.526E+01
RMM:  51    -0.233814795133E+04   -0.66436E+01   -0.70194E+01 34050   0.110E+01    0.602E+01
RMM:  52    -0.233831136962E+04   -0.16342E+00   -0.53007E+01 34665   0.965E+00    0.564E+01
RMM:  53    -0.234735503132E+04   -0.90437E+01   -0.41398E+01 31375   0.100E+01    0.677E+01
RMM:  54    -0.234730582097E+04    0.49210E-01   -0.17390E+01 28709   0.825E+00    0.665E+01
RMM:  55    -0.234543874892E+04    0.18671E+01   -0.19945E+01 32696   0.645E+00    0.651E+01
RMM:  56    -0.233727837037E+04    0.81604E+01   -0.15555E+01 29809   0.695E+00    0.571E+01
RMM:  57    -0.233375486858E+04    0.35235E+01   -0.13248E+01 30715   0.586E+00    0.521E+01
RMM:  58    -0.233529756794E+04   -0.15427E+01   -0.20545E+01 38024   0.486E+00    0.533E+01
RMM:  59    -0.233860208962E+04   -0.33045E+01   -0.10232E+01 34903   0.364E+00    0.575E+01
RMM:  60    -0.233648603544E+04    0.21161E+01   -0.75468E+00 40418   0.279E+00    0.556E+01
RMM:  61    -0.236076777060E+04   -0.24282E+02   -0.21949E+01 29821   0.792E+00    0.854E+01
RMM:  62    -0.233663433267E+04    0.24133E+02   -0.20632E+01 38504   0.508E+00    0.557E+01
RMM:  63    -0.233535138273E+04    0.12829E+01   -0.12018E+01 30460   0.571E+00    0.545E+01
RMM:  64    -0.233844747667E+04   -0.30961E+01   -0.19232E+01 32907   0.625E+00    0.571E+01
RMM:  65    -0.233307706930E+04    0.53704E+01   -0.10509E+01 30769   0.537E+00    0.491E+01
RMM:  66    -0.233116229580E+04    0.19148E+01   -0.19330E+01 31434   0.661E+00    0.453E+01
RMM:  67    -0.232558032767E+04    0.55820E+01   -0.76862E+00 28157   0.562E+00    0.348E+01
RMM:  68    -0.232315024852E+04    0.24301E+01   -0.53984E+00 30350   0.391E+00    0.307E+01
RMM:  69    -0.232265463874E+04    0.49561E+00   -0.27066E+00 30399   0.281E+00    0.295E+01
RMM:  70    -0.232251594977E+04    0.13869E+00   -0.19392E+00 30432   0.235E+00    0.290E+01
RMM:  71    -0.232690743302E+04   -0.43915E+01   -0.90381E+00 31157   0.462E+00    0.386E+01
RMM:  72    -0.232198904813E+04    0.49184E+01   -0.31198E+00 28209   0.364E+00    0.249E+01
RMM:  73    -0.232033509507E+04    0.16540E+01   -0.17461E+00 28083   0.280E+00    0.194E+01
RMM:  74    -0.231966777885E+04    0.66732E+00   -0.14088E+00 30522   0.198E+00    0.171E+01
RMM:  75    -0.231951768207E+04    0.15010E+00   -0.17360E+00 39226   0.132E+00    0.151E+01
RMM:  76    -0.232122485767E+04   -0.17072E+01   -0.47560E+00 31286   0.337E+00    0.236E+01
RMM:  77    -0.231937317555E+04    0.18517E+01   -0.15783E+00 27967   0.269E+00    0.133E+01
RMM:  78    -0.231907486742E+04    0.29831E+00   -0.23330E+00 39728   0.151E+00    0.104E+01
RMM:  79    -0.231910886250E+04   -0.33995E-01   -0.12225E+00 39962   0.101E+00    0.101E+01
RMM:  80    -0.231893352576E+04    0.17534E+00   -0.29001E-01 34044   0.703E-01    0.833E+00
RMM:  81    -0.231966136405E+04   -0.72784E+00   -0.10477E+00 29673   0.177E+00    0.139E+01
RMM:  82    -0.231913356293E+04    0.52780E+00   -0.40758E-01 27760   0.146E+00    0.993E+00
RMM:  83    -0.231887976694E+04    0.25380E+00   -0.16253E-01 27885   0.921E-01    0.751E+00
RMM:  84    -0.231879363658E+04    0.86130E-01   -0.18139E-01 30576   0.718E-01    0.615E+00
RMM:  85    -0.231866895652E+04    0.12468E+00   -0.13995E-01 29142   0.699E-01    0.372E+00
RMM:  86    -0.231874896211E+04   -0.80006E-01   -0.26581E-01 28518   0.100E+00    0.543E+00
RMM:  87    -0.231861822915E+04    0.13073E+00   -0.10114E-01 27819   0.768E-01    0.213E+00
RMM:  88    -0.231861991232E+04   -0.16832E-02   -0.10962E-01 36890   0.315E-01    0.190E+00
RMM:  89    -0.231863604234E+04   -0.16130E-01   -0.55825E-02 39118   0.233E-01    0.247E+00
RMM:  90    -0.231863144314E+04    0.45992E-02   -0.25608E-02 35981   0.190E-01    0.221E+00
RMM:  91    -0.231862278433E+04    0.86588E-02   -0.23985E-02 28356   0.320E-01    0.178E+00
RMM:  92    -0.231861363432E+04    0.91500E-02   -0.12227E-02 28079   0.266E-01    0.120E+00
RMM:  93    -0.231861794475E+04   -0.43104E-02   -0.13035E-02 29406   0.217E-01    0.148E+00
RMM:  94    -0.231861659459E+04    0.13502E-02   -0.10390E-02 29090   0.201E-01    0.136E+00
RMM:  95    -0.231861275480E+04    0.38398E-02   -0.86198E-03 30328   0.159E-01    0.106E+00
RMM:  96    -0.231861021533E+04    0.25395E-02   -0.76650E-03 32362   0.121E-01    0.779E-01
RMM:  97    -0.231860864724E+04    0.15681E-02   -0.36117E-03 31733   0.925E-02    0.578E-01
RMM:  98    -0.231860790407E+04    0.74317E-03   -0.19368E-03 31041   0.718E-02    0.434E-01
RMM:  99    -0.231860813011E+04   -0.22603E-03   -0.23668E-03 34043   0.648E-02    0.429E-01
RMM: 100    -0.231860832957E+04   -0.19946E-03   -0.13165E-03 31084   0.585E-02
   1 F= -.23186083E+04 E0= -.23158519E+04  d E =-.231861E+04
       N       E                     dE             d eps       ncg     rms          rms(c)
DAV:   1    -0.231870462873E+04   -0.96499E-01   -0.24735E+01 29848   0.520E+00    0.982E-01
RMM:   2    -0.232254716241E+04   -0.38425E+01   -0.79834E-01 28559   0.169E+00    0.269E+01
RMM:   3    -0.231967321733E+04    0.28739E+01   -0.37334E-01 35436   0.856E-01    0.123E+01
RMM:   4    -0.232114441440E+04   -0.14712E+01   -0.18860E-01 29693   0.757E-01    0.208E+01
RMM:   5    -0.231888632479E+04    0.22581E+01   -0.12610E-01 27863   0.733E-01    0.425E+00
RMM:   6    -0.231897652513E+04   -0.90200E-01   -0.15241E-01 30173   0.660E-01    0.683E+00
RMM:   7    -0.231944958902E+04   -0.47306E+00   -0.47297E-01 35081   0.836E-01    0.117E+01
RMM:   8    -0.231886679884E+04    0.58279E+00   -0.13698E-01 27800   0.764E-01    0.455E+00
RMM:   9    -0.231877270021E+04    0.94099E-01   -0.53205E-02 28146   0.471E-01    0.286E+00
RMM:  10    -0.231875610889E+04    0.16591E-01   -0.44141E-02 30008   0.362E-01    0.219E+00
RMM:  11    -0.231874532073E+04    0.10788E-01   -0.51349E-02 34712   0.299E-01    0.157E+00
RMM:  12    -0.231873570560E+04    0.96151E-02   -0.20219E-02 30281   0.238E-01    0.981E-01
RMM:  13    -0.231873332906E+04    0.23765E-02   -0.13813E-02 34852   0.143E-01    0.640E-01
RMM:  14    -0.231873403717E+04   -0.70811E-03   -0.94452E-03 35761   0.118E-01    0.700E-01
RMM:  15    -0.231873278869E+04    0.12485E-02   -0.30250E-03 29690   0.992E-02    0.467E-01
RMM:  16    -0.231873206963E+04    0.71906E-03   -0.14051E-03 29848   0.684E-02    0.293E-01
RMM:  17    -0.231873204528E+04    0.24350E-04   -0.15692E-03 35618   0.497E-02    0.262E-01
RMM:  18    -0.231873202497E+04    0.20312E-04   -0.95453E-04 31334   0.491E-02    0.220E-01
RMM:  19    -0.231873188784E+04    0.13713E-03   -0.41166E-04 29163   0.410E-02    0.136E-01
RMM:  20    -0.231873191394E+04   -0.26104E-04   -0.49977E-04 37224   0.248E-02    0.127E-01
RMM:  21    -0.231873194619E+04   -0.32245E-04   -0.21832E-04 31977   0.222E-02    0.118E-01
RMM:  22    -0.231873192227E+04    0.23915E-04   -0.95447E-05 30238   0.179E-02    0.758E-02
RMM:  23    -0.231873193257E+04   -0.10298E-04   -0.11973E-04 37747   0.114E-02    0.643E-02
RMM:  24    -0.231873195294E+04   -0.20374E-04   -0.64744E-05 33232   0.107E-02    0.373E-02
RMM:  25    -0.231873196096E+04   -0.80151E-05   -0.42479E-05 35342   0.698E-03    0.247E-02
RMM:  26    -0.231873197107E+04   -0.10115E-04   -0.21046E-05 29896   0.439E-03    0.234E-02
RMM:  27    -0.231873198907E+04   -0.17992E-04   -0.71790E-06 22093   0.422E-03    0.140E-02
RMM:  28    -0.231873199524E+04   -0.61754E-05   -0.36038E-06 18993   0.308E-03    0.942E-03
RMM:  29    -0.231873200924E+04   -0.13999E-04   -0.36243E-06 19335   0.300E-03    0.118E-02
RMM:  30    -0.231873202597E+04   -0.16727E-04   -0.30544E-06 18032   0.322E-03    0.902E-03
RMM:  31    -0.231873203226E+04   -0.62908E-05   -0.18736E-06 16873   0.215E-03    0.585E-03
RMM:  32    -0.231873204055E+04   -0.82868E-05   -0.16517E-06 16288   0.186E-03    0.650E-03
RMM:  33    -0.231873205190E+04   -0.11352E-04   -0.16565E-06 16196   0.204E-03    0.465E-03
RMM:  34    -0.231873205627E+04   -0.43705E-05   -0.11792E-06 15735   0.140E-03    0.414E-03
RMM:  35    -0.231873206481E+04   -0.85416E-05   -0.12449E-06 15779   0.135E-03    0.400E-03
RMM:  36    -0.231873206975E+04   -0.49424E-05   -0.10331E-06 15638   0.143E-03    0.371E-03
RMM:  37    -0.231873207514E+04   -0.53886E-05   -0.10835E-06 15648   0.117E-03    0.369E-03
RMM:  38    -0.231873207987E+04   -0.47321E-05   -0.10780E-06 15749   0.124E-03    0.273E-03
RMM:  39    -0.231873208256E+04   -0.26824E-05   -0.91153E-07 15531   0.986E-04    0.281E-03
RMM:  40    -0.231873208475E+04   -0.21927E-05   -0.88256E-07 15512   0.110E-03    0.217E-03
RMM:  41    -0.231873208548E+04   -0.72719E-06   -0.65822E-07 14980   0.811E-04
   2 F= -.23187321E+04 E0= -.23159694E+04  d E =-.123756E+00
       N       E                     dE             d eps       ncg     rms          rms(c)
DAV:   1    -0.231863202442E+04    0.10006E+00   -0.22236E+02 27720   0.156E+01    0.298E+00
RMM:   2    -0.232914589353E+04   -0.10514E+02   -0.61423E+00 27930   0.519E+00    0.438E+01
RMM:   3    -0.232811575752E+04    0.10301E+01   -0.33441E+00 39052   0.210E+00    0.394E+01
RMM:   4    -0.233460066915E+04   -0.64849E+01   -0.12917E+00 28303   0.235E+00    0.527E+01
RMM:   5    -0.231967547295E+04    0.14925E+02   -0.84475E-01 31834   0.150E+00    0.879E+00
RMM:   6    -0.232272587696E+04   -0.30504E+01   -0.21229E+00 30712   0.222E+00    0.263E+01
RMM:   7    -0.232152176301E+04    0.12041E+01   -0.12981E+00 30101   0.194E+00    0.225E+01
RMM:   8    -0.231961620657E+04    0.19056E+01   -0.58716E-01 27865   0.160E+00    0.111E+01
RMM:   9    -0.231920726761E+04    0.40894E+00   -0.30200E-01 28035   0.110E+00    0.685E+00
RMM:  10    -0.231915473128E+04    0.52536E-01   -0.31637E-01 28948   0.102E+00    0.669E+00
RMM:  11    -0.231906049870E+04    0.94233E-01   -0.32146E-01 29633   0.969E-01    0.494E+00
RMM:  12    -0.231895685926E+04    0.10364E+00   -0.11174E-01 27781   0.748E-01    0.272E+00
RMM:  13    -0.231893800582E+04    0.18853E-01   -0.70837E-02 30189   0.441E-01    0.210E+00
RMM:  14    -0.231893414667E+04    0.38591E-02   -0.60489E-02 35487   0.281E-01    0.176E+00
RMM:  15    -0.231893107959E+04    0.30671E-02   -0.41121E-02 34673   0.258E-01    0.147E+00
RMM:  16    -0.231892254150E+04    0.85381E-02   -0.13957E-02 28932   0.231E-01    0.801E-01
RMM:  17    -0.231892379874E+04   -0.12572E-02   -0.18446E-02 35574   0.172E-01    0.878E-01
RMM:  18    -0.231892095759E+04    0.28411E-02   -0.63009E-03 28799   0.160E-01    0.519E-01
RMM:  19    -0.231892044463E+04    0.51296E-03   -0.43383E-03 31115   0.106E-01    0.398E-01
RMM:  20    -0.231892117887E+04   -0.73425E-03   -0.44737E-03 36154   0.793E-02    0.512E-01
RMM:  21    -0.231892081794E+04    0.36094E-03   -0.14029E-03 30195   0.654E-02    0.413E-01
RMM:  22    -0.231892051035E+04    0.30759E-03   -0.10428E-03 33597   0.433E-02    0.334E-01
RMM:  23    -0.231892030146E+04    0.20889E-03   -0.95741E-04 37212   0.352E-02    0.253E-01
RMM:  24    -0.231892005077E+04    0.25069E-03   -0.41293E-04 31135   0.331E-02    0.135E-01
RMM:  25    -0.231892006182E+04   -0.11049E-04   -0.37687E-04 38645   0.196E-02    0.129E-01
RMM:  26    -0.231892003977E+04    0.22052E-04   -0.16418E-04 32631   0.173E-02    0.106E-01
RMM:  27    -0.231892001507E+04    0.24701E-04   -0.94371E-05 33878   0.125E-02    0.741E-02
RMM:  28    -0.231892001320E+04    0.18612E-05   -0.73897E-05 39831   0.706E-03    0.641E-02
RMM:  29    -0.231891999950E+04    0.13707E-04   -0.26032E-05 31412   0.779E-03    0.348E-02
RMM:  30    -0.231891999431E+04    0.51845E-05   -0.11300E-05 27801   0.645E-03    0.183E-02
RMM:  31    -0.231891999540E+04   -0.10892E-05   -0.10144E-05 24608   0.420E-03    0.215E-02
RMM:  32    -0.231891999538E+04    0.22323E-07   -0.51291E-06 21517   0.432E-03
   3 F= -.23189200E+04 E0= -.23161393E+04  d E =-.311666E+00
       N       E                     dE             d eps       ncg     rms          rms(c)
DAV:   1    -0.231891667812E+04    0.33173E-02   -0.81280E+00 28504   0.298E+00    0.497E-01
RMM:   2    -0.231919185888E+04   -0.27518E+00   -0.17420E-01 28157   0.825E-01    0.705E+00
RMM:   3    -0.231920541784E+04   -0.13559E-01   -0.10029E-01 39684   0.336E-01    0.707E+00
RMM:   4    -0.231930963898E+04   -0.10422E+00   -0.33252E-02 28403   0.369E-01    0.834E+00
RMM:   5    -0.231894791534E+04    0.36172E+00   -0.21162E-02 30083   0.259E-01    0.168E+00
RMM:   6    -0.231898366807E+04   -0.35753E-01   -0.40745E-02 30696   0.315E-01    0.324E+00
RMM:   7    -0.231901016333E+04   -0.26495E-01   -0.41129E-02 29612   0.346E-01    0.410E+00
RMM:   8    -0.231894874010E+04    0.61423E-01   -0.22609E-02 31821   0.237E-01    0.199E+00
RMM:   9    -0.231893193445E+04    0.16806E-01   -0.99774E-03 27976   0.205E-01    0.109E+00
RMM:  10    -0.231892930538E+04    0.26291E-02   -0.10416E-02 32685   0.146E-01    0.893E-01
RMM:  11    -0.231892895409E+04    0.35129E-03   -0.94154E-03 34242   0.130E-01    0.827E-01
RMM:  12    -0.231892659234E+04    0.23618E-02   -0.30161E-03 27819   0.116E-01    0.516E-01
RMM:  13    -0.231892561148E+04    0.98086E-03   -0.14175E-03 27780   0.854E-02    0.341E-01
RMM:  14    -0.231892566399E+04   -0.52511E-04   -0.16544E-03 31718   0.630E-02    0.337E-01
RMM:  15    -0.231892537586E+04    0.28813E-03   -0.11883E-03 31542   0.541E-02    0.233E-01
RMM:  16    -0.231892515655E+04    0.21931E-03   -0.50328E-04 30147   0.390E-02    0.105E-01
RMM:  17    -0.231892517244E+04   -0.15893E-04   -0.51933E-04 39654   0.214E-02    0.100E-01
RMM:  18    -0.231892515817E+04    0.14270E-04   -0.15771E-04 31149   0.204E-02    0.826E-02
RMM:  19    -0.231892513168E+04    0.26496E-04   -0.83907E-05 31843   0.143E-02    0.405E-02
RMM:  20    -0.231892513639E+04   -0.47096E-05   -0.77649E-05 39568   0.760E-03    0.387E-02
RMM:  21    -0.231892513651E+04   -0.11979E-06   -0.31644E-05 31770   0.828E-03    0.350E-02
RMM:  22    -0.231892513289E+04    0.36219E-05   -0.17875E-05 30406   0.590E-03    0.199E-02
RMM:  23    -0.231892513446E+04   -0.15783E-05   -0.12044E-05 26954   0.420E-03    0.238E-02
RMM:  24    -0.231892513244E+04    0.20237E-05   -0.39943E-06 19803   0.429E-03    0.128E-02
RMM:  25    -0.231892513193E+04    0.50935E-06   -0.18710E-06 17717   0.268E-03
   4 F= -.23189251E+04 E0= -.23161415E+04  d E =-.316802E+00
       N       E                     dE             d eps       ncg     rms          rms(c)
DAV:   1    -0.231895926197E+04   -0.34130E-01   -0.34019E+01 27720   0.611E+00    0.940E-01
RMM:   2    -0.231988892015E+04   -0.92966E+00   -0.62761E-01 27992   0.162E+00    0.134E+01
RMM:   3    -0.231959813357E+04    0.29079E+00   -0.27544E-01 38814   0.620E-01    0.102E+01
RMM:   4    -0.231945498891E+04    0.14314E+00   -0.76121E-02 27812   0.584E-01    0.932E+00
RMM:   5    -0.231927200302E+04    0.18299E+00   -0.87169E-02 38229   0.335E-01    0.683E+00
RMM:   6    -0.231910706372E+04    0.16494E+00   -0.74842E-02 28223   0.515E-01    0.442E+00
RMM:   7    -0.231941235334E+04   -0.30529E+00   -0.22932E-01 34712   0.594E-01    0.880E+00
RMM:   8    -0.231903112785E+04    0.38123E+00   -0.72188E-02 27748   0.584E-01    0.217E+00
RMM:   9    -0.231900157667E+04    0.29551E-01   -0.29145E-02 28070   0.368E-01    0.113E+00
RMM:  10    -0.231901323541E+04   -0.11659E-01   -0.32404E-02 32311   0.252E-01    0.186E+00
RMM:  11    -0.231900211732E+04    0.11118E-01   -0.20027E-02 28892   0.254E-01    0.108E+00
RMM:  12    -0.231899668151E+04    0.54358E-02   -0.85400E-03 28205   0.208E-01    0.615E-01
RMM:  13    -0.231899593990E+04    0.74160E-03   -0.61274E-03 33071   0.102E-01    0.441E-01
RMM:  14    -0.231899628429E+04   -0.34439E-03   -0.47706E-03 35199   0.841E-02    0.463E-01
RMM:  15    -0.231899587685E+04    0.40744E-03   -0.19117E-03 30137   0.756E-02    0.368E-01
RMM:  16    -0.231899542813E+04    0.44872E-03   -0.95960E-04 31139   0.491E-02    0.220E-01
RMM:  17    -0.231899542573E+04    0.24074E-05   -0.93776E-04 38242   0.321E-02    0.200E-01
RMM:  18    -0.231899530480E+04    0.12093E-03   -0.37996E-04 31306   0.308E-02    0.112E-01
RMM:  19    -0.231899527491E+04    0.29886E-04   -0.21919E-04 32386   0.223E-02    0.767E-02
RMM:  20    -0.231899529467E+04   -0.19764E-04   -0.20268E-04 38079   0.148E-02    0.865E-02
RMM:  21    -0.231899528318E+04    0.11492E-04   -0.71248E-05 30631   0.143E-02    0.720E-02
RMM:  22    -0.231899527132E+04    0.11858E-04   -0.41833E-05 31663   0.993E-03    0.496E-02
RMM:  23    -0.231899527257E+04   -0.12423E-05   -0.47332E-05 37568   0.719E-03    0.471E-02
RMM:  24    -0.231899526559E+04    0.69768E-05   -0.20707E-05 30494   0.663E-03    0.230E-02
RMM:  25    -0.231899526443E+04    0.11634E-05   -0.12320E-05 26127   0.408E-03    0.135E-02
RMM:  26    -0.231899526466E+04   -0.23487E-06   -0.56429E-06 21273   0.308E-03
   5 F= -.23189953E+04 E0= -.23162140E+04  d E =-.701327E-01
