<?xml version="1.0" encoding="ISO-8859-1"?>
<modeling>
 <generator>
  <i name="program" type="string">vasp </i>
  <i name="version" type="string">5.4.4.18Apr17-6-g9f103f2a35  </i>
  <i name="subversion" type="string">(build Sep 27 2018 12:46:37) complex + VL-xray_ parallel </i>
  <i name="platform" type="string">LLNL_Quartz_ifc </i>
  <i name="date" type="string">2021 09 26 </i>
  <i name="time" type="string">19:24:36 </i>
 </generator>
 <incar>
  <i type="int" name="ISTART">     2</i>
  <i type="string" name="PREC">accurate</i>
  <i type="string" name="ALGO"> Fast</i>
  <i type="int" name="ICHARG">     2</i>
  <i type="int" name="INIWAV">     1</i>
  <i type="int" name="NELM">   100</i>
  <i type="int" name="NELMIN">     4</i>
  <i type="int" name="IBRION">     2</i>
  <i name="EDIFF">      0.00000100</i>
  <i type="int" name="NSW">     5</i>
  <i type="int" name="ISIF">     2</i>
  <i type="int" name="ISYM">     2</i>
  <i name="ENCUT">    450.00000000</i>
  <i name="POTIM">      0.25000000</i>
  <i type="string" name="LREAL"> Auto</i>
  <i type="int" name="ISMEAR">     0</i>
  <i name="SIGMA">      0.15000000</i>
  <i type="logical" name="LWAVE"> F  </i>
  <i type="logical" name="LCHARG"> F  </i>
  <i type="int" name="ICORELEVEL">     0</i>
  <i type="int" name="CLNT">     1</i>
  <i type="int" name="CLN">     1</i>
  <i type="int" name="INCAR     ">     0</i>
  <i name="CLZ">      0.00000000</i>
  <v type="int" name="KPOINT_BSE">    -1     0     0     0</v>
  <i type="int" name="NELM">   100</i>
 </incar>
 <structure name="primitive_cell" >
  <crystal>
   <varray name="basis" >
    <v>       9.72667804       0.00000000       0.00000000 </v>
    <v>       0.00000000       8.42355028       0.00000000 </v>
    <v>       0.00000000       0.00000000      45.00000000 </v>
   </varray>
   <i name="volume">   3686.99226691 </i>
   <varray name="rec_basis" >
    <v>       0.10281002       0.00000000       0.00000000 </v>
    <v>       0.00000000       0.11871479       0.00000000 </v>
    <v>       0.00000000       0.00000000       0.02222222 </v>
   </varray>
  </crystal>
  <varray name="positions" >
   <v>       0.06235900       0.03267931       0.12516309 </v>
   <v>      -0.06054337       0.11496999       0.16736830 </v>
   <v>       0.06530129      -0.13368403       0.16772116 </v>
   <v>      -0.06190038      -0.21081901       0.12526440 </v>
   <v>       0.19143679       0.11559520       0.16752601 </v>
   <v>       0.18864417      -0.21106046       0.12534290 </v>
   <v>      -0.18742141       0.03315155       0.12498474 </v>
   <v>       0.31248355       0.03299662       0.12499367 </v>
   <v>      -0.06292951       0.28957554       0.12524915 </v>
   <v>       0.18954681       0.28874309       0.12524627 </v>
   <v>      -0.18478600      -0.13387721       0.16788130 </v>
   <v>       0.06588464       0.36627915       0.16747708 </v>
   <v>       0.31525478      -0.13426927       0.16789824 </v>
   <v>      -0.30828780       0.11548986       0.16750511 </v>
   <v>      -0.18390990       0.36546772       0.16707824 </v>
   <v>       0.18679901      -0.04193229       0.21241425 </v>
   <v>      -0.06378265      -0.04184147       0.21237084 </v>
   <v>      -0.31110972      -0.21125230       0.12536852 </v>
   <v>       0.31596255       0.36517683       0.16700472 </v>
   <v>      -0.05965775      -0.38585548       0.16784006 </v>
   <v>       0.43763128      -0.21109499       0.12522452 </v>
   <v>       0.43964812       0.11508942       0.16733234 </v>
   <v>       0.06166138       0.20830984       0.21242649 </v>
   <v>       0.19049661      -0.38478205       0.16790142 </v>
   <v>       0.06207337      -0.46626304       0.12523923 </v>
   <v>      -0.31075264       0.28919886       0.12525159 </v>
   <v>       0.43738188       0.28958649       0.12521159 </v>
   <v>       0.06171157      -0.29207740       0.21238623 </v>
   <v>       0.31174746       0.20787660       0.21239210 </v>
   <v>      -0.18860019       0.20779306       0.21240445 </v>
   <v>      -0.18763870      -0.46668745       0.12526526 </v>
   <v>       0.31259883      -0.46697265       0.12518092 </v>
   <v>      -0.43768631       0.03255169       0.12518641 </v>
   <v>       0.31160998      -0.29193202       0.21234371 </v>
   <v>      -0.18831486      -0.29182436       0.21236775 </v>
   <v>      -0.43468205      -0.13349389       0.16776818 </v>
   <v>       0.43680063      -0.04207442       0.21241267 </v>
   <v>      -0.31314067      -0.04207718       0.21239995 </v>
   <v>      -0.30935687      -0.38551729       0.16796850 </v>
   <v>       0.43996386      -0.38547065       0.16786690 </v>
   <v>      -0.06255268       0.45796672       0.21268279 </v>
   <v>       0.18662679       0.45831845       0.21273248 </v>
   <v>      -0.43412781       0.36658769       0.16756824 </v>
   <v>       0.06559889       0.04197404       0.25677002 </v>
   <v>      -0.05942342      -0.20793820       0.25686128 </v>
   <v>       0.19013036      -0.20848387       0.25679609 </v>
   <v>      -0.18477846       0.04163013       0.25676628 </v>
   <v>      -0.05915860       0.29170298       0.25668466 </v>
   <v>       0.31519820       0.04190047       0.25688239 </v>
   <v>      -0.43814616       0.20810469       0.21247364 </v>
   <v>      -0.43774029      -0.46658360       0.12525507 </v>
   <v>       0.19145839       0.29121472       0.25665371 </v>
   <v>       0.43749092       0.45784908       0.21269904 </v>
   <v>      -0.31376050       0.45815742       0.21251811 </v>
   <v>      -0.43848491      -0.29206786       0.21231935 </v>
   <v>       0.06615288      -0.45966354       0.25660484 </v>
   <v>      -0.30974343      -0.20818751       0.25689139 </v>
   <v>       0.44124455      -0.20791941       0.25678367 </v>
   <v>      -0.30927102       0.29145194       0.25658532 </v>
   <v>       0.44041021       0.29153920       0.25675115 </v>
   <v>      -0.18439565      -0.45873932       0.25668961 </v>
   <v>       0.31525278      -0.45905695       0.25653427 </v>
   <v>      -0.43444844       0.04149198       0.25677729 </v>
   <v>       0.06079399      -0.12553766       0.30081061 </v>
   <v>       0.18612310       0.12461292       0.30075091 </v>
   <v>      -0.06395265       0.12479557       0.30080615 </v>
   <v>      -0.18904927      -0.12562999       0.30060207 </v>
   <v>       0.31077188      -0.12568129       0.30094644 </v>
   <v>       0.05932183       0.37509300       0.30107013 </v>
   <v>      -0.43465328      -0.45849318       0.25667142 </v>
   <v>       0.18594449      -0.37518229       0.30092049 </v>
   <v>      -0.06568481      -0.37510572       0.30093571 </v>
   <v>       0.43381070       0.12494539       0.30083483 </v>
   <v>      -0.31393088       0.12484412       0.30094895 </v>
   <v>       0.31090644       0.37478627       0.30097273 </v>
   <v>      -0.18939343       0.37468613       0.30095281 </v>
   <v>       0.43617430      -0.37495954       0.30098261 </v>
   <v>      -0.44049783      -0.12615532       0.30079723 </v>
   <v>      -0.31443273      -0.37461215       0.30093436 </v>
   <v>      -0.43901025       0.37458309       0.30085960 </v>
   <v>      -0.06025426      -0.04559721       0.34539576 </v>
   <v>       0.18911190      -0.04592703       0.34569172 </v>
   <v>       0.06443282       0.20460482       0.34572991 </v>
   <v>       0.06436659      -0.29583088       0.34561251 </v>
   <v>      -0.18556185       0.20381939       0.34547105 </v>
   <v>       0.31399020       0.20450971       0.34581268 </v>
   <v>      -0.18529807      -0.29593275       0.34532412 </v>
   <v>       0.31457066      -0.29618844       0.34552947 </v>
   <v>      -0.31104636      -0.04536250       0.34579772 </v>
   <v>      -0.06087090       0.45418173       0.34541621 </v>
   <v>       0.43919635      -0.04565974       0.34566251 </v>
   <v>       0.18949194       0.45402138       0.34539642 </v>
   <v>      -0.43551934       0.20384950       0.34546760 </v>
   <v>      -0.31058917       0.45440013       0.34539088 </v>
   <v>       0.44013151       0.45415787       0.34552110 </v>
   <v>       0.06050201       0.03835907      -0.12503579 </v>
   <v>      -0.43553328      -0.29597956       0.34535876 </v>
   <v>      -0.06267152      -0.20786470      -0.12502400 </v>
   <v>       0.18726182      -0.20797684      -0.12504599 </v>
   <v>       0.31019894       0.03843160      -0.12506209 </v>
   <v>      -0.18953681       0.03856678      -0.12509909 </v>
   <v>       0.18733885       0.29202655      -0.12495992 </v>
   <v>      -0.06284466       0.29246544      -0.12506266 </v>
   <v>       0.06169540       0.03918333       0.38940431 </v>
   <v>       0.05992326      -0.46188286      -0.12502973 </v>
   <v>       0.43746591      -0.20790067      -0.12506960 </v>
   <v>      -0.31273218      -0.20787852      -0.12510505 </v>
   <v>       0.43738105       0.29203966      -0.12501805 </v>
   <v>      -0.31234528       0.29232437      -0.12503333 </v>
   <v>       0.18678813      -0.21029559       0.38931312 </v>
   <v>      -0.06241365      -0.21057816       0.38938599 </v>
   <v>       0.31249424       0.03900954       0.38947940 </v>
   <v>      -0.18853033       0.03926986       0.38945038 </v>
   <v>      -0.06328712       0.28962423       0.38942178 </v>
   <v>       0.18739899       0.28936087       0.38949325 </v>
   <v>       0.31000667      -0.46158919      -0.12505278 </v>
   <v>      -0.18977812      -0.46204445      -0.12516132 </v>
   <v>      -0.43878607       0.03777236      -0.12525073 </v>
   <v>       0.43666183      -0.21049833       0.38946572 </v>
   <v>       0.06223652      -0.46002564       0.38969186 </v>
   <v>      -0.31287223      -0.21039362       0.38954585 </v>
   <v>      -0.31288419       0.28996688       0.38939121 </v>
   <v>       0.43753398       0.29012539       0.38945030 </v>
   <v>       0.31179403      -0.46007117       0.38957478 </v>
   <v>      -0.18797450      -0.46075209       0.38953834 </v>
   <v>      -0.43681467       0.03907226       0.38935545 </v>
   <v>      -0.43971696      -0.46173066      -0.12525905 </v>
   <v>       0.18310690      -0.03858474      -0.16738068 </v>
   <v>      -0.06675772      -0.03877661      -0.16751052 </v>
   <v>       0.05841154       0.21183861      -0.16739504 </v>
   <v>       0.05804244      -0.28869527      -0.16723825 </v>
   <v>       0.30830842       0.21111581      -0.16712964 </v>
   <v>      -0.19132574       0.21094885      -0.16758074 </v>
   <v>      -0.43793586      -0.46157431       0.38942883 </v>
   <v>       0.30834984      -0.28843172      -0.16733024 </v>
   <v>       0.43362282      -0.03849063      -0.16741719 </v>
   <v>      -0.19132949      -0.28878024      -0.16745903 </v>
   <v>      -0.31647620      -0.03915223      -0.16755269 </v>
   <v>       0.18325343       0.46150900      -0.16750088 </v>
   <v>      -0.06683657       0.46127785      -0.16757450 </v>
   <v>      -0.06218712       0.12040432       0.43444807 </v>
   <v>       0.18741919       0.12041758       0.43447066 </v>
   <v>       0.06248411      -0.12986042       0.43476334 </v>
   <v>      -0.44150817       0.21110991      -0.16761119 </v>
   <v>       0.43313142       0.46157014      -0.16749899 </v>
   <v>      -0.31658172       0.46115898      -0.16764906 </v>
   <v>      -0.18734236      -0.13023141       0.43450236 </v>
   <v>       0.31317090      -0.13010604       0.43450335 </v>
   <v>       0.06293273       0.36985754       0.43453314 </v>
   <v>      -0.44139126      -0.28870940      -0.16740312 </v>
   <v>      -0.06269544      -0.37978362       0.43443581 </v>
   <v>       0.18781524      -0.38001359       0.43443111 </v>
   <v>      -0.31233332       0.12056507       0.43450004 </v>
   <v>       0.31224413       0.37009658       0.43444189 </v>
   <v>      -0.18704911       0.37020421       0.43451000 </v>
   <v>       0.43750555       0.12014227       0.43464297 </v>
   <v>       0.43723517      -0.37947940       0.43449989 </v>
   <v>      -0.31210981      -0.37959120       0.43453682 </v>
   <v>      -0.43721887      -0.12987596       0.43450235 </v>
   <v>      -0.43734517       0.36946801       0.43459830 </v>
   <v>       0.06345133      -0.13134672      -0.21222621 </v>
   <v>      -0.06161619       0.11895496      -0.21219824 </v>
   <v>       0.18838879       0.11821710      -0.21221518 </v>
   <v>       0.31325597      -0.13126310      -0.21226018 </v>
   <v>      -0.18692450      -0.13226790      -0.21231572 </v>
   <v>       0.06309119       0.36813887      -0.21231210 </v>
   <v>      -0.06161435      -0.38164950      -0.21222222 </v>
   <v>       0.18857249      -0.38181668      -0.21219513 </v>
   <v>      -0.31134114       0.11852954      -0.21221713 </v>
   <v>       0.43891173       0.11852003      -0.21217605 </v>
   <v>      -0.18643765       0.36809794      -0.21227835 </v>
   <v>       0.31335315       0.36822801      -0.21228395 </v>
   <v>       0.18846793      -0.04481493       0.47862401 </v>
   <v>      -0.06219539      -0.04460136       0.47866918 </v>
   <v>       0.06317969       0.20540963       0.47860977 </v>
   <v>      -0.31132484      -0.38153432      -0.21227506 </v>
   <v>      -0.43663227      -0.13177281      -0.21232218 </v>
   <v>       0.43849505      -0.38185290      -0.21225412 </v>
   <v>       0.06313056      -0.29475517       0.47869682 </v>
   <v>      -0.18676220       0.20542190       0.47858796 </v>
   <v>       0.31331579       0.20551379       0.47855594 </v>
   <v>      -0.43690744       0.36800678      -0.21233879 </v>
   <v>      -0.18684168      -0.29457769       0.47870823 </v>
   <v>       0.31294619      -0.29439036       0.47867948 </v>
   <v>      -0.31178577      -0.04473810       0.47867080 </v>
   <v>       0.43815533      -0.04475682       0.47863149 </v>
   <v>      -0.06195789       0.45520448       0.47867220 </v>
   <v>       0.18807332       0.45531423       0.47865293 </v>
   <v>      -0.43678600       0.20511927       0.47861306 </v>
   <v>      -0.31187379       0.45562979       0.47863266 </v>
   <v>       0.43796214       0.45545110       0.47862725 </v>
   <v>      -0.43693419      -0.29468969       0.47864883 </v>
   <v>       0.05839696       0.03869840      -0.25645828 </v>
   <v>       0.18404634      -0.21217727      -0.25629033 </v>
   <v>      -0.06599968      -0.21071205      -0.25640670 </v>
   <v>       0.30912281       0.03862813      -0.25641911 </v>
   <v>       0.18376477       0.28825701      -0.25662173 </v>
   <v>      -0.06633013       0.28820942      -0.25656386 </v>
   <v>      -0.19127941       0.03930841      -0.25678924 </v>
   <v>       0.43375868      -0.21191269      -0.25644385 </v>
   <v>       0.05889920      -0.46118029      -0.25646699 </v>
   <v>      -0.31586195      -0.21090236      -0.25633569 </v>
   <v>       0.43364870       0.28845856      -0.25657602 </v>
   <v>      -0.31620598       0.28887011      -0.25655404 </v>
   <v>       0.30774346      -0.46204031      -0.25654154 </v>
   <v>      -0.44127232       0.03874157      -0.25652704 </v>
   <v>      -0.19156379      -0.46069019      -0.25660842 </v>
   <v>       0.06364956      -0.12929106      -0.47889309 </v>
   <v>      -0.06128118       0.12129095      -0.47885649 </v>
   <v>       0.18854222       0.12121359      -0.47886957 </v>
   <v>       0.31372468      -0.12905747      -0.47889866 </v>
   <v>      -0.18660582      -0.12922756      -0.47882567 </v>
   <v>       0.06378847       0.37105262      -0.47886502 </v>
   <v>      -0.06133306      -0.37906394      -0.47887834 </v>
   <v>       0.18852455      -0.37920552      -0.47883917 </v>
   <v>      -0.31134688       0.12104463      -0.47885741 </v>
   <v>       0.43860305       0.12096815      -0.47886277 </v>
   <v>      -0.18653830       0.37094228      -0.47887802 </v>
   <v>       0.31368454       0.37091946      -0.47889503 </v>
   <v>      -0.44134330      -0.46088023      -0.25662331 </v>
   <v>      -0.31119825      -0.37911616      -0.47887683 </v>
   <v>      -0.43634337      -0.12915317      -0.47887589 </v>
   <v>       0.43848940      -0.37916278      -0.47885641 </v>
   <v>      -0.43636554       0.37116141      -0.47885891 </v>
   <v>      -0.06201330      -0.04272787      -0.30085763 </v>
   <v>       0.18859001      -0.04519169      -0.30086926 </v>
   <v>       0.06313342       0.20692053      -0.30086687 </v>
   <v>       0.06332924      -0.29297543      -0.30080811 </v>
   <v>       0.31299653       0.20715939      -0.30086834 </v>
   <v>      -0.18706806       0.20739759      -0.30090457 </v>
   <v>       0.31250346      -0.29202484      -0.30087665 </v>
   <v>      -0.18686593      -0.29284166      -0.30091339 </v>
   <v>      -0.31192333      -0.04299587      -0.30086918 </v>
   <v>       0.43797738      -0.04299872      -0.30084033 </v>
   <v>      -0.06236733       0.45704973      -0.30079509 </v>
   <v>       0.18797889       0.45720073      -0.30087590 </v>
   <v>      -0.43687225       0.20744963      -0.30085639 </v>
   <v>      -0.31193023       0.45693427      -0.30084797 </v>
   <v>       0.43819709       0.45703129      -0.30091133 </v>
   <v>      -0.06237989      -0.04260324      -0.43490442 </v>
   <v>       0.18809086      -0.04288645      -0.43490545 </v>
   <v>       0.06281827       0.20720003      -0.43487053 </v>
   <v>      -0.43730114      -0.29300159      -0.30083245 </v>
   <v>       0.06271398      -0.29251633      -0.43496017 </v>
   <v>      -0.18718626       0.20724543      -0.43497882 </v>
   <v>       0.31302616       0.20745624      -0.43492925 </v>
   <v>       0.31258380      -0.29239823      -0.43485209 </v>
   <v>      -0.18649432      -0.29269518      -0.43473842 </v>
   <v>       0.43781673      -0.04274128      -0.43493290 </v>
   <v>      -0.31175631      -0.04279550      -0.43487763 </v>
   <v>      -0.06201161       0.45726215      -0.43480252 </v>
   <v>       0.18791978       0.45703514      -0.43479057 </v>
   <v>      -0.43700308       0.20731849      -0.43489080 </v>
   <v>      -0.31213098       0.45713452      -0.43492015 </v>
   <v>       0.43775225       0.45725686      -0.43491355 </v>
   <v>      -0.43748198      -0.29236179      -0.43471366 </v>
   <v>       0.06086371      -0.12698107      -0.34554558 </v>
   <v>       0.18578085       0.12326747      -0.34547215 </v>
   <v>      -0.06390464       0.12296468      -0.34552764 </v>
   <v>      -0.18916921      -0.12683980      -0.34550805 </v>
   <v>       0.31125478      -0.12650868      -0.34558566 </v>
   <v>       0.06094435       0.37339326      -0.34566057 </v>
   <v>       0.18626550      -0.37704892      -0.34553161 </v>
   <v>      -0.06383393      -0.37643877      -0.34556246 </v>
   <v>      -0.31385771       0.12342106      -0.34562129 </v>
   <v>       0.31098713       0.37318925      -0.34557436 </v>
   <v>      -0.18910142       0.37335813      -0.34556274 </v>
   <v>       0.43629739       0.12249544      -0.34580624 </v>
   <v>      -0.43938601      -0.12689812      -0.34553525 </v>
   <v>       0.43662486      -0.37696131      -0.34560915 </v>
   <v>      -0.31393317      -0.37670833      -0.34556252 </v>
   <v>       0.06434276       0.03767630      -0.38971010 </v>
   <v>      -0.43865808       0.37331648      -0.34553664 </v>
   <v>      -0.06130874      -0.21094789      -0.38964579 </v>
   <v>       0.18868583      -0.21083149      -0.38955096 </v>
   <v>      -0.18603676       0.03896438      -0.38957448 </v>
   <v>      -0.06090604       0.28885545      -0.38950460 </v>
   <v>       0.18881130       0.28887865      -0.38952299 </v>
   <v>       0.31468983       0.03825420      -0.38936931 </v>
   <v>       0.06389438      -0.46260394      -0.38970359 </v>
   <v>      -0.31117709      -0.21099600      -0.38958496 </v>
   <v>       0.43941175      -0.21158758      -0.38967972 </v>
   <v>      -0.31137665       0.28915943      -0.38954304 </v>
   <v>       0.43874539       0.28899521      -0.38955698 </v>
   <v>      -0.18545135      -0.46116351      -0.38957879 </v>
   <v>       0.31387242      -0.46129651      -0.38961924 </v>
   <v>      -0.43615569       0.03907035      -0.38952309 </v>
   <v>      -0.43618434      -0.46080987      -0.38952680 </v>
  </varray>
 </structure>
 <varray name="primitive_index" >
  <v type="int" >        1 </v>
  <v type="int" >       26 </v>
  <v type="int" >       60 </v>
  <v type="int" >       44 </v>
  <v type="int" >      125 </v>
  <v type="int" >       83 </v>
  <v type="int" >      202 </v>
  <v type="int" >      256 </v>
  <v type="int" >      155 </v>
  <v type="int" >      111 </v>
  <v type="int" >      102 </v>
  <v type="int" >       51 </v>
  <v type="int" >      192 </v>
  <v type="int" >      166 </v>
  <v type="int" >      284 </v>
  <v type="int" >      146 </v>
  <v type="int" >      212 </v>
  <v type="int" >      163 </v>
  <v type="int" >      283 </v>
  <v type="int" >      104 </v>
  <v type="int" >       55 </v>
  <v type="int" >      182 </v>
  <v type="int" >       50 </v>
  <v type="int" >       20 </v>
  <v type="int" >      176 </v>
  <v type="int" >      145 </v>
  <v type="int" >      117 </v>
  <v type="int" >      250 </v>
  <v type="int" >      123 </v>
  <v type="int" >      167 </v>
  <v type="int" >      205 </v>
  <v type="int" >       91 </v>
  <v type="int" >      114 </v>
  <v type="int" >      276 </v>
  <v type="int" >      213 </v>
  <v type="int" >      277 </v>
  <v type="int" >      229 </v>
  <v type="int" >       92 </v>
  <v type="int" >       97 </v>
  <v type="int" >      174 </v>
  <v type="int" >      175 </v>
  <v type="int" >      189 </v>
  <v type="int" >       30 </v>
  <v type="int" >      185 </v>
  <v type="int" >       52 </v>
  <v type="int" >      200 </v>
  <v type="int" >       24 </v>
  <v type="int" >      127 </v>
  <v type="int" >      179 </v>
  <v type="int" >      103 </v>
  <v type="int" >      164 </v>
  <v type="int" >      287 </v>
  <v type="int" >      139 </v>
  <v type="int" >      261 </v>
  <v type="int" >      243 </v>
  <v type="int" >      168 </v>
  <v type="int" >      118 </v>
  <v type="int" >      137 </v>
  <v type="int" >       58 </v>
  <v type="int" >      265 </v>
  <v type="int" >       81 </v>
  <v type="int" >      275 </v>
  <v type="int" >      281 </v>
  <v type="int" >      214 </v>
  <v type="int" >      215 </v>
  <v type="int" >      135 </v>
  <v type="int" >       72 </v>
  <v type="int" >       98 </v>
  <v type="int" >      226 </v>
  <v type="int" >       28 </v>
  <v type="int" >      263 </v>
  <v type="int" >      178 </v>
  <v type="int" >      159 </v>
  <v type="int" >      109 </v>
  <v type="int" >      242 </v>
  <v type="int" >      220 </v>
  <v type="int" >      101 </v>
  <v type="int" >      210 </v>
  <v type="int" >      130 </v>
  <v type="int" >      171 </v>
  <v type="int" >      194 </v>
  <v type="int" >      258 </v>
  <v type="int" >       47 </v>
  <v type="int" >      216 </v>
  <v type="int" >      207 </v>
  <v type="int" >       86 </v>
  <v type="int" >       73 </v>
  <v type="int" >      208 </v>
  <v type="int" >       25 </v>
  <v type="int" >       12 </v>
  <v type="int" >      172 </v>
  <v type="int" >      116 </v>
  <v type="int" >      219 </v>
  <v type="int" >      279 </v>
  <v type="int" >      206 </v>
  <v type="int" >       84 </v>
  <v type="int" >       62 </v>
  <v type="int" >      105 </v>
  <v type="int" >      268 </v>
  <v type="int" >      245 </v>
  <v type="int" >       14 </v>
  <v type="int" >      120 </v>
  <v type="int" >      280 </v>
  <v type="int" >      124 </v>
  <v type="int" >      266 </v>
  <v type="int" >      150 </v>
  <v type="int" >       29 </v>
  <v type="int" >      255 </v>
  <v type="int" >      191 </v>
  <v type="int" >        7 </v>
  <v type="int" >      190 </v>
  <v type="int" >      165 </v>
  <v type="int" >       48 </v>
  <v type="int" >       13 </v>
  <v type="int" >      248 </v>
  <v type="int" >       18 </v>
  <v type="int" >      247 </v>
  <v type="int" >      161 </v>
  <v type="int" >      264 </v>
  <v type="int" >      273 </v>
  <v type="int" >       45 </v>
  <v type="int" >      282 </v>
  <v type="int" >        4 </v>
  <v type="int" >       67 </v>
  <v type="int" >      270 </v>
  <v type="int" >       16 </v>
  <v type="int" >       64 </v>
  <v type="int" >      173 </v>
  <v type="int" >       17 </v>
  <v type="int" >      259 </v>
  <v type="int" >      134 </v>
  <v type="int" >       39 </v>
  <v type="int" >        6 </v>
  <v type="int" >      222 </v>
  <v type="int" >        5 </v>
  <v type="int" >      110 </v>
  <v type="int" >      253 </v>
  <v type="int" >       88 </v>
  <v type="int" >      181 </v>
  <v type="int" >       36 </v>
  <v type="int" >      158 </v>
  <v type="int" >      160 </v>
  <v type="int" >      204 </v>
  <v type="int" >      143 </v>
  <v type="int" >       74 </v>
  <v type="int" >       82 </v>
  <v type="int" >      235 </v>
  <v type="int" >       23 </v>
  <v type="int" >      218 </v>
  <v type="int" >      241 </v>
  <v type="int" >      131 </v>
  <v type="int" >      238 </v>
  <v type="int" >      257 </v>
  <v type="int" >      113 </v>
  <v type="int" >       80 </v>
  <v type="int" >      201 </v>
  <v type="int" >      249 </v>
  <v type="int" >      232 </v>
  <v type="int" >       69 </v>
  <v type="int" >      251 </v>
  <v type="int" >      197 </v>
  <v type="int" >      149 </v>
  <v type="int" >        3 </v>
  <v type="int" >      224 </v>
  <v type="int" >      112 </v>
  <v type="int" >      254 </v>
  <v type="int" >      132 </v>
  <v type="int" >      272 </v>
  <v type="int" >      188 </v>
  <v type="int" >       49 </v>
  <v type="int" >       57 </v>
  <v type="int" >      138 </v>
  <v type="int" >       94 </v>
  <v type="int" >      236 </v>
  <v type="int" >      223 </v>
  <v type="int" >       66 </v>
  <v type="int" >       33 </v>
  <v type="int" >      184 </v>
  <v type="int" >      157 </v>
  <v type="int" >       21 </v>
  <v type="int" >      230 </v>
  <v type="int" >      106 </v>
  <v type="int" >      234 </v>
  <v type="int" >       99 </v>
  <v type="int" >       75 </v>
  <v type="int" >      221 </v>
  <v type="int" >      269 </v>
  <v type="int" >      244 </v>
  <v type="int" >      237 </v>
  <v type="int" >      199 </v>
  <v type="int" >      156 </v>
  <v type="int" >      169 </v>
  <v type="int" >        9 </v>
  <v type="int" >      262 </v>
  <v type="int" >       46 </v>
  <v type="int" >      239 </v>
  <v type="int" >       11 </v>
  <v type="int" >      187 </v>
  <v type="int" >      151 </v>
  <v type="int" >       31 </v>
  <v type="int" >      211 </v>
  <v type="int" >       43 </v>
  <v type="int" >       71 </v>
  <v type="int" >       19 </v>
  <v type="int" >      288 </v>
  <v type="int" >      267 </v>
  <v type="int" >       87 </v>
  <v type="int" >      286 </v>
  <v type="int" >       27 </v>
  <v type="int" >      140 </v>
  <v type="int" >      144 </v>
  <v type="int" >       10 </v>
  <v type="int" >      107 </v>
  <v type="int" >      203 </v>
  <v type="int" >       68 </v>
  <v type="int" >       34 </v>
  <v type="int" >      119 </v>
  <v type="int" >      177 </v>
  <v type="int" >      183 </v>
  <v type="int" >      278 </v>
  <v type="int" >      195 </v>
  <v type="int" >       77 </v>
  <v type="int" >      252 </v>
  <v type="int" >      108 </v>
  <v type="int" >      225 </v>
  <v type="int" >      285 </v>
  <v type="int" >       37 </v>
  <v type="int" >      274 </v>
  <v type="int" >       63 </v>
  <v type="int" >      233 </v>
  <v type="int" >      154 </v>
  <v type="int" >      141 </v>
  <v type="int" >       54 </v>
  <v type="int" >       38 </v>
  <v type="int" >      152 </v>
  <v type="int" >      246 </v>
  <v type="int" >       53 </v>
  <v type="int" >       76 </v>
  <v type="int" >      193 </v>
  <v type="int" >      129 </v>
  <v type="int" >      162 </v>
  <v type="int" >      170 </v>
  <v type="int" >      133 </v>
  <v type="int" >       65 </v>
  <v type="int" >      271 </v>
  <v type="int" >       93 </v>
  <v type="int" >       90 </v>
  <v type="int" >       32 </v>
  <v type="int" >       56 </v>
  <v type="int" >       95 </v>
  <v type="int" >       42 </v>
  <v type="int" >       59 </v>
  <v type="int" >        8 </v>
  <v type="int" >      228 </v>
  <v type="int" >       70 </v>
  <v type="int" >      186 </v>
  <v type="int" >      196 </v>
  <v type="int" >      121 </v>
  <v type="int" >      122 </v>
  <v type="int" >       79 </v>
  <v type="int" >        2 </v>
  <v type="int" >      198 </v>
  <v type="int" >      153 </v>
  <v type="int" >      240 </v>
  <v type="int" >      209 </v>
  <v type="int" >       85 </v>
  <v type="int" >       35 </v>
  <v type="int" >      231 </v>
  <v type="int" >       89 </v>
  <v type="int" >       40 </v>
  <v type="int" >      227 </v>
  <v type="int" >      142 </v>
  <v type="int" >       78 </v>
  <v type="int" >      136 </v>
  <v type="int" >       15 </v>
  <v type="int" >      217 </v>
  <v type="int" >      100 </v>
  <v type="int" >       61 </v>
  <v type="int" >      148 </v>
  <v type="int" >      126 </v>
  <v type="int" >      180 </v>
  <v type="int" >       96 </v>
  <v type="int" >      147 </v>
  <v type="int" >      115 </v>
  <v type="int" >       22 </v>
  <v type="int" >       41 </v>
  <v type="int" >      260 </v>
  <v type="int" >      128 </v>
 </varray>
 <kpoints>
  <generation param="Gamma">
   <v type="int" name="divisions">       4        4        1 </v>
   <v name="usershift">      0.00000000       0.00000000       0.00000000 </v>
   <v name="genvec1">      0.25000000       0.00000000       0.00000000 </v>
   <v name="genvec2">      0.00000000       0.25000000       0.00000000 </v>
   <v name="genvec3">      0.00000000       0.00000000       1.00000000 </v>
   <v name="shift">      0.00000000       0.00000000       0.00000000 </v>
  </generation>
  <varray name="kpointlist" >
   <v>       0.00000000       0.00000000       0.00000000 </v>
   <v>       0.25000000       0.00000000       0.00000000 </v>
   <v>       0.50000000       0.00000000       0.00000000 </v>
   <v>       0.00000000       0.25000000       0.00000000 </v>
   <v>       0.25000000       0.25000000       0.00000000 </v>
   <v>       0.50000000       0.25000000       0.00000000 </v>
   <v>      -0.25000000       0.25000000       0.00000000 </v>
   <v>       0.00000000       0.50000000       0.00000000 </v>
   <v>       0.25000000       0.50000000       0.00000000 </v>
   <v>       0.50000000       0.50000000       0.00000000 </v>
  </varray>
  <varray name="weights" >
   <v>       0.06250000 </v>
   <v>       0.12500000 </v>
   <v>       0.06250000 </v>
   <v>       0.12500000 </v>
   <v>       0.12500000 </v>
   <v>       0.12500000 </v>
   <v>       0.12500000 </v>
   <v>       0.06250000 </v>
   <v>       0.12500000 </v>
   <v>       0.06250000 </v>
  </varray>
 </kpoints>
 <parameters>
  <separator name="general" >
   <i type="string" name="SYSTEM">unknown system</i>
   <i type="logical" name="LCOMPAT"> F  </i>
  </separator>
  <separator name="electronic" >
   <i type="string" name="PREC">accura</i>
   <i name="ENMAX">    450.00000000</i>
   <i name="ENAUG">    838.43500000</i>
   <i name="EDIFF">      0.00000100</i>
   <i type="int" name="IALGO">    68</i>
   <i type="int" name="IWAVPR">    11</i>
   <i type="int" name="NBANDS">  1386</i>
   <i name="NELECT">   2297.00000000</i>
   <i type="int" name="TURBO">     0</i>
   <i type="int" name="IRESTART">     0</i>
   <i type="int" name="NREBOOT">     0</i>
   <i type="int" name="NMIN">     0</i>
   <i name="EREF">      0.00000000</i>
   <separator name="electronic smearing" >
    <i type="int" name="ISMEAR">     0</i>
    <i name="SIGMA">      0.15000000</i>
    <i name="KSPACING">      0.50000000</i>
    <i type="logical" name="KGAMMA"> T  </i>
   </separator>
   <separator name="electronic projectors" >
    <i type="logical" name="LREAL"> T  </i>
    <v name="ROPT">     -0.00025000     -0.00025000</v>
    <i type="int" name="LMAXPAW">  -100</i>
    <i type="int" name="LMAXMIX">     2</i>
    <i type="logical" name="NLSPLINE"> F  </i>
   </separator>
   <separator name="electronic startup" >
    <i type="int" name="ISTART">     0</i>
    <i type="int" name="ICHARG">     2</i>
    <i type="int" name="INIWAV">     1</i>
   </separator>
   <separator name="electronic spin" >
    <i type="int" name="ISPIN">     1</i>
    <i type="logical" name="LNONCOLLINEAR"> F  </i>
    <v name="MAGMOM">      1.00000000      1.00000000      1.00000000      1.00000000      1.00000000      1.00000000      1.00000000      1.00000000      1.00000000      1.00000000      1.00000000      1.00000000      1.00000000      1.00000000      1.00000000      1.00000000      1.00000000      1.00000000      1.00000000      1.00000000
      1.00000000      1.00000000      1.00000000      1.00000000      1.00000000      1.00000000      1.00000000      1.00000000      1.00000000      1.00000000      1.00000000      1.00000000      1.00000000      1.00000000      1.00000000      1.00000000      1.00000000      1.00000000      1.00000000      1.00000000
      1.00000000      1.00000000      1.00000000      1.00000000      1.00000000      1.00000000      1.00000000      1.00000000      1.00000000      1.00000000      1.00000000      1.00000000      1.00000000      1.00000000      1.00000000      1.00000000      1.00000000      1.00000000      1.00000000      1.00000000
      1.00000000      1.00000000      1.00000000      1.00000000      1.00000000      1.00000000      1.00000000      1.00000000      1.00000000      1.00000000      1.00000000      1.00000000      1.00000000      1.00000000      1.00000000      1.00000000      1.00000000      1.00000000      1.00000000      1.00000000
      1.00000000      1.00000000      1.00000000      1.00000000      1.00000000      1.00000000      1.00000000      1.00000000      1.00000000      1.00000000      1.00000000      1.00000000      1.00000000      1.00000000      1.00000000      1.00000000      1.00000000      1.00000000      1.00000000      1.00000000
      1.00000000      1.00000000      1.00000000      1.00000000      1.00000000      1.00000000      1.00000000      1.00000000      1.00000000      1.00000000      1.00000000      1.00000000      1.00000000      1.00000000      1.00000000      1.00000000      1.00000000      1.00000000      1.00000000      1.00000000
      1.00000000      1.00000000      1.00000000      1.00000000      1.00000000      1.00000000      1.00000000      1.00000000      1.00000000      1.00000000      1.00000000      1.00000000      1.00000000      1.00000000      1.00000000      1.00000000      1.00000000      1.00000000      1.00000000      1.00000000
      1.00000000      1.00000000      1.00000000      1.00000000      1.00000000      1.00000000      1.00000000      1.00000000      1.00000000      1.00000000      1.00000000      1.00000000      1.00000000      1.00000000      1.00000000      1.00000000      1.00000000      1.00000000      1.00000000      1.00000000
      1.00000000      1.00000000      1.00000000      1.00000000      1.00000000      1.00000000      1.00000000      1.00000000      1.00000000      1.00000000      1.00000000      1.00000000      1.00000000      1.00000000      1.00000000      1.00000000      1.00000000      1.00000000      1.00000000      1.00000000
      1.00000000      1.00000000      1.00000000      1.00000000      1.00000000      1.00000000      1.00000000      1.00000000      1.00000000      1.00000000      1.00000000      1.00000000      1.00000000      1.00000000      1.00000000      1.00000000      1.00000000      1.00000000      1.00000000      1.00000000
      1.00000000      1.00000000      1.00000000      1.00000000      1.00000000      1.00000000      1.00000000      1.00000000      1.00000000      1.00000000      1.00000000      1.00000000      1.00000000      1.00000000      1.00000000      1.00000000      1.00000000      1.00000000      1.00000000      1.00000000
      1.00000000      1.00000000      1.00000000      1.00000000      1.00000000      1.00000000      1.00000000      1.00000000      1.00000000      1.00000000      1.00000000      1.00000000      1.00000000      1.00000000      1.00000000      1.00000000      1.00000000      1.00000000      1.00000000      1.00000000
      1.00000000      1.00000000      1.00000000      1.00000000      1.00000000      1.00000000      1.00000000      1.00000000      1.00000000      1.00000000      1.00000000      1.00000000      1.00000000      1.00000000      1.00000000      1.00000000      1.00000000      1.00000000      1.00000000      1.00000000
      1.00000000      1.00000000      1.00000000      1.00000000      1.00000000      1.00000000      1.00000000      1.00000000      1.00000000      1.00000000      1.00000000      1.00000000      1.00000000      1.00000000      1.00000000      1.00000000      1.00000000      1.00000000      1.00000000      1.00000000
      1.00000000      1.00000000      1.00000000      1.00000000      1.00000000      1.00000000      1.00000000      1.00000000</v>
    <i name="NUPDOWN">     -1.00000000</i>
    <i type="logical" name="LSORBIT"> F  </i>
    <v name="SAXIS">      0.00000000      0.00000000      1.00000000</v>
    <i type="logical" name="LSPIRAL"> F  </i>
    <v name="QSPIRAL">      0.00000000      0.00000000      0.00000000</v>
    <i type="logical" name="LZEROZ"> F  </i>
   </separator>
   <separator name="electronic exchange-correlation" >
    <i type="logical" name="LASPH"> F  </i>
    <i type="logical" name="LMETAGGA"> F  </i>
   </separator>
   <separator name="electronic convergence" >
    <i type="int" name="NELM">   100</i>
    <i type="int" name="NELMDL">     0</i>
    <i type="int" name="NELMIN">     4</i>
    <i name="ENINI">    450.00000000</i>
    <separator name="electronic convergence detail" >
     <i type="logical" name="LDIAG"> T  </i>
     <i type="logical" name="LSUBROT"> F  </i>
     <i name="WEIMIN">      0.00100000</i>
     <i name="EBREAK">      0.00000000</i>
     <i name="DEPER">      0.30000000</i>
     <i type="int" name="NRMM">     4</i>
     <i name="TIME">      0.40000000</i>
    </separator>
   </separator>
   <separator name="electronic mixer" >
    <i name="AMIX">      0.40000000</i>
    <i name="BMIX">      1.00000000</i>
    <i name="AMIN">      0.10000000</i>
    <i name="AMIX_MAG">      1.60000000</i>
    <i name="BMIX_MAG">      1.00000000</i>
    <separator name="electronic mixer details" >
     <i type="int" name="IMIX">     4</i>
     <i type="logical" name="MIXFIRST"> F  </i>
     <i type="int" name="MAXMIX">   -45</i>
     <i name="WC">    100.00000000</i>
     <i type="int" name="INIMIX">     1</i>
     <i type="int" name="MIXPRE">     1</i>
     <i type="int" name="MREMOVE">     5</i>
    </separator>
   </separator>
   <separator name="electronic dipolcorrection" >
    <i type="logical" name="LDIPOL"> F  </i>
    <i type="logical" name="LMONO"> F  </i>
    <i type="int" name="IDIPOL">     0</i>
    <i name="EPSILON">      1.00000000</i>
    <v name="DIPOL">   -100.00000000   -100.00000000   -100.00000000</v>
    <i name="EFIELD">      0.00000000</i>
   </separator>
  </separator>
  <separator name="grids" >
   <i type="int" name="NGX">    70</i>
   <i type="int" name="NGY">    60</i>
   <i type="int" name="NGZ">   320</i>
   <i type="int" name="NGXF">   140</i>
   <i type="int" name="NGYF">   120</i>
   <i type="int" name="NGZF">   640</i>
   <i type="logical" name="ADDGRID"> F  </i>
  </separator>
  <separator name="ionic" >
   <i type="int" name="NSW">     5</i>
   <i type="int" name="IBRION">     2</i>
   <i type="int" name="MDALGO">     0</i>
   <i type="int" name="ISIF">     2</i>
   <i name="PSTRESS">      0.00000000</i>
   <i name="EDIFFG">      0.00001000</i>
   <i type="int" name="NFREE">     1</i>
   <i name="POTIM">      0.25000000</i>
   <i name="SMASS">     -3.00000000</i>
   <i name="SCALEE">      1.00000000</i>
  </separator>
  <separator name="ionic md" >
   <i name="TEBEG">      0.00010000</i>
   <i name="TEEND">      0.00010000</i>
   <i type="int" name="NBLOCK">     1</i>
   <i type="int" name="KBLOCK">     5</i>
   <i type="int" name="NPACO">   256</i>
   <i name="APACO">     16.00000000</i>
  </separator>
  <separator name="symmetry" >
   <i type="int" name="ISYM">     2</i>
   <i name="SYMPREC">      0.00001000</i>
  </separator>
  <separator name="dos" >
   <i type="int" name="LORBIT">     0</i>
   <v name="RWIGS">     -1.00000000     -1.00000000</v>
   <i type="int" name="NEDOS">   301</i>
   <i name="EMIN">     10.00000000</i>
   <i name="EMAX">    -10.00000000</i>
   <i name="EFERMI">      0.00000000</i>
  </separator>
  <separator name="writing" >
   <i type="int" name="NWRITE">     2</i>
   <i type="logical" name="LWAVE"> F  </i>
   <i type="logical" name="LDOWNSAMPLE"> F  </i>
   <i type="logical" name="LCHARG"> F  </i>
   <i type="logical" name="LPARD"> F  </i>
   <i type="logical" name="LVTOT"> F  </i>
   <i type="logical" name="LVHAR"> F  </i>
   <i type="logical" name="LELF"> F  </i>
   <i type="logical" name="LOPTICS"> F  </i>
   <v name="STM">      0.00000000      0.00000000      0.00000000      0.00000000      0.00000000      0.00000000      0.00000000</v>
  </separator>
  <separator name="performance" >
   <i type="int" name="NPAR">    14</i>
   <i type="int" name="NSIM">     4</i>
   <i type="int" name="NBLK">    -1</i>
   <i type="logical" name="LPLANE"> T  </i>
   <i type="logical" name="LSCALAPACK"> T  </i>
   <i type="logical" name="LSCAAWARE"> T  </i>
   <i type="logical" name="LSCALU"> F  </i>
   <i type="logical" name="LASYNC"> F  </i>
   <i type="logical" name="LORBITALREAL"> F  </i>
  </separator>
  <separator name="miscellaneous" >
   <i type="int" name="IDIOT">     3</i>
   <i type="int" name="ISPECIAL">     0</i>
   <i type="logical" name="LMUSIC"> F  </i>
   <v name="POMASS">     55.84700000     54.93800000</v>
   <v name="DARWINR">      0.00000000      0.00000000</v>
   <v name="DARWINV">      1.00000000      1.00000000</v>
   <i type="logical" name="LCORR"> T  </i>
  </separator>
  <i type="logical" name="GGA_COMPAT"> T  </i>
  <i type="logical" name="LBERRY"> F  </i>
  <i type="int" name="ICORELEVEL">     0</i>
  <i type="logical" name="LDAU"> F  </i>
  <i type="int" name="I_CONSTRAINED_M">     0</i>
  <separator name="electronic exchange-correlation" >
   <i type="string" name="GGA">--</i>
   <i type="int" name="VOSKOWN">     0</i>
   <i type="logical" name="LHFCALC"> F  </i>
   <i type="string" name="PRECFOCK"></i>
   <i type="logical" name="LSYMGRAD"> F  </i>
   <i type="logical" name="LHFONE"> F  </i>
   <i type="logical" name="LRHFCALC"> F  </i>
   <i type="logical" name="LTHOMAS"> F  </i>
   <i type="logical" name="LMODELHF"> F  </i>
   <i name="ENCUT4O">     -1.00000000</i>
   <i type="int" name="EXXOEP">     0</i>
   <i type="int" name="FOURORBIT">     0</i>
   <i name="AEXX">      0.00000000</i>
   <i name="HFALPHA">      0.00000000</i>
   <i name="MCALPHA">      0.00000000</i>
   <i name="ALDAX">      1.00000000</i>
   <i name="AGGAX">      1.00000000</i>
   <i name="ALDAC">      1.00000000</i>
   <i name="AGGAC">      1.00000000</i>
   <i type="int" name="NKREDX">     1</i>
   <i type="int" name="NKREDY">     1</i>
   <i type="int" name="NKREDZ">     1</i>
   <i type="logical" name="SHIFTRED"> F  </i>
   <i type="logical" name="ODDONLY"> F  </i>
   <i type="logical" name="EVENONLY"> F  </i>
   <i type="int" name="LMAXFOCK">     0</i>
   <i type="int" name="NMAXFOCKAE">     0</i>
   <i type="logical" name="LFOCKAEDFT"> F  </i>
   <i name="HFSCREEN">      0.00000000</i>
   <i name="HFSCREENC">      0.00000000</i>
   <i type="int" name="NBANDSGWLOW">     0</i>
  </separator>
  <separator name="vdW DFT" >
   <i type="logical" name="LUSE_VDW"> F  </i>
   <i name="Zab_VDW">     -0.84910000</i>
   <i name="PARAM1">      0.12340000</i>
   <i name="PARAM2">      1.00000000</i>
   <i name="PARAM3">      0.00000000</i>
  </separator>
  <separator name="model GW" >
   <i type="int" name="MODEL_GW">     0</i>
   <i name="MODEL_EPS0">      7.68123389</i>
   <i name="MODEL_ALPHA">      1.00000000</i>
  </separator>
  <separator name="linear response parameters" >
   <i type="logical" name="LEPSILON"> F  </i>
   <i type="logical" name="LRPA"> F  </i>
   <i type="logical" name="LNABLA"> F  </i>
   <i type="logical" name="LVEL"> F  </i>
   <i type="int" name="KINTER">     0</i>
   <i name="CSHIFT">      0.10000000</i>
   <i name="OMEGAMAX">     -1.00000000</i>
   <i name="DEG_THRESHOLD">      0.00200000</i>
   <i name="RTIME">     -0.10000000</i>
   <i name="WPLASMAI">      0.00000000</i>
   <v name="DFIELD">      0.00000000      0.00000000      0.00000000</v>
   <v name="WPLASMA">      0.00000000      0.00000000      0.00000000      0.00000000      0.00000000      0.00000000      0.00000000      0.00000000      0.00000000</v>
  </separator>
  <separator name="orbital magnetization" >
   <i type="logical" name="NUCIND"> F  </i>
   <v name="MAGPOS">      0.00000000      0.00000000      0.00000000</v>
   <i type="logical" name="LNICSALL"> T  </i>
   <i type="logical" name="ORBITALMAG"> F  </i>
   <i type="logical" name="LMAGBLOCH"> F  </i>
   <i type="logical" name="LCHIMAG"> F  </i>
   <i type="logical" name="LGAUGE"> T  </i>
   <i type="int" name="MAGATOM">     0</i>
   <v name="MAGDIPOL">      0.00000000      0.00000000      0.00000000</v>
   <v name="AVECCONST">      0.00000000      0.00000000      0.00000000</v>
  </separator>
  <separator name="response functions" >
   <i type="logical" name="LADDER"> F  </i>
   <i type="logical" name="LRPAFORCE"> F  </i>
   <i type="logical" name="LFXC"> F  </i>
   <i type="logical" name="LHARTREE"> T  </i>
   <i type="int" name="IBSE">     0</i>
   <v type="int" name="KPOINT">    -1     0     0     0</v>
   <i type="logical" name="LTCTE"> F  </i>
   <i type="logical" name="LTETE"> F  </i>
   <i type="logical" name="LTRIPLET"> F  </i>
   <i type="logical" name="LFXCEPS"> F  </i>
   <i type="logical" name="LFXHEG"> F  </i>
   <i type="int" name="NATURALO">     2</i>
   <i type="logical" name="L2ORDER"> F  </i>
   <i type="logical" name="LMP2LT"> F  </i>
   <i type="logical" name="LUSEW"> F  </i>
   <i name="ENCUTGW">     -2.00000000</i>
   <i name="ENCUTGWSOFT">     -2.00000000</i>
   <i name="ENCUTLF">     -1.00000000</i>
   <i type="int" name="LMAXMP2">    -1</i>
   <i name="SCISSOR">      0.00000000</i>
   <i type="int" name="NOMEGA">     0</i>
   <i type="int" name="NOMEGAR">     0</i>
   <i type="int" name="NBANDSGW">    -1</i>
   <i type="int" name="NBANDSO">    -1</i>
   <i type="int" name="NBANDSV">    -1</i>
   <i type="int" name="NELM">   100</i>
   <i type="int" name="NELMHF">     1</i>
   <i type="int" name="DIM">     3</i>
   <i type="int" name="ANTIRES">     0</i>
   <i name="OMEGAMAX">    -30.00000000</i>
   <i name="OMEGAMIN">    -30.00000000</i>
   <i name="OMEGATL">   -200.00000000</i>
   <i type="int" name="OMEGAGRID">   140</i>
   <i name="CSHIFT">     -0.10000000</i>
   <i type="logical" name="SELFENERGY"> F  </i>
   <i type="logical" name="LSPECTRAL"> F  </i>
   <i type="logical" name="LSPECTRALGW"> F  </i>
   <i type="logical" name="LSINGLES"> F  </i>
   <i type="logical" name="LFERMIGW"> F  </i>
   <i type="logical" name="ODDONLYGW"> F  </i>
   <i type="logical" name="EVENONLYGW"> F  </i>
   <i type="int" name="NKREDLFX">     1</i>
   <i type="int" name="NKREDLFY">     1</i>
   <i type="int" name="NKREDLFZ">     1</i>
   <i type="int" name="MAXMEM">  2800</i>
   <i type="int" name="TELESCOPE">     0</i>
   <i type="int" name="TAUPAR">     1</i>
   <i type="int" name="OMEGAPAR">    -1</i>
   <i name="LAMBDA">      1.00000000</i>
  </separator>
  <separator name="External order field" >
   <i name="OFIELD_KAPPA">      0.00000000</i>
   <v name="OFIELD_K">      0.00000000      0.00000000      0.00000000</v>
   <i name="OFIELD_Q6_NEAR">      0.00000000</i>
   <i name="OFIELD_Q6_FAR">      0.00000000</i>
   <i name="OFIELD_A">      0.00000000</i>
  </separator>
 </parameters>
 <atominfo>
  <atoms>     288 </atoms>
  <types>       2 </types>
  <array name="atoms" >
   <dimension dim="1">ion</dimension>
   <field type="string">element</field>
   <field type="int">atomtype</field>
   <set>
    <rc><c>Fe</c><c>   1</c></rc>
    <rc><c>Fe</c><c>   1</c></rc>
    <rc><c>Fe</c><c>   1</c></rc>
    <rc><c>Fe</c><c>   1</c></rc>
    <rc><c>Fe</c><c>   1</c></rc>
    <rc><c>Fe</c><c>   1</c></rc>
    <rc><c>Fe</c><c>   1</c></rc>
    <rc><c>Fe</c><c>   1</c></rc>
    <rc><c>Fe</c><c>   1</c></rc>
    <rc><c>Fe</c><c>   1</c></rc>
    <rc><c>Fe</c><c>   1</c></rc>
    <rc><c>Fe</c><c>   1</c></rc>
    <rc><c>Fe</c><c>   1</c></rc>
    <rc><c>Fe</c><c>   1</c></rc>
    <rc><c>Fe</c><c>   1</c></rc>
    <rc><c>Fe</c><c>   1</c></rc>
    <rc><c>Fe</c><c>   1</c></rc>
    <rc><c>Fe</c><c>   1</c></rc>
    <rc><c>Fe</c><c>   1</c></rc>
    <rc><c>Fe</c><c>   1</c></rc>
    <rc><c>Fe</c><c>   1</c></rc>
    <rc><c>Fe</c><c>   1</c></rc>
    <rc><c>Fe</c><c>   1</c></rc>
    <rc><c>Fe</c><c>   1</c></rc>
    <rc><c>Fe</c><c>   1</c></rc>
    <rc><c>Fe</c><c>   1</c></rc>
    <rc><c>Fe</c><c>   1</c></rc>
    <rc><c>Fe</c><c>   1</c></rc>
    <rc><c>Fe</c><c>   1</c></rc>
    <rc><c>Fe</c><c>   1</c></rc>
    <rc><c>Fe</c><c>   1</c></rc>
    <rc><c>Fe</c><c>   1</c></rc>
    <rc><c>Fe</c><c>   1</c></rc>
    <rc><c>Fe</c><c>   1</c></rc>
    <rc><c>Fe</c><c>   1</c></rc>
    <rc><c>Fe</c><c>   1</c></rc>
    <rc><c>Fe</c><c>   1</c></rc>
    <rc><c>Fe</c><c>   1</c></rc>
    <rc><c>Fe</c><c>   1</c></rc>
    <rc><c>Fe</c><c>   1</c></rc>
    <rc><c>Fe</c><c>   1</c></rc>
    <rc><c>Fe</c><c>   1</c></rc>
    <rc><c>Fe</c><c>   1</c></rc>
    <rc><c>Fe</c><c>   1</c></rc>
    <rc><c>Fe</c><c>   1</c></rc>
    <rc><c>Fe</c><c>   1</c></rc>
    <rc><c>Fe</c><c>   1</c></rc>
    <rc><c>Fe</c><c>   1</c></rc>
    <rc><c>Fe</c><c>   1</c></rc>
    <rc><c>Fe</c><c>   1</c></rc>
    <rc><c>Fe</c><c>   1</c></rc>
    <rc><c>Fe</c><c>   1</c></rc>
    <rc><c>Fe</c><c>   1</c></rc>
    <rc><c>Fe</c><c>   1</c></rc>
    <rc><c>Fe</c><c>   1</c></rc>
    <rc><c>Fe</c><c>   1</c></rc>
    <rc><c>Fe</c><c>   1</c></rc>
    <rc><c>Fe</c><c>   1</c></rc>
    <rc><c>Fe</c><c>   1</c></rc>
    <rc><c>Fe</c><c>   1</c></rc>
    <rc><c>Fe</c><c>   1</c></rc>
    <rc><c>Fe</c><c>   1</c></rc>
    <rc><c>Fe</c><c>   1</c></rc>
    <rc><c>Fe</c><c>   1</c></rc>
    <rc><c>Fe</c><c>   1</c></rc>
    <rc><c>Fe</c><c>   1</c></rc>
    <rc><c>Fe</c><c>   1</c></rc>
    <rc><c>Fe</c><c>   1</c></rc>
    <rc><c>Fe</c><c>   1</c></rc>
    <rc><c>Fe</c><c>   1</c></rc>
    <rc><c>Fe</c><c>   1</c></rc>
    <rc><c>Fe</c><c>   1</c></rc>
    <rc><c>Fe</c><c>   1</c></rc>
    <rc><c>Fe</c><c>   1</c></rc>
    <rc><c>Fe</c><c>   1</c></rc>
    <rc><c>Fe</c><c>   1</c></rc>
    <rc><c>Fe</c><c>   1</c></rc>
    <rc><c>Fe</c><c>   1</c></rc>
    <rc><c>Fe</c><c>   1</c></rc>
    <rc><c>Fe</c><c>   1</c></rc>
    <rc><c>Fe</c><c>   1</c></rc>
    <rc><c>Fe</c><c>   1</c></rc>
    <rc><c>Fe</c><c>   1</c></rc>
    <rc><c>Fe</c><c>   1</c></rc>
    <rc><c>Fe</c><c>   1</c></rc>
    <rc><c>Fe</c><c>   1</c></rc>
    <rc><c>Fe</c><c>   1</c></rc>
    <rc><c>Fe</c><c>   1</c></rc>
    <rc><c>Fe</c><c>   1</c></rc>
    <rc><c>Fe</c><c>   1</c></rc>
    <rc><c>Fe</c><c>   1</c></rc>
    <rc><c>Fe</c><c>   1</c></rc>
    <rc><c>Fe</c><c>   1</c></rc>
    <rc><c>Fe</c><c>   1</c></rc>
    <rc><c>Fe</c><c>   1</c></rc>
    <rc><c>Fe</c><c>   1</c></rc>
    <rc><c>Fe</c><c>   1</c></rc>
    <rc><c>Fe</c><c>   1</c></rc>
    <rc><c>Fe</c><c>   1</c></rc>
    <rc><c>Fe</c><c>   1</c></rc>
    <rc><c>Fe</c><c>   1</c></rc>
    <rc><c>Fe</c><c>   1</c></rc>
    <rc><c>Fe</c><c>   1</c></rc>
    <rc><c>Fe</c><c>   1</c></rc>
    <rc><c>Fe</c><c>   1</c></rc>
    <rc><c>Fe</c><c>   1</c></rc>
    <rc><c>Fe</c><c>   1</c></rc>
    <rc><c>Fe</c><c>   1</c></rc>
    <rc><c>Fe</c><c>   1</c></rc>
    <rc><c>Fe</c><c>   1</c></rc>
    <rc><c>Fe</c><c>   1</c></rc>
    <rc><c>Fe</c><c>   1</c></rc>
    <rc><c>Fe</c><c>   1</c></rc>
    <rc><c>Fe</c><c>   1</c></rc>
    <rc><c>Fe</c><c>   1</c></rc>
    <rc><c>Fe</c><c>   1</c></rc>
    <rc><c>Fe</c><c>   1</c></rc>
    <rc><c>Fe</c><c>   1</c></rc>
    <rc><c>Fe</c><c>   1</c></rc>
    <rc><c>Fe</c><c>   1</c></rc>
    <rc><c>Fe</c><c>   1</c></rc>
    <rc><c>Fe</c><c>   1</c></rc>
    <rc><c>Fe</c><c>   1</c></rc>
    <rc><c>Fe</c><c>   1</c></rc>
    <rc><c>Fe</c><c>   1</c></rc>
    <rc><c>Fe</c><c>   1</c></rc>
    <rc><c>Fe</c><c>   1</c></rc>
    <rc><c>Fe</c><c>   1</c></rc>
    <rc><c>Fe</c><c>   1</c></rc>
    <rc><c>Fe</c><c>   1</c></rc>
    <rc><c>Fe</c><c>   1</c></rc>
    <rc><c>Fe</c><c>   1</c></rc>
    <rc><c>Fe</c><c>   1</c></rc>
    <rc><c>Fe</c><c>   1</c></rc>
    <rc><c>Fe</c><c>   1</c></rc>
    <rc><c>Fe</c><c>   1</c></rc>
    <rc><c>Fe</c><c>   1</c></rc>
    <rc><c>Fe</c><c>   1</c></rc>
    <rc><c>Fe</c><c>   1</c></rc>
    <rc><c>Fe</c><c>   1</c></rc>
    <rc><c>Fe</c><c>   1</c></rc>
    <rc><c>Fe</c><c>   1</c></rc>
    <rc><c>Fe</c><c>   1</c></rc>
    <rc><c>Fe</c><c>   1</c></rc>
    <rc><c>Fe</c><c>   1</c></rc>
    <rc><c>Fe</c><c>   1</c></rc>
    <rc><c>Fe</c><c>   1</c></rc>
    <rc><c>Fe</c><c>   1</c></rc>
    <rc><c>Fe</c><c>   1</c></rc>
    <rc><c>Fe</c><c>   1</c></rc>
    <rc><c>Fe</c><c>   1</c></rc>
    <rc><c>Fe</c><c>   1</c></rc>
    <rc><c>Fe</c><c>   1</c></rc>
    <rc><c>Fe</c><c>   1</c></rc>
    <rc><c>Fe</c><c>   1</c></rc>
    <rc><c>Fe</c><c>   1</c></rc>
    <rc><c>Fe</c><c>   1</c></rc>
    <rc><c>Fe</c><c>   1</c></rc>
    <rc><c>Fe</c><c>   1</c></rc>
    <rc><c>Fe</c><c>   1</c></rc>
    <rc><c>Fe</c><c>   1</c></rc>
    <rc><c>Fe</c><c>   1</c></rc>
    <rc><c>Fe</c><c>   1</c></rc>
    <rc><c>Fe</c><c>   1</c></rc>
    <rc><c>Fe</c><c>   1</c></rc>
    <rc><c>Fe</c><c>   1</c></rc>
    <rc><c>Fe</c><c>   1</c></rc>
    <rc><c>Fe</c><c>   1</c></rc>
    <rc><c>Fe</c><c>   1</c></rc>
    <rc><c>Fe</c><c>   1</c></rc>
    <rc><c>Fe</c><c>   1</c></rc>
    <rc><c>Fe</c><c>   1</c></rc>
    <rc><c>Fe</c><c>   1</c></rc>
    <rc><c>Fe</c><c>   1</c></rc>
    <rc><c>Fe</c><c>   1</c></rc>
    <rc><c>Fe</c><c>   1</c></rc>
    <rc><c>Fe</c><c>   1</c></rc>
    <rc><c>Fe</c><c>   1</c></rc>
    <rc><c>Fe</c><c>   1</c></rc>
    <rc><c>Fe</c><c>   1</c></rc>
    <rc><c>Fe</c><c>   1</c></rc>
    <rc><c>Fe</c><c>   1</c></rc>
    <rc><c>Fe</c><c>   1</c></rc>
    <rc><c>Fe</c><c>   1</c></rc>
    <rc><c>Fe</c><c>   1</c></rc>
    <rc><c>Fe</c><c>   1</c></rc>
    <rc><c>Fe</c><c>   1</c></rc>
    <rc><c>Fe</c><c>   1</c></rc>
    <rc><c>Fe</c><c>   1</c></rc>
    <rc><c>Fe</c><c>   1</c></rc>
    <rc><c>Fe</c><c>   1</c></rc>
    <rc><c>Fe</c><c>   1</c></rc>
    <rc><c>Fe</c><c>   1</c></rc>
    <rc><c>Fe</c><c>   1</c></rc>
    <rc><c>Fe</c><c>   1</c></rc>
    <rc><c>Fe</c><c>   1</c></rc>
    <rc><c>Fe</c><c>   1</c></rc>
    <rc><c>Fe</c><c>   1</c></rc>
    <rc><c>Fe</c><c>   1</c></rc>
    <rc><c>Fe</c><c>   1</c></rc>
    <rc><c>Fe</c><c>   1</c></rc>
    <rc><c>Fe</c><c>   1</c></rc>
    <rc><c>Fe</c><c>   1</c></rc>
    <rc><c>Fe</c><c>   1</c></rc>
    <rc><c>Fe</c><c>   1</c></rc>
    <rc><c>Fe</c><c>   1</c></rc>
    <rc><c>Fe</c><c>   1</c></rc>
    <rc><c>Fe</c><c>   1</c></rc>
    <rc><c>Fe</c><c>   1</c></rc>
    <rc><c>Fe</c><c>   1</c></rc>
    <rc><c>Fe</c><c>   1</c></rc>
    <rc><c>Fe</c><c>   1</c></rc>
    <rc><c>Fe</c><c>   1</c></rc>
    <rc><c>Fe</c><c>   1</c></rc>
    <rc><c>Fe</c><c>   1</c></rc>
    <rc><c>Fe</c><c>   1</c></rc>
    <rc><c>Fe</c><c>   1</c></rc>
    <rc><c>Fe</c><c>   1</c></rc>
    <rc><c>Fe</c><c>   1</c></rc>
    <rc><c>Fe</c><c>   1</c></rc>
    <rc><c>Fe</c><c>   1</c></rc>
    <rc><c>Fe</c><c>   1</c></rc>
    <rc><c>Fe</c><c>   1</c></rc>
    <rc><c>Fe</c><c>   1</c></rc>
    <rc><c>Fe</c><c>   1</c></rc>
    <rc><c>Fe</c><c>   1</c></rc>
    <rc><c>Fe</c><c>   1</c></rc>
    <rc><c>Fe</c><c>   1</c></rc>
    <rc><c>Fe</c><c>   1</c></rc>
    <rc><c>Fe</c><c>   1</c></rc>
    <rc><c>Fe</c><c>   1</c></rc>
    <rc><c>Fe</c><c>   1</c></rc>
    <rc><c>Fe</c><c>   1</c></rc>
    <rc><c>Fe</c><c>   1</c></rc>
    <rc><c>Fe</c><c>   1</c></rc>
    <rc><c>Fe</c><c>   1</c></rc>
    <rc><c>Fe</c><c>   1</c></rc>
    <rc><c>Fe</c><c>   1</c></rc>
    <rc><c>Fe</c><c>   1</c></rc>
    <rc><c>Fe</c><c>   1</c></rc>
    <rc><c>Fe</c><c>   1</c></rc>
    <rc><c>Fe</c><c>   1</c></rc>
    <rc><c>Fe</c><c>   1</c></rc>
    <rc><c>Fe</c><c>   1</c></rc>
    <rc><c>Fe</c><c>   1</c></rc>
    <rc><c>Fe</c><c>   1</c></rc>
    <rc><c>Fe</c><c>   1</c></rc>
    <rc><c>Fe</c><c>   1</c></rc>
    <rc><c>Fe</c><c>   1</c></rc>
    <rc><c>Fe</c><c>   1</c></rc>
    <rc><c>Fe</c><c>   1</c></rc>
    <rc><c>Fe</c><c>   1</c></rc>
    <rc><c>Fe</c><c>   1</c></rc>
    <rc><c>Fe</c><c>   1</c></rc>
    <rc><c>Fe</c><c>   1</c></rc>
    <rc><c>Fe</c><c>   1</c></rc>
    <rc><c>Fe</c><c>   1</c></rc>
    <rc><c>Fe</c><c>   1</c></rc>
    <rc><c>Fe</c><c>   1</c></rc>
    <rc><c>Fe</c><c>   1</c></rc>
    <rc><c>Fe</c><c>   1</c></rc>
    <rc><c>Fe</c><c>   1</c></rc>
    <rc><c>Fe</c><c>   1</c></rc>
    <rc><c>Fe</c><c>   1</c></rc>
    <rc><c>Fe</c><c>   1</c></rc>
    <rc><c>Fe</c><c>   1</c></rc>
    <rc><c>Fe</c><c>   1</c></rc>
    <rc><c>Fe</c><c>   1</c></rc>
    <rc><c>Fe</c><c>   1</c></rc>
    <rc><c>Fe</c><c>   1</c></rc>
    <rc><c>Fe</c><c>   1</c></rc>
    <rc><c>Fe</c><c>   1</c></rc>
    <rc><c>Fe</c><c>   1</c></rc>
    <rc><c>Fe</c><c>   1</c></rc>
    <rc><c>Fe</c><c>   1</c></rc>
    <rc><c>Fe</c><c>   1</c></rc>
    <rc><c>Fe</c><c>   1</c></rc>
    <rc><c>Fe</c><c>   1</c></rc>
    <rc><c>Fe</c><c>   1</c></rc>
    <rc><c>Fe</c><c>   1</c></rc>
    <rc><c>Fe</c><c>   1</c></rc>
    <rc><c>Mn</c><c>   2</c></rc>
    <rc><c>Mn</c><c>   2</c></rc>
    <rc><c>Mn</c><c>   2</c></rc>
    <rc><c>Mn</c><c>   2</c></rc>
    <rc><c>Mn</c><c>   2</c></rc>
    <rc><c>Mn</c><c>   2</c></rc>
    <rc><c>Mn</c><c>   2</c></rc>
   </set>
  </array>
  <array name="atomtypes" >
   <dimension dim="1">type</dimension>
   <field type="int">atomspertype</field>
   <field type="string">element</field>
   <field>mass</field>
   <field>valence</field>
   <field type="string">pseudopotential</field>
   <set>
    <rc><c> 281</c><c>Fe</c><c>     55.84700000</c><c>      8.00000000</c><c>  PAW_PBE Fe_GW 31Mar2010               </c></rc>
    <rc><c>   7</c><c>Mn</c><c>     54.93800000</c><c>      7.00000000</c><c>  PAW_PBE Mn_GW 31Mar2010               </c></rc>
   </set>
  </array>
 </atominfo>
 <structure name="initialpos" >
  <crystal>
   <varray name="basis" >
    <v>       9.72667804       0.00000000       0.00000000 </v>
    <v>       0.00000000       8.42355028       0.00000000 </v>
    <v>       0.00000000       0.00000000      45.00000000 </v>
   </varray>
   <i name="volume">   3686.99226691 </i>
   <varray name="rec_basis" >
    <v>       0.10281002       0.00000000       0.00000000 </v>
    <v>       0.00000000       0.11871479       0.00000000 </v>
    <v>       0.00000000       0.00000000       0.02222222 </v>
   </varray>
  </crystal>
  <varray name="positions" >
   <v>       0.06235900       0.03267931       0.12516309 </v>
   <v>       0.31125478       0.87349132       0.65441434 </v>
   <v>       0.18838879       0.11821710       0.78778482 </v>
   <v>       0.43753398       0.29012539       0.38945030 </v>
   <v>       0.30834984       0.71156828       0.83266976 </v>
   <v>       0.80867426       0.21094885       0.83241926 </v>
   <v>       0.18678813       0.78970441       0.38931312 </v>
   <v>       0.56299692       0.20731849       0.56510920 </v>
   <v>       0.05839696       0.03869840       0.74354172 </v>
   <v>       0.81339418       0.87077244       0.52117433 </v>
   <v>       0.18376477       0.28825701       0.74337827 </v>
   <v>       0.93912910       0.45418173       0.34541621 </v>
   <v>       0.93671288       0.28962423       0.38942178 </v>
   <v>       0.81046319       0.03856678       0.87490091 </v>
   <v>       0.18868583       0.78916851       0.61044904 </v>
   <v>       0.56318533       0.03907226       0.38935545 </v>
   <v>       0.93324228       0.96122339       0.83248948 </v>
   <v>       0.31000667       0.53841081       0.87494722 </v>
   <v>       0.68379402       0.28887011       0.74344596 </v>
   <v>       0.19049661       0.61521795       0.16790142 </v>
   <v>       0.81323780       0.20542190       0.47858796 </v>
   <v>       0.81454865       0.53883649       0.61042121 </v>
   <v>       0.31317090       0.86989396       0.43450335 </v>
   <v>       0.81522154       0.04163013       0.25676628 </v>
   <v>       0.68895364       0.95463750       0.34579772 </v>
   <v>       0.93945663       0.11496999       0.16736830 </v>
   <v>       0.93871882       0.12129095       0.52114351 </v>
   <v>       0.56534672       0.54150682       0.25667142 </v>
   <v>       0.68726782       0.79212148       0.87489495 </v>
   <v>       0.56587219       0.36658769       0.16756824 </v>
   <v>       0.43375868       0.78808731       0.74355615 </v>
   <v>       0.81350568       0.70730482       0.56526158 </v>
   <v>       0.56336773       0.86822719       0.78767782 </v>
   <v>       0.68865312       0.12104463       0.52114259 </v>
   <v>       0.81089858       0.37335813       0.65443726 </v>
   <v>       0.93316343       0.46127785       0.83242550 </v>
   <v>       0.06313342       0.20692053       0.69913313 </v>
   <v>       0.43797738       0.95700128       0.69915967 </v>
   <v>       0.30830842       0.21111581       0.83287036 </v>
   <v>       0.43662486       0.62303869       0.65439085 </v>
   <v>       0.31387242       0.53870349       0.61038076 </v>
   <v>       0.93798839       0.45726215       0.56519748 </v>
   <v>       0.68413805       0.78909764       0.74366431 </v>
   <v>       0.93809962       0.78918099       0.12526440 </v>
   <v>       0.68712777       0.78960638       0.38954585 </v>
   <v>       0.93400032       0.78928795       0.74359330 </v>
   <v>       0.06443282       0.20460482       0.34572991 </v>
   <v>       0.81146967       0.03926986       0.38945038 </v>
   <v>       0.43891173       0.11852003       0.78782395 </v>
   <v>       0.06166138       0.20830984       0.21242649 </v>
   <v>       0.06588464       0.36627915       0.16747708 </v>
   <v>       0.94057658       0.79206180       0.25686128 </v>
   <v>       0.56312775       0.20744963       0.69914361 </v>
   <v>       0.68807667       0.95700413       0.69913082 </v>
   <v>       0.43763128       0.78890501       0.12522452 </v>
   <v>       0.43781673       0.95725872       0.56506710 </v>
   <v>       0.81356235       0.36809794       0.78772165 </v>
   <v>       0.69072898       0.29145194       0.25658532 </v>
   <v>       0.18791978       0.45703514       0.56520943 </v>
   <v>       0.06530129       0.86631597       0.16772116 </v>
   <v>       0.18881130       0.28887865       0.61047701 </v>
   <v>       0.56446672       0.70402044       0.34535876 </v>
   <v>       0.31299653       0.20715939       0.69913166 </v>
   <v>       0.56028304       0.53826934       0.87474095 </v>
   <v>       0.06271398       0.70748367       0.56503983 </v>
   <v>       0.68867516       0.61846568       0.78772494 </v>
   <v>       0.31179403       0.53992883       0.38957478 </v>
   <v>       0.18852455       0.62079448       0.52116083 </v>
   <v>       0.56278113       0.87012404       0.43450235 </v>
   <v>       0.43775225       0.45725686       0.56508645 </v>
   <v>       0.43364870       0.28845856       0.74342398 </v>
   <v>       0.81095073       0.87437001       0.30060207 </v>
   <v>       0.81470193       0.70406725       0.34532412 </v>
   <v>       0.43313142       0.46157014       0.83250101 </v>
   <v>       0.68821423       0.95526190       0.47867080 </v>
   <v>       0.68806977       0.45693427       0.69915203 </v>
   <v>       0.56365663       0.87084683       0.52112411 </v>
   <v>       0.56134192       0.37331648       0.65446336 </v>
   <v>       0.81083079       0.87316020       0.65449195 </v>
   <v>       0.81295089       0.37020421       0.43451000 </v>
   <v>       0.81560435       0.54126068       0.25668961 </v>
   <v>       0.68341828       0.46115898       0.83235094 </v>
   <v>       0.18864417       0.78893954       0.12534290 </v>
   <v>       0.06050201       0.03835907       0.87496421 </v>
   <v>       0.31098713       0.37318925       0.65442564 </v>
   <v>       0.31399020       0.20450971       0.34581268 </v>
   <v>       0.80843621       0.53930981       0.74339158 </v>
   <v>       0.68352380       0.96084777       0.83244731 </v>
   <v>       0.56061399       0.87310188       0.65446475 </v>
   <v>       0.31258380       0.70760177       0.56514791 </v>
   <v>       0.31259883       0.53302735       0.12518092 </v>
   <v>       0.68685933       0.95792282       0.21239995 </v>
   <v>       0.31302616       0.20745624       0.56507075 </v>
   <v>       0.18846793       0.95518507       0.47862401 </v>
   <v>       0.68824369       0.95720450       0.56512237 </v>
   <v>       0.43941175       0.78841242       0.61032028 </v>
   <v>       0.69064313       0.61448271       0.16796850 </v>
   <v>       0.31077188       0.87431871       0.30094644 </v>
   <v>       0.31294619       0.70560964       0.47867948 </v>
   <v>       0.93909396       0.28885545       0.61049540 </v>
   <v>       0.43617430       0.62504046       0.30098261 </v>
   <v>       0.81521400       0.86612279       0.16788130 </v>
   <v>       0.56185384       0.20810469       0.21247364 </v>
   <v>       0.94034225       0.61414452       0.16784006 </v>
   <v>       0.93732848       0.79213530       0.87497600 </v>
   <v>       0.56309256       0.36800678       0.78766121 </v>
   <v>       0.06378847       0.37105262       0.52113498 </v>
   <v>       0.56363446       0.37116141       0.52114109 </v>
   <v>       0.68606912       0.12484412       0.30094895 </v>
   <v>       0.43362282       0.96150937       0.83258281 </v>
   <v>       0.18954681       0.28874309       0.12524627 </v>
   <v>       0.81307550       0.86773210       0.78768428 </v>
   <v>       0.31224413       0.37009658       0.43444189 </v>
   <v>       0.56231369       0.03255169       0.12518641 </v>
   <v>       0.43874539       0.28899521       0.61044302 </v>
   <v>       0.18949194       0.45402138       0.34539642 </v>
   <v>       0.43738188       0.28958649       0.12521159 </v>
   <v>       0.69025657       0.79181249       0.25689139 </v>
   <v>       0.43860305       0.12096815       0.52113723 </v>
   <v>       0.18733885       0.29202655       0.87504008 </v>
   <v>       0.18578085       0.12326747       0.65452785 </v>
   <v>       0.93609536       0.12296468       0.65447236 </v>
   <v>       0.31174746       0.20787660       0.21239210 </v>
   <v>       0.06169540       0.03918333       0.38940431 </v>
   <v>       0.19143679       0.11559520       0.16752601 </v>
   <v>       0.06389438       0.53739606       0.61029641 </v>
   <v>       0.94084140       0.29170298       0.25668466 </v>
   <v>       0.56381566       0.53919013       0.61047320 </v>
   <v>       0.93762011       0.95739676       0.56509558 </v>
   <v>       0.68556727       0.62538785       0.30093436 </v>
   <v>       0.93730456       0.62021638       0.43443581 </v>
   <v>       0.93838565       0.61835050       0.78777778 </v>
   <v>       0.56269886       0.70699841       0.69916755 </v>
   <v>       0.05804244       0.71130473       0.83276175 </v>
   <v>       0.93604735       0.12479557       0.30080615 </v>
   <v>       0.93869126       0.78905211       0.61035421 </v>
   <v>       0.44124455       0.79208059       0.25678367 </v>
   <v>       0.31335315       0.36822801       0.78771605 </v>
   <v>       0.43749092       0.45784908       0.21269904 </v>
   <v>       0.18854222       0.12121359       0.52113043 </v>
   <v>       0.81313407       0.70715834       0.69908661 </v>
   <v>       0.06434276       0.03767630       0.61028990 </v>
   <v>       0.55849183       0.21110991       0.83238881 </v>
   <v>       0.31372468       0.87094253       0.52110134 </v>
   <v>       0.68924736       0.28919886       0.12525159 </v>
   <v>       0.18679901       0.95806771       0.21241425 </v>
   <v>       0.68862335       0.28915943       0.61045696 </v>
   <v>       0.31468983       0.03825420       0.61063069 </v>
   <v>       0.93838381       0.11895496       0.78780176 </v>
   <v>       0.43746591       0.79209933       0.87493040 </v>
   <v>       0.80872059       0.03930841       0.74321076 </v>
   <v>       0.93763267       0.45704973       0.69920491 </v>
   <v>       0.18626550       0.62295108       0.65446839 </v>
   <v>       0.31250346       0.70797516       0.69912335 </v>
   <v>       0.93707049       0.28957554       0.12524915 </v>
   <v>       0.43796214       0.45545110       0.47862725 </v>
   <v>       0.06313056       0.70524483       0.47869682 </v>
   <v>       0.93781288       0.12040432       0.43444807 </v>
   <v>       0.43381070       0.12494539       0.30083483 </v>
   <v>       0.18741919       0.12041758       0.43447066 </v>
   <v>       0.56121393       0.03777236       0.87474927 </v>
   <v>       0.18809086       0.95711355       0.56509455 </v>
   <v>       0.68889028       0.78874770       0.12536852 </v>
   <v>       0.56225971       0.53341640       0.12525507 </v>
   <v>       0.31249424       0.03900954       0.38947940 </v>
   <v>       0.69171220       0.11548986       0.16750511 </v>
   <v>       0.81139981       0.20779306       0.21240445 </v>
   <v>       0.06615288       0.54033646       0.25660484 </v>
   <v>       0.56306581       0.70531031       0.47864883 </v>
   <v>       0.06281827       0.20720003       0.56512947 </v>
   <v>       0.56098975       0.37458309       0.30085960 </v>
   <v>       0.43919635       0.95434026       0.34566251 </v>
   <v>       0.18310690       0.96141526       0.83261932 </v>
   <v>       0.43996386       0.61452935       0.16786690 </v>
   <v>       0.93744732       0.45796672       0.21268279 </v>
   <v>       0.06207337       0.53373696       0.12523923 </v>
   <v>       0.81346170       0.37094228       0.52112198 </v>
   <v>       0.93431519       0.62489428       0.30093571 </v>
   <v>       0.31519820       0.04190047       0.25688239 </v>
   <v>       0.68882291       0.78900400       0.61041504 </v>
   <v>       0.18325343       0.46150900       0.83249912 </v>
   <v>       0.43964812       0.11508942       0.16733234 </v>
   <v>       0.31368454       0.37091946       0.52110497 </v>
   <v>       0.43849505       0.61814710       0.78774588 </v>
   <v>       0.06559889       0.04197404       0.25677002 </v>
   <v>       0.56251802       0.70763821       0.56528634 </v>
   <v>       0.93366987       0.28820942       0.74343614 </v>
   <v>       0.68865886       0.11852954       0.78778287 </v>
   <v>       0.18662679       0.45831845       0.21273248 </v>
   <v>       0.93758635       0.78942184       0.38938599 </v>
   <v>       0.68765472       0.29232437       0.87496667 </v>
   <v>       0.31525478       0.86573073       0.16789824 </v>
   <v>       0.43819709       0.45703129       0.69908867 </v>
   <v>       0.93974574       0.95440279       0.34539576 </v>
   <v>       0.68880175       0.62088384       0.52112317 </v>
   <v>       0.06086371       0.87301893       0.65445442 </v>
   <v>       0.06345133       0.86865328       0.78777379 </v>
   <v>       0.06094435       0.37339326       0.65433943 </v>
   <v>       0.68812621       0.45562979       0.47863266 </v>
   <v>       0.19013036       0.79151613       0.25679609 </v>
   <v>       0.43750555       0.12014227       0.43464297 </v>
   <v>       0.81257859       0.03315155       0.12498474 </v>
   <v>       0.93866694       0.62093606       0.52112166 </v>
   <v>       0.06248411       0.87013958       0.43476334 </v>
   <v>       0.81236130       0.53331255       0.12526526 </v>
   <v>       0.44013151       0.45415787       0.34552110 </v>
   <v>       0.81443815       0.20381939       0.34547105 </v>
   <v>       0.31457066       0.70381156       0.34552947 </v>
   <v>       0.68614229       0.12342106       0.65437871 </v>
   <v>       0.55950217       0.87384468       0.30079723 </v>
   <v>       0.05889920       0.53881971       0.74353301 </v>
   <v>       0.93621735       0.95815853       0.21237084 </v>
   <v>       0.81168514       0.70817564       0.21236775 </v>
   <v>       0.06079399       0.87446234       0.30081061 </v>
   <v>       0.18612310       0.12461292       0.30075091 </v>
   <v>       0.06436659       0.70416912       0.34561251 </v>
   <v>       0.81396324       0.03896438       0.61042552 </v>
   <v>       0.06293273       0.36985754       0.43453314 </v>
   <v>       0.56448066       0.20384950       0.34546760 </v>
   <v>       0.81060657       0.37468613       0.30095281 </v>
   <v>       0.43815533       0.95524318       0.47863149 </v>
   <v>       0.56206414       0.53842569       0.38942883 </v>
   <v>       0.06317969       0.20540963       0.47860977 </v>
   <v>       0.31325597       0.86873690       0.78773982 </v>
   <v>       0.93798670       0.95727213       0.69914237 </v>
   <v>       0.05932183       0.37509300       0.30107013 </v>
   <v>       0.68606683       0.62329167       0.65443748 </v>
   <v>       0.68786902       0.45713452       0.56507985 </v>
   <v>       0.43680063       0.95792558       0.21241267 </v>
   <v>       0.31331579       0.20551379       0.47855594 </v>
   <v>       0.43629739       0.12249544       0.65419376 </v>
   <v>       0.68789019       0.62040880       0.43453682 </v>
   <v>       0.81293194       0.20739759       0.69909543 </v>
   <v>       0.81315832       0.70542231       0.47870823 </v>
   <v>       0.81265764       0.86976859       0.43450236 </v>
   <v>       0.93780461       0.95539864       0.47866918 </v>
   <v>       0.56321400       0.20511927       0.47861306 </v>
   <v>       0.18781524       0.61998641       0.43443111 </v>
   <v>       0.30912281       0.03862813       0.74358089 </v>
   <v>       0.93616607       0.62356123       0.65443754 </v>
   <v>       0.55860874       0.71129060       0.83259688 </v>
   <v>       0.31090644       0.37478627       0.30097273 </v>
   <v>       0.56151509       0.70793214       0.21231935 </v>
   <v>       0.18807332       0.45531423       0.47865293 </v>
   <v>       0.31019894       0.03843160       0.87493791 </v>
   <v>       0.18797889       0.45720073       0.69912410 </v>
   <v>       0.81022188       0.53795555       0.87483868 </v>
   <v>       0.18739899       0.28936087       0.38949325 </v>
   <v>       0.43723517       0.62052060       0.43449989 </v>
   <v>       0.06171157       0.70792260       0.21238623 </v>
   <v>       0.56265483       0.36946801       0.43459830 </v>
   <v>       0.43848940       0.62083722       0.52114359 </v>
   <v>       0.80867051       0.71121976       0.83254097 </v>
   <v>       0.06309119       0.36813887       0.78768790 </v>
   <v>       0.43738105       0.29203966       0.87498195 </v>
   <v>       0.31248355       0.03299662       0.12499367 </v>
   <v>       0.68766668       0.12056507       0.43450004 </v>
   <v>       0.18911190       0.95407297       0.34569172 </v>
   <v>       0.05841154       0.21183861       0.83260496 </v>
   <v>       0.56384431       0.03907035       0.61047691 </v>
   <v>       0.68623950       0.45815742       0.21251811 </v>
   <v>       0.18404634       0.78782273       0.74370967 </v>
   <v>       0.18594449       0.62481771       0.30092049 </v>
   <v>       0.43666183       0.78950167       0.38946572 </v>
   <v>       0.44041021       0.29153920       0.25675115 </v>
   <v>       0.05992326       0.53811714       0.87497027 </v>
   <v>       0.55872768       0.03874157       0.74347296 </v>
   <v>       0.18726182       0.79202316       0.87495401 </v>
   <v>       0.93804211       0.45520448       0.47867220 </v>
   <v>       0.81202550       0.53924791       0.38953834 </v>
   <v>       0.81281374       0.20724543       0.56502118 </v>
   <v>       0.18857249       0.61818332       0.78780487 </v>
   <v>       0.06223652       0.53997436       0.38969186 </v>
   <v>       0.06332924       0.70702457       0.69919189 </v>
   <v>       0.31525278       0.54094305       0.25653427 </v>
   <v>       0.31160998       0.70806798       0.21234371 </v>
   <v>       0.56531795       0.86650611       0.16776818 </v>
   <v>       0.55865670       0.53911977       0.74337669 </v>
   <v>       0.68941083       0.45440013       0.34539088 </v>
   <v>       0.93715534       0.29246544       0.87493734 </v>
   <v>       0.56555156       0.04149198       0.25677729 </v>
   <v>       0.68711581       0.28996688       0.38939121 </v>
   <v>       0.31596255       0.36517683       0.16700472 </v>
   <v>       0.81609010       0.36546772       0.16707824 </v>
   <v>       0.18859001       0.95480831       0.69913074 </v>
   <v>       0.06364956       0.87070894       0.52110691 </v>
   <v>       0.19145839       0.29121472       0.25665371 </v>
   <v>       0.30774346       0.53795969       0.74345846 </v>
  </varray>
 </structure>
 <calculation>
  <scstep>
   <time name="dav">   54.60   54.61</time>
   <time name="total">   54.75   54.80</time>
   <energy>
    <i name="alphaZ">  16403.00255340 </i>
    <i name="ewald"> 747578.20992406 </i>
    <i name="hartreedc">-939194.93990039 </i>
    <i name="XCdc">  -6387.03314026 </i>
    <i name="pawpsdc"> 163151.95320885 </i>
    <i name="pawaedc">-160818.84594568 </i>
    <i name="eentropy">     -1.02978552 </i>
    <i name="bandstr">  38613.70981322 </i>
    <i name="atom"> 169914.59583762 </i>
    <i name="e_fr_energy">  29259.62256529 </i>
    <i name="e_wo_entrp">  29260.65235082 </i>
    <i name="e_0_energy">  29260.13745805 </i>
   </energy>
  </scstep>
  <scstep>
   <time name="dav">   54.05   54.09</time>
   <time name="total">   54.06   54.10</time>
   <energy>
    <i name="e_fr_energy">   1201.90531726 </i>
    <i name="e_wo_entrp">   1203.36930164 </i>
    <i name="e_0_energy">   1202.63730945 </i>
   </energy>
  </scstep>
  <scstep>
   <time name="dav">   70.96   70.99</time>
   <time name="total">   70.96   71.00</time>
   <energy>
    <i name="e_fr_energy">  -1940.88746880 </i>
    <i name="e_wo_entrp">  -1937.30196045 </i>
    <i name="e_0_energy">  -1939.09471463 </i>
   </energy>
  </scstep>
  <scstep>
   <time name="dav">   88.74   88.78</time>
   <time name="total">   88.75   88.79</time>
   <energy>
    <i name="e_fr_energy">  -2611.39478639 </i>
    <i name="e_wo_entrp">  -2607.85545336 </i>
    <i name="e_0_energy">  -2609.62511987 </i>
   </energy>
  </scstep>
  <scstep>
   <time name="dav">   85.18   85.23</time>
   <time name="total">   87.27   87.32</time>
   <energy>
    <i name="e_fr_energy">  -2732.08743047 </i>
    <i name="e_wo_entrp">  -2728.47462677 </i>
    <i name="e_0_energy">  -2730.28102862 </i>
   </energy>
  </scstep>
  <scstep>
   <time name="diag">    8.27    8.28</time>
   <time name="diis">   37.95   37.95</time>
   <time name="orth">    2.28    2.28</time>
   <time name="total">   50.73   50.78</time>
   <energy>
    <i name="e_fr_energy">  -5920.84807847 </i>
    <i name="e_wo_entrp">  -5917.22989958 </i>
    <i name="e_0_energy">  -5919.03898903 </i>
   </energy>
  </scstep>
  <scstep>
   <time name="diag">    8.24    8.24</time>
   <time name="diis">   37.28   37.28</time>
   <time name="orth">    2.28    2.28</time>
   <time name="total">   49.96   50.00</time>
[...]
       <r>     5.8131     0.0000  2772.0000 </r>
       <r>     5.8559     0.0000  2772.0000 </r>
       <r>     5.8986     0.0000  2772.0000 </r>
       <r>     5.9414     0.0000  2772.0000 </r>
       <r>     5.9841     0.0000  2772.0000 </r>
       <r>     6.0269     0.0000  2772.0000 </r>
       <r>     6.0696     0.0000  2772.0000 </r>
       <r>     6.1124     0.0000  2772.0000 </r>
       <r>     6.1551     0.0000  2772.0000 </r>
       <r>     6.1979     0.0000  2772.0000 </r>
       <r>     6.2407     0.0000  2772.0000 </r>
       <r>     6.2834     0.0000  2772.0000 </r>
       <r>     6.3262     0.0000  2772.0000 </r>
       <r>     6.3689     0.0000  2772.0000 </r>
       <r>     6.4117     0.0000  2772.0000 </r>
       <r>     6.4544     0.0000  2772.0000 </r>
       <r>     6.4972     0.0000  2772.0000 </r>
       <r>     6.5400     0.0000  2772.0000 </r>
       <r>     6.5827     0.0000  2772.0000 </r>
       <r>     6.6255     0.0000  2772.0000 </r>
       <r>     6.6682     0.0000  2772.0000 </r>
       <r>     6.7110     0.0000  2772.0000 </r>
       <r>     6.7537     0.0000  2772.0000 </r>
      </set>
     </set>
    </array>
   </total>
  </dos>
 </calculation>
 <structure name="finalpos" >
  <crystal>
   <varray name="basis" >
    <v>       9.72667804       0.00000000       0.00000000 </v>
    <v>       0.00000000       8.42355028       0.00000000 </v>
    <v>       0.00000000       0.00000000      45.00000000 </v>
   </varray>
   <i name="volume">   3686.99226691 </i>
   <varray name="rec_basis" >
    <v>       0.10281002       0.00000000       0.00000000 </v>
    <v>       0.00000000       0.11871479       0.00000000 </v>
    <v>       0.00000000       0.00000000       0.02222222 </v>
   </varray>
  </crystal>
  <varray name="positions" >
   <v>       0.06309095       0.03433703       0.12545923 </v>
   <v>       0.31171163       0.87326220       0.65436618 </v>
   <v>       0.18713713       0.12063633       0.78772499 </v>
   <v>       0.43735800       0.28884778       0.38971759 </v>
   <v>       0.30967867       0.70911360       0.83264386 </v>
   <v>       0.80960448       0.20897967       0.83254283 </v>
   <v>       0.18745936       0.78919153       0.38962728 </v>
   <v>       0.56298546       0.20613935       0.56542268 </v>
   <v>       0.05993685       0.03871801       0.74339739 </v>
   <v>       0.81287631       0.87188498       0.52146450 </v>
   <v>       0.18540480       0.28863123       0.74330880 </v>
   <v>       0.93825388       0.45531971       0.34562607 </v>
   <v>       0.93770801       0.28890495       0.38970903 </v>
   <v>       0.81039870       0.04080090       0.87464032 </v>
   <v>       0.18809603       0.78921190       0.61012435 </v>
   <v>       0.56242554       0.03899148       0.38967980 </v>
   <v>       0.93431360       0.95912481       0.83266999 </v>
   <v>       0.31042792       0.54050477       0.87469822 </v>
   <v>       0.68520435       0.28883676       0.74331460 </v>
   <v>       0.18954573       0.61799436       0.16757612 </v>
   <v>       0.81316378       0.20437851       0.47833145 </v>
   <v>       0.81327327       0.53915417       0.61019020 </v>
   <v>       0.31303677       0.87080978       0.43434562 </v>
   <v>       0.81417345       0.04014957       0.25667281 </v>
   <v>       0.68840686       0.95535342       0.34550977 </v>
   <v>       0.93914087       0.11751257       0.16739951 </v>
   <v>       0.93830717       0.12266592       0.52145431 </v>
   <v>       0.56413898       0.54090173       0.25672503 </v>
   <v>       0.68611426       0.79061459       0.87470805 </v>
   <v>       0.56472102       0.36864149       0.16747682 </v>
   <v>       0.43510217       0.78874527       0.74333923 </v>
   <v>       0.81330087       0.70633337       0.56547969 </v>
   <v>       0.56208521       0.87068101       0.78764981 </v>
   <v>       0.68841468       0.12232615       0.52144996 </v>
   <v>       0.81177874       0.37310828       0.65438323 </v>
   <v>       0.93428596       0.45912114       0.83261097 </v>
   <v>       0.06221179       0.20590656       0.69906762 </v>
   <v>       0.43756842       0.95629405       0.69910006 </v>
   <v>       0.30957835       0.20878672       0.83276364 </v>
   <v>       0.43674574       0.62300185       0.65439830 </v>
   <v>       0.31330333       0.53923603       0.61018627 </v>
   <v>       0.93796441       0.45596632       0.56537797 </v>
   <v>       0.68520980       0.78932627       0.74331599 </v>
   <v>       0.93878936       0.78589239       0.12562891 </v>
   <v>       0.68753137       0.78874232       0.38969834 </v>
   <v>       0.93565218       0.78932260       0.74332176 </v>
   <v>       0.06356887       0.20513179       0.34555534 </v>
   <v>       0.81269569       0.03885451       0.38966880 </v>
   <v>       0.43720957       0.12077642       0.78775810 </v>
   <v>       0.06258875       0.20658068       0.21248996 </v>
   <v>       0.06494151       0.36878806       0.16745081 </v>
   <v>       0.93890465       0.79058943       0.25672772 </v>
   <v>       0.56218736       0.20660771       0.69910961 </v>
   <v>       0.68723515       0.95613083       0.69904499 </v>
   <v>       0.43878141       0.78583572       0.12563895 </v>
   <v>       0.43810554       0.95630944       0.56536796 </v>
   <v>       0.81205661       0.37079828       0.78755181 </v>
   <v>       0.68941932       0.29056102       0.25672462 </v>
   <v>       0.18810827       0.45602176       0.56540980 </v>
   <v>       0.06460198       0.86824897       0.16751817 </v>
   <v>       0.18831166       0.28901716       0.61013232 </v>
   <v>       0.56351561       0.70544111       0.34554132 </v>
   <v>       0.31213308       0.20633529       0.69906573 </v>
   <v>       0.56040010       0.54052944       0.87466008 </v>
   <v>       0.06306596       0.70585164       0.56538030 </v>
   <v>       0.68721262       0.62101820       0.78764283 </v>
   <v>       0.31259968       0.53915490       0.38969875 </v>
   <v>       0.18871884       0.62223244       0.52147085 </v>
   <v>       0.56289283       0.87082622       0.43441069 </v>
   <v>       0.43819591       0.45616527       0.56539181 </v>
   <v>       0.43536486       0.28898679       0.74334091 </v>
   <v>       0.81197806       0.87463840       0.30095269 </v>
   <v>       0.81342132       0.70560253       0.34558932 </v>
   <v>       0.43410670       0.45888963       0.83263009 </v>
   <v>       0.68821779       0.95458533       0.47834151 </v>
   <v>       0.68729014       0.45617343       0.69906673 </v>
   <v>       0.56329150       0.87229133       0.52144996 </v>
   <v>       0.56179231       0.37294893       0.65434887 </v>
   <v>       0.81175738       0.87308114       0.65441933 </v>
   <v>       0.81276857       0.37108704       0.43447640 </v>
   <v>       0.81416282       0.54059082       0.25677803 </v>
   <v>       0.68419591       0.45898716       0.83257430 </v>
   <v>       0.18836026       0.78561185       0.12565603 </v>
   <v>       0.06044509       0.04061564       0.87473841 </v>
   <v>       0.31172622       0.37316311       0.65441270 </v>
   <v>       0.31339477       0.20522327       0.34555239 </v>
   <v>       0.81020575       0.53894644       0.74334728 </v>
   <v>       0.68436938       0.95903562       0.83259371 </v>
   <v>       0.56172405       0.87296923       0.65439019 </v>
   <v>       0.31286782       0.70626534       0.56541798 </v>
   <v>       0.31310188       0.53577937       0.12533463 </v>
   <v>       0.68739707       0.95686575       0.21251735 </v>
   <v>       0.31319192       0.20620822       0.56537808 </v>
   <v>       0.18840703       0.95482101       0.47836080 </v>
   <v>       0.68812226       0.95642858       0.56537958 </v>
   <v>       0.43836804       0.78915789       0.61008561 </v>
   <v>       0.68951198       0.61793999       0.16767483 </v>
   <v>       0.31192147       0.87394041       0.30094941 </v>
   <v>       0.31295778       0.70458951       0.47833972 </v>
   <v>       0.93826847       0.28898421       0.61022988 </v>
   <v>       0.43706441       0.62410128       0.30097672 </v>
   <v>       0.81472152       0.86774870       0.16754519 </v>
   <v>       0.56269185       0.20635683       0.21249472 </v>
   <v>       0.93950851       0.61774512       0.16765733 </v>
   <v>       0.93636203       0.79070793       0.87476289 </v>
   <v>       0.56176537       0.37088152       0.78757160 </v>
   <v>       0.06317849       0.37214050       0.52142695 </v>
   <v>       0.56326004       0.37229347       0.52142626 </v>
   <v>       0.68694360       0.12418683       0.30095307 </v>
   <v>       0.43429931       0.95889816       0.83266231 </v>
   <v>       0.18937931       0.28605637       0.12534411 </v>
   <v>       0.81210029       0.87087666       0.78763840 </v>
   <v>       0.31297880       0.37111571       0.43444991 </v>
   <v>       0.56299005       0.03438338       0.12548996 </v>
   <v>       0.43830584       0.28925646       0.61014121 </v>
   <v>       0.18838540       0.45510419       0.34557615 </v>
   <v>       0.43781772       0.28621193       0.12531317 </v>
   <v>       0.68909814       0.79056849       0.25673384 </v>
   <v>       0.43812016       0.12233714       0.52143411 </v>
   <v>       0.18619438       0.29069889       0.87485982 </v>
   <v>       0.18673362       0.12307560       0.65442742 </v>
   <v>       0.93693732       0.12294879       0.65442678 </v>
   <v>       0.31270099       0.20611443       0.21246457 </v>
   <v>       0.06244477       0.03855791       0.38966556 </v>
   <v>       0.19007718       0.11778648       0.16748830 </v>
   <v>       0.06331746       0.53910426       0.61023017 </v>
   <v>       0.93884295       0.29055196       0.25668580 </v>
   <v>       0.56337384       0.53910825       0.61013347 </v>
   <v>       0.93791773       0.95643112       0.56539360 </v>
   <v>       0.68687968       0.62471464       0.30089516 </v>
   <v>       0.93778241       0.62085976       0.43434038 </v>
   <v>       0.93710923       0.62094456       0.78768454 </v>
   <v>       0.56196892       0.70589966       0.69908409 </v>
   <v>       0.05944391       0.70917173       0.83271502 </v>
   <v>       0.93717477       0.12408692       0.30089625 </v>
   <v>       0.93832627       0.78914827       0.61010275 </v>
   <v>       0.43942714       0.79061523       0.25673270 </v>
   <v>       0.31202574       0.37035061       0.78766099 </v>
   <v>       0.43796196       0.45690651       0.21262640 </v>
   <v>       0.18822408       0.12262524       0.52142617 </v>
   <v>       0.81236164       0.70595513       0.69906648 </v>
   <v>       0.06337405       0.03896467       0.61012656 </v>
   <v>       0.55946051       0.20905594       0.83251847 </v>
   <v>       0.31366614       0.87193437       0.52147309 </v>
   <v>       0.68947079       0.28616954       0.12537248 </v>
   <v>       0.18746418       0.95704813       0.21253585 </v>
   <v>       0.68816996       0.28931737       0.61019159 </v>
   <v>       0.31324980       0.03917224       0.61021890 </v>
   <v>       0.93708208       0.12078219       0.78775763 </v>
   <v>       0.43647587       0.79082509       0.87479105 </v>
   <v>       0.81026353       0.03908492       0.74334417 </v>
   <v>       0.93695160       0.45590638       0.69906957 </v>
   <v>       0.18685120       0.62306751       0.65444118 </v>
   <v>       0.31244618       0.70604251       0.69902683 </v>
   <v>       0.93784534       0.28632442       0.12530826 </v>
   <v>       0.43818183       0.45464809       0.47836197 </v>
   <v>       0.06314633       0.70413159       0.47837640 </v>
   <v>       0.93774944       0.12130339       0.43435166 </v>
   <v>       0.43694917       0.12410280       0.30097291 </v>
   <v>       0.18780739       0.12119572       0.43430894 </v>
   <v>       0.56055837       0.04064181       0.87470426 </v>
   <v>       0.18828798       0.95635821       0.56540774 </v>
   <v>       0.68829895       0.78576978       0.12564865 </v>
   <v>       0.56314747       0.53552294       0.12554721 </v>
   <v>       0.31249657       0.03859128       0.38972670 </v>
   <v>       0.68989770       0.11776040       0.16750496 </v>
   <v>       0.81252413       0.20627033       0.21242814 </v>
   <v>       0.06402944       0.54059667       0.25678098 </v>
   <v>       0.56309335       0.70449003       0.47834658 </v>
   <v>       0.06315900       0.20574940       0.56541898 </v>
   <v>       0.56187925       0.37415676       0.30094129 </v>
   <v>       0.43838126       0.95531094       0.34549892 </v>
   <v>       0.18423248       0.95904006       0.83266464 </v>
   <v>       0.43937498       0.61763724       0.16765121 </v>
   <v>       0.93831699       0.45697684       0.21265827 </v>
   <v>       0.06309144       0.53548423       0.12550737 </v>
   <v>       0.81290514       0.37222577       0.52143804 </v>
   <v>       0.93719875       0.62420796       0.30096645 </v>
   <v>       0.31417523       0.04022410       0.25676051 </v>
   <v>       0.68827899       0.78928976       0.61018434 </v>
   <v>       0.18432152       0.45908863       0.83263957 </v>
   <v>       0.43931493       0.11749561       0.16738942 </v>
   <v>       0.31356527       0.37220725       0.52143143 </v>
   <v>       0.43713030       0.62065776       0.78768491 </v>
   <v>       0.06392540       0.04059096       0.25669989 </v>
   <v>       0.56297831       0.70625396       0.56542086 </v>
   <v>       0.93525717       0.28875065       0.74333968 </v>
   <v>       0.68719595       0.12079065       0.78765609 </v>
   <v>       0.18710361       0.45715632       0.21263453 </v>
   <v>       0.93783926       0.78907125       0.38964590 </v>
   <v>       0.68635590       0.29090368       0.87469615 </v>
   <v>       0.31483672       0.86809085       0.16754370 </v>
   <v>       0.43759628       0.45593139       0.69902609 </v>
   <v>       0.93854916       0.95529716       0.34548887 </v>
   <v>       0.68827078       0.62213409       0.52144756 </v>
   <v>       0.06167296       0.87306495       0.65439032 </v>
   <v>       0.06188092       0.87063378       0.78773084 </v>
   <v>       0.06155909       0.37315217       0.65431271 </v>
   <v>       0.68809316       0.45461913       0.47833862 </v>
   <v>       0.18917234       0.79062824       0.25673223 </v>
   <v>       0.43797809       0.12110601       0.43446167 </v>
   <v>       0.81325805       0.03590215       0.12539784 </v>
   <v>       0.93774622       0.62212361       0.52148206 </v>
   <v>       0.06283956       0.87108012       0.43464288 </v>
   <v>       0.81305907       0.53581213       0.12535461 </v>
   <v>       0.43867728       0.45525470       0.34560292 </v>
   <v>       0.81350988       0.20523921       0.34550962 </v>
   <v>       0.31349752       0.70503837       0.34558449 </v>
   <v>       0.68685179       0.12284168       0.65435972 </v>
   <v>       0.56207127       0.87462439       0.30100756 </v>
   <v>       0.05990263       0.53869058       0.74334915 </v>
   <v>       0.93767711       0.95688959       0.21255133 </v>
   <v>       0.81251674       0.70625723       0.21248204 </v>
   <v>       0.06196915       0.87390892       0.30096972 </v>
   <v>       0.18690392       0.12425544       0.30105506 </v>
   <v>       0.06344529       0.70502874       0.34550909 </v>
   <v>       0.81316067       0.03934284       0.61023918 </v>
   <v>       0.06275527       0.37115043       0.43446740 </v>
   <v>       0.56340715       0.20520496       0.34551597 </v>
   <v>       0.81200657       0.37411746       0.30092205 </v>
   <v>       0.43813387       0.95454034       0.47830693 </v>
   <v>       0.56241949       0.53874058       0.38964167 </v>
   <v>       0.06316700       0.20427419       0.47833933 </v>
   <v>       0.31200354       0.87037541       0.78768498 </v>
   <v>       0.93708494       0.95602065       0.69908760 </v>
   <v>       0.06214507       0.37421418       0.30101612 </v>
   <v>       0.68686077       0.62303275       0.65440473 </v>
   <v>       0.68812423       0.45632178       0.56540735 </v>
   <v>       0.43780562       0.95694637       0.21254524 </v>
   <v>       0.31305427       0.20441966       0.47829475 </v>
   <v>       0.43664813       0.12305735       0.65438661 </v>
   <v>       0.68777901       0.62093318       0.43448671 </v>
   <v>       0.81244355       0.20646221       0.69901358 </v>
   <v>       0.81336303       0.70459421       0.47833200 </v>
   <v>       0.81269398       0.87072069       0.43433893 </v>
   <v>       0.93784125       0.95474526       0.47837318 </v>
   <v>       0.56310880       0.20447479       0.47836600 </v>
   <v>       0.18793985       0.62075813       0.43438526 </v>
   <v>       0.31008720       0.03871510       0.74335794 </v>
   <v>       0.93681212       0.62304978       0.65442135 </v>
   <v>       0.55959050       0.70912130       0.83261456 </v>
   <v>       0.31194731       0.37417496       0.30100675 </v>
   <v>       0.56249747       0.70645996       0.21251796 </v>
   <v>       0.18816848       0.45459481       0.47830213 </v>
   <v>       0.31053958       0.04072248       0.87472907 </v>
   <v>       0.18718821       0.45617763       0.69904337 </v>
   <v>       0.81025651       0.54049001       0.87466137 </v>
   <v>       0.18748783       0.28889138       0.38971219 </v>
   <v>       0.43776833       0.62090105       0.43445984 </v>
   <v>       0.06253469       0.70670432       0.21252271 </v>
   <v>       0.56290414       0.37103744       0.43447737 </v>
   <v>       0.43810746       0.62218392       0.52145202 </v>
   <v>       0.80960967       0.70898844       0.83254117 </v>
   <v>       0.06210620       0.37056532       0.78762644 </v>
   <v>       0.43649021       0.29076656       0.87475493 </v>
   <v>       0.31317781       0.03578577       0.12537161 </v>
   <v>       0.68787485       0.12098664       0.43445298 </v>
   <v>       0.18842670       0.95501351       0.34556995 </v>
   <v>       0.05975307       0.20900144       0.83262372 </v>
   <v>       0.56343892       0.03920482       0.61015391 </v>
   <v>       0.68720019       0.45701086       0.21268543 </v>
   <v>       0.18530857       0.78875058       0.74343167 </v>
   <v>       0.18683527       0.62397389       0.30094378 </v>
   <v>       0.43725076       0.78895199       0.38970711 </v>
   <v>       0.43937036       0.29046141       0.25670509 </v>
   <v>       0.06020679       0.54055149       0.87470280 </v>
   <v>       0.56061747       0.03901201       0.74336686 </v>
   <v>       0.18614505       0.79068714       0.87484196 </v>
   <v>       0.93821607       0.45462679       0.47835407 </v>
   <v>       0.81264657       0.53891671       0.38962856 </v>
   <v>       0.81302838       0.20607412       0.56536797 </v>
   <v>       0.18713137       0.62043976       0.78778064 </v>
   <v>       0.06234819       0.53922631       0.38971987 </v>
   <v>       0.06225038       0.70615006       0.69912720 </v>
   <v>       0.31419598       0.54035745       0.25681044 </v>
   <v>       0.31253172       0.70645055       0.21246018 </v>
   <v>       0.56471109       0.86796328       0.16748433 </v>
   <v>       0.56043663       0.53899643       0.74334292 </v>
   <v>       0.68851039       0.45528823       0.34553605 </v>
   <v>       0.93615760       0.29080773       0.87474150 </v>
   <v>       0.56397385       0.04031361       0.25668615 </v>
   <v>       0.68747010       0.28902615       0.38953251 </v>
   <v>       0.31510725       0.36734093       0.16698530 </v>
   <v>       0.81512241       0.36720105       0.16701114 </v>
   <v>       0.18740741       0.95625558       0.69915101 </v>
   <v>       0.06326556       0.87232849       0.52131427 </v>
   <v>       0.18951794       0.29056919       0.25665627 </v>
   <v>       0.30991528       0.53858310       0.74345263 </v>
  </varray>
 </structure>
</modeling>
