 288 288   0   0
  0.1280206E+02  0.9726678E-09  0.8423550E-09  0.4500000E-08  0.2500000E-15
  1.000000000000000E-004
  CAR 
 unknown system                          
      6.83224942     -6.02453130  301      4.31690194      1.00000000
     -6.025  0.0000E+00  0.0000E+00
     -5.982  0.0000E+00  0.0000E+00
     -5.939  0.0000E+00  0.0000E+00
     -5.896  0.0000E+00  0.0000E+00
     -5.853  0.0000E+00  0.0000E+00
     -5.810  0.0000E+00  0.0000E+00
     -5.767  0.0000E+00  0.0000E+00
     -5.725  0.0000E+00  0.0000E+00
     -5.682  0.0000E+00  0.0000E+00
     -5.639  0.0000E+00  0.0000E+00
     -5.596  0.0000E+00  0.0000E+00
     -5.553  0.0000E+00  0.0000E+00
     -5.510  0.0000E+00  0.0000E+00
     -5.467  0.0000E+00  0.0000E+00
     -5.425  0.0000E+00  0.0000E+00
     -5.382  0.1943E-15  0.8327E-17
     -5.339  0.4534E-14  0.2026E-15
     -5.296  0.9767E-13  0.4388E-14
     -5.253  0.1782E-11  0.8076E-13
     -5.210  0.2767E-10  0.1267E-11
     -5.167  0.3656E-09  0.1693E-10
     -5.125  0.4111E-08  0.1931E-09
     -5.082  0.3937E-07  0.1880E-08
     -5.039  0.3211E-06  0.1564E-07
     -4.996  0.2232E-05  0.1113E-06
     -4.953  0.1324E-04  0.6788E-06
     -4.910  0.6712E-04  0.3555E-05
     -4.867  0.2914E-03  0.1604E-04
     -4.825  0.1087E-02  0.6262E-04
     -4.782  0.3500E-02  0.2126E-03
     -4.739  0.9803E-02  0.6327E-03
     -4.696  0.2410E-01  0.1665E-02
     -4.653  0.5260E-01  0.3920E-02
     -4.610  0.1033E+00  0.8347E-02
     -4.567  0.1849E+00  0.1627E-01
     -4.525  0.3048E+00  0.2933E-01
     -4.482  0.4663E+00  0.4932E-01
     -4.439  0.6661E+00  0.7786E-01
     -4.396  0.8925E+00  0.1161E+00
     -4.353  0.1127E+01  0.1644E+00
     -4.310  0.1346E+01  0.2221E+00
     -4.267  0.1528E+01  0.2876E+00
     -4.225  0.1663E+01  0.3588E+00
     -4.182  0.1752E+01  0.4339E+00
     -4.139  0.1814E+01  0.5116E+00
     -4.096  0.1879E+01  0.5921E+00
     -4.053  0.1978E+01  0.6769E+00
     -4.010  0.2135E+01  0.7684E+00
     -3.967  0.2350E+01  0.8691E+00
     -3.925  0.2602E+01  0.9806E+00
     -3.882  0.2853E+01  0.1103E+01
     -3.839  0.3055E+01  0.1234E+01
     -3.796  0.3174E+01  0.1370E+01
     -3.753  0.3199E+01  0.1507E+01
     -3.710  0.3151E+01  0.1642E+01
     -3.667  0.3078E+01  0.1774E+01
     -3.625  0.3036E+01  0.1904E+01
     -3.582  0.3073E+01  0.2036E+01
     -3.539  0.3207E+01  0.2173E+01
     -3.496  0.3422E+01  0.2320E+01
     -3.453  0.3678E+01  0.2477E+01
     -3.410  0.3922E+01  0.2646E+01
     -3.367  0.4106E+01  0.2821E+01
     -3.325  0.4205E+01  0.3002E+01
     -3.282  0.4222E+01  0.3183E+01
     -3.239  0.4188E+01  0.3362E+01
     -3.196  0.4152E+01  0.3540E+01
     -3.153  0.4166E+01  0.3719E+01
     -3.110  0.4264E+01  0.3901E+01
     -3.067  0.4451E+01  0.4092E+01
     -3.025  0.4699E+01  0.4293E+01
     -2.982  0.4958E+01  0.4506E+01
     -2.939  0.5177E+01  0.4728E+01
     -2.896  0.5319E+01  0.4956E+01
     -2.853  0.5376E+01  0.5186E+01
     -2.810  0.5378E+01  0.5417E+01
     -2.767  0.5378E+01  0.5647E+01
     -2.725  0.5424E+01  0.5880E+01
     -2.682  0.5523E+01  0.6116E+01
     -2.639  0.5633E+01  0.6358E+01
     -2.596  0.5684E+01  0.6601E+01
     -2.553  0.5638E+01  0.6843E+01
     -2.510  0.5528E+01  0.7080E+01
     -2.467  0.5459E+01  0.7314E+01
     -2.425  0.5557E+01  0.7552E+01
     -2.382  0.5895E+01  0.7805E+01
     -2.339  0.6442E+01  0.8081E+01
     -2.296  0.7047E+01  0.8383E+01
     -2.253  0.7502E+01  0.8704E+01
     -2.210  0.7641E+01  0.9032E+01
     -2.167  0.7443E+01  0.9351E+01
     -2.125  0.7061E+01  0.9653E+01
     -2.082  0.6746E+01  0.9942E+01
     -2.039  0.6714E+01  0.1023E+02
     -1.996  0.7039E+01  0.1053E+02
     -1.953  0.7626E+01  0.1086E+02
     -1.910  0.8267E+01  0.1121E+02
     -1.868  0.8743E+01  0.1159E+02
     -1.825  0.8933E+01  0.1197E+02
     -1.782  0.8866E+01  0.1235E+02
     -1.739  0.8694E+01  0.1272E+02
     -1.696  0.8593E+01  0.1309E+02
     -1.653  0.8659E+01  0.1346E+02
     -1.610  0.8878E+01  0.1384E+02
     -1.568  0.9174E+01  0.1424E+02
     -1.525  0.9475E+01  0.1464E+02
     -1.482  0.9752E+01  0.1506E+02
     -1.439  0.1001E+02  0.1549E+02
     -1.396  0.1023E+02  0.1593E+02
     -1.353  0.1042E+02  0.1637E+02
     -1.310  0.1055E+02  0.1683E+02
     -1.268  0.1073E+02  0.1729E+02
     -1.225  0.1109E+02  0.1776E+02
     -1.182  0.1180E+02  0.1827E+02
     -1.139  0.1285E+02  0.1882E+02
     -1.096  0.1401E+02  0.1942E+02
     -1.053  0.1495E+02  0.2006E+02
     -1.010  0.1544E+02  0.2072E+02
     -0.968  0.1551E+02  0.2138E+02
     -0.925  0.1549E+02  0.2205E+02
     -0.882  0.1582E+02  0.2273E+02
     -0.839  0.1678E+02  0.2345E+02
     -0.796  0.1836E+02  0.2423E+02
     -0.753  0.2044E+02  0.2511E+02
     -0.710  0.2293E+02  0.2609E+02
     -0.668  0.2594E+02  0.2720E+02
     -0.625  0.2963E+02  0.2847E+02
     -0.582  0.3400E+02  0.2993E+02
     -0.539  0.3868E+02  0.3159E+02
     -0.496  0.4308E+02  0.3343E+02
     -0.453  0.4671E+02  0.3544E+02
     -0.410  0.4945E+02  0.3756E+02
     -0.368  0.5151E+02  0.3976E+02
     -0.325  0.5320E+02  0.4204E+02
     -0.282  0.5470E+02  0.4439E+02
     -0.239  0.5599E+02  0.4679E+02
     -0.196  0.5694E+02  0.4923E+02
     -0.153  0.5745E+02  0.5169E+02
     -0.110  0.5760E+02  0.5416E+02
     -0.068  0.5762E+02  0.5663E+02
     -0.025  0.5779E+02  0.5910E+02
      0.018  0.5830E+02  0.6160E+02
      0.061  0.5931E+02  0.6414E+02
      0.104  0.6097E+02  0.6676E+02
      0.147  0.6339E+02  0.6947E+02
      0.190  0.6651E+02  0.7232E+02
      0.232  0.7006E+02  0.7533E+02
      0.275  0.7366E+02  0.7848E+02
      0.318  0.7698E+02  0.8178E+02
      0.361  0.7983E+02  0.8520E+02
      0.404  0.8217E+02  0.8873E+02
      0.447  0.8402E+02  0.9233E+02
      0.490  0.8538E+02  0.9599E+02
      0.532  0.8623E+02  0.9968E+02
      0.575  0.8655E+02  0.1034E+03
      0.618  0.8642E+02  0.1071E+03
      0.661  0.8594E+02  0.1108E+03
      0.704  0.8517E+02  0.1144E+03
      0.747  0.8404E+02  0.1180E+03
      0.790  0.8248E+02  0.1216E+03
      0.832  0.8061E+02  0.1250E+03
      0.875  0.7878E+02  0.1284E+03
      0.918  0.7739E+02  0.1317E+03
      0.961  0.7661E+02  0.1350E+03
      1.004  0.7630E+02  0.1383E+03
      1.047  0.7611E+02  0.1415E+03
      1.090  0.7570E+02  0.1448E+03
      1.132  0.7495E+02  0.1480E+03
      1.175  0.7404E+02  0.1512E+03
      1.218  0.7337E+02  0.1543E+03
      1.261  0.7324E+02  0.1574E+03
      1.304  0.7360E+02  0.1606E+03
      1.347  0.7397E+02  0.1638E+03
      1.390  0.7375E+02  0.1669E+03
      1.432  0.7261E+02  0.1700E+03
      1.475  0.7081E+02  0.1731E+03
      1.518  0.6897E+02  0.1760E+03
      1.561  0.6779E+02  0.1789E+03
      1.604  0.6765E+02  0.1818E+03
      1.647  0.6859E+02  0.1848E+03
      1.690  0.7037E+02  0.1878E+03
      1.732  0.7267E+02  0.1909E+03
      1.775  0.7518E+02  0.1941E+03
      1.818  0.7765E+02  0.1974E+03
      1.861  0.7994E+02  0.2009E+03
      1.904  0.8200E+02  0.2044E+03
      1.947  0.8384E+02  0.2080E+03
      1.990  0.8552E+02  0.2116E+03
      2.032  0.8713E+02  0.2154E+03
      2.075  0.8871E+02  0.2192E+03
      2.118  0.9029E+02  0.2231E+03
      2.161  0.9186E+02  0.2270E+03
      2.204  0.9342E+02  0.2310E+03
      2.247  0.9503E+02  0.2351E+03
      2.290  0.9690E+02  0.2392E+03
      2.332  0.9934E+02  0.2435E+03
      2.375  0.1026E+03  0.2479E+03
      2.418  0.1066E+03  0.2524E+03
      2.461  0.1112E+03  0.2572E+03
      2.504  0.1158E+03  0.2622E+03
      2.547  0.1200E+03  0.2673E+03
      2.590  0.1235E+03  0.2726E+03
      2.632  0.1261E+03  0.2780E+03
      2.675  0.1279E+03  0.2835E+03
      2.718  0.1289E+03  0.2890E+03
      2.761  0.1296E+03  0.2946E+03
      2.804  0.1305E+03  0.3002E+03
      2.847  0.1323E+03  0.3058E+03
      2.890  0.1352E+03  0.3116E+03
      2.932  0.1386E+03  0.3176E+03
      2.975  0.1413E+03  0.3236E+03
      3.018  0.1419E+03  0.3297E+03
      3.061  0.1390E+03  0.3356E+03
      3.104  0.1325E+03  0.3413E+03
      3.147  0.1235E+03  0.3466E+03
      3.189  0.1139E+03  0.3515E+03
      3.232  0.1052E+03  0.3560E+03
      3.275  0.9855E+02  0.3602E+03
      3.318  0.9420E+02  0.3643E+03
      3.361  0.9189E+02  0.3682E+03
      3.404  0.9100E+02  0.3721E+03
      3.447  0.9071E+02  0.3760E+03
      3.489  0.9023E+02  0.3799E+03
      3.532  0.8900E+02  0.3837E+03
      3.575  0.8703E+02  0.3874E+03
      3.618  0.8488E+02  0.3910E+03
      3.661  0.8346E+02  0.3946E+03
      3.704  0.8348E+02  0.3982E+03
      3.747  0.8511E+02  0.4018E+03
      3.789  0.8786E+02  0.4056E+03
      3.832  0.9097E+02  0.4095E+03
      3.875  0.9381E+02  0.4135E+03
      3.918  0.9615E+02  0.4176E+03
      3.961  0.9808E+02  0.4219E+03
      4.004  0.9980E+02  0.4261E+03
      4.047  0.1013E+03  0.4305E+03
      4.089  0.1025E+03  0.4349E+03
      4.132  0.1031E+03  0.4393E+03
      4.175  0.1030E+03  0.4437E+03
      4.218  0.1022E+03  0.4481E+03
      4.261  0.1010E+03  0.4524E+03
      4.304  0.9995E+02  0.4567E+03
      4.347  0.9925E+02  0.4609E+03
      4.389  0.9910E+02  0.4652E+03
      4.432  0.9943E+02  0.4695E+03
      4.475  0.9995E+02  0.4737E+03
      4.518  0.1003E+03  0.4780E+03
      4.561  0.1002E+03  0.4823E+03
      4.604  0.9956E+02  0.4866E+03
      4.647  0.9877E+02  0.4908E+03
      4.689  0.9827E+02  0.4950E+03
      4.732  0.9859E+02  0.4993E+03
      4.775  0.9998E+02  0.5035E+03
      4.818  0.1024E+03  0.5079E+03
      4.861  0.1054E+03  0.5125E+03
      4.904  0.1084E+03  0.5171E+03
      4.947  0.1110E+03  0.5219E+03
      4.989  0.1125E+03  0.5267E+03
      5.032  0.1123E+03  0.5315E+03
      5.075  0.1094E+03  0.5362E+03
      5.118  0.1027E+03  0.5406E+03
      5.161  0.9157E+02  0.5445E+03
      5.204  0.7646E+02  0.5478E+03
      5.247  0.5894E+02  0.5503E+03
      5.289  0.4144E+02  0.5521E+03
      5.332  0.2630E+02  0.5532E+03
      5.375  0.1495E+02  0.5538E+03
      5.418  0.7559E+01  0.5542E+03
      5.461  0.3386E+01  0.5543E+03
      5.504  0.1339E+01  0.5544E+03
      5.547  0.4665E+00  0.5544E+03
      5.589  0.1429E+00  0.5544E+03
      5.632  0.3848E-01  0.5544E+03
      5.675  0.9095E-02  0.5544E+03
      5.718  0.1886E-02  0.5544E+03
      5.761  0.3431E-03  0.5544E+03
      5.804  0.5466E-04  0.5544E+03
      5.847  0.7617E-05  0.5544E+03
      5.889  0.9268E-06  0.5544E+03
      5.932  0.9825E-07  0.5544E+03
      5.975  0.9052E-08  0.5544E+03
      6.018  0.7231E-09  0.5544E+03
      6.061  0.4996E-10  0.5544E+03
      6.104  0.2976E-11  0.5544E+03
      6.147  0.1517E-12  0.5544E+03
      6.189  0.6476E-14  0.5544E+03
      6.232  0.1943E-15  0.5544E+03
      6.275  0.0000E+00  0.5544E+03
      6.318  0.0000E+00  0.5544E+03
      6.361  0.0000E+00  0.5544E+03
      6.404  0.0000E+00  0.5544E+03
      6.447  0.0000E+00  0.5544E+03
      6.489  0.0000E+00  0.5544E+03
      6.532  0.0000E+00  0.5544E+03
      6.575  0.0000E+00  0.5544E+03
      6.618  0.0000E+00  0.5544E+03
      6.661  0.0000E+00  0.5544E+03
      6.704  0.0000E+00  0.5544E+03
      6.747  0.0000E+00  0.5544E+03
      6.789  0.0000E+00  0.5544E+03
      6.832  0.0000E+00  0.5544E+03
