<?xml version="1.0" encoding="ISO-8859-1"?>
<modeling>
 <generator>
  <i name="program" type="string">vasp </i>
  <i name="version" type="string">5.4.4.18Apr17-6-g9f103f2a35  </i>
  <i name="subversion" type="string">(build Sep 27 2018 12:46:37) complex + VL-xray_ parallel </i>
  <i name="platform" type="string">LLNL_Quartz_ifc </i>
  <i name="date" type="string">2021 09 27 </i>
  <i name="time" type="string">00:18:34 </i>
 </generator>
 <incar>
  <i type="int" name="ISTART">     2</i>
  <i type="string" name="PREC">accurate</i>
  <i type="string" name="ALGO"> Fast</i>
  <i type="int" name="ICHARG">     2</i>
  <i type="int" name="INIWAV">     1</i>
  <i type="int" name="NELM">   100</i>
  <i type="int" name="NELMIN">     4</i>
  <i type="int" name="IBRION">     2</i>
  <i name="EDIFF">      0.00000100</i>
  <i type="int" name="NSW">     5</i>
  <i type="int" name="ISIF">     2</i>
  <i type="int" name="ISYM">     2</i>
  <i name="ENCUT">    450.00000000</i>
  <i name="POTIM">      0.25000000</i>
  <i type="string" name="LREAL"> Auto</i>
  <i type="int" name="ISMEAR">     0</i>
  <i name="SIGMA">      0.15000000</i>
  <i type="logical" name="LWAVE"> F  </i>
  <i type="logical" name="LCHARG"> F  </i>
  <i type="int" name="ICORELEVEL">     0</i>
  <i type="int" name="CLNT">     1</i>
  <i type="int" name="CLN">     1</i>
  <i type="int" name="INCAR     ">     0</i>
  <i name="CLZ">      0.00000000</i>
  <v type="int" name="KPOINT_BSE">    -1     0     0     0</v>
  <i type="int" name="NELM">   100</i>
 </incar>
 <structure name="primitive_cell" >
  <crystal>
   <varray name="basis" >
    <v>       9.72667804       0.00000000       0.00000000 </v>
    <v>       0.00000000       8.42355028       0.00000000 </v>
    <v>       0.00000000       0.00000000      45.00000000 </v>
   </varray>
   <i name="volume">   3686.99226691 </i>
   <varray name="rec_basis" >
    <v>       0.10281002       0.00000000       0.00000000 </v>
    <v>       0.00000000       0.11871479       0.00000000 </v>
    <v>       0.00000000       0.00000000       0.02222222 </v>
   </varray>
  </crystal>
  <varray name="positions" >
   <v>       0.06190780       0.02918192       0.12409394 </v>
   <v>       0.18336975       0.11214900       0.16648074 </v>
   <v>       0.05609201      -0.13464206       0.16660478 </v>
   <v>       0.18613131      -0.21183950       0.12404442 </v>
   <v>      -0.06585603      -0.21145574       0.12440287 </v>
   <v>      -0.18578297       0.03061939       0.12400311 </v>
   <v>      -0.06906743       0.11439878       0.16688772 </v>
   <v>       0.31157874       0.03059871       0.12412025 </v>
   <v>       0.18516295       0.28642983       0.12414252 </v>
   <v>      -0.06574810       0.28681895       0.12387280 </v>
   <v>       0.30593975      -0.13550086       0.16582558 </v>
   <v>       0.05533864       0.36538966       0.16664737 </v>
   <v>      -0.19275509      -0.13659054       0.16679974 </v>
   <v>       0.43251838       0.11177081       0.16655687 </v>
   <v>      -0.05936122      -0.04607320       0.21127973 </v>
   <v>       0.18215540      -0.38640868       0.16663414 </v>
   <v>       0.30724040       0.36418005       0.16660689 </v>
   <v>       0.43529740      -0.21302310       0.12411817 </v>
   <v>       0.06506796       0.20377146       0.21107540 </v>
   <v>       0.19013078      -0.04537113       0.21170986 </v>
   <v>      -0.06742930      -0.38709395       0.16667943 </v>
   <v>      -0.31541648      -0.21182919       0.12433913 </v>
   <v>       0.06182383      -0.47061049       0.12405718 </v>
   <v>      -0.19436173       0.36550561       0.16591933 </v>
   <v>      -0.31753393       0.11390757       0.16688480 </v>
   <v>       0.43460714       0.28655082       0.12412622 </v>
   <v>      -0.31353175       0.28596115       0.12390514 </v>
   <v>       0.06730020      -0.29637066       0.21130028 </v>
   <v>      -0.18425509       0.20353538       0.21109036 </v>
   <v>      -0.43720603       0.03199571       0.12426378 </v>
   <v>      -0.18665787      -0.47096905       0.12393592 </v>
   <v>       0.31565442       0.20412356       0.21117390 </v>
   <v>       0.31280242      -0.47038064       0.12391161 </v>
   <v>      -0.18403282      -0.29666243       0.21133913 </v>
   <v>      -0.44363610      -0.13769569       0.16632883 </v>
   <v>       0.43172739      -0.38719556       0.16606600 </v>
   <v>      -0.31057407      -0.04543544       0.21177282 </v>
   <v>       0.31453799      -0.29700546       0.21222828 </v>
   <v>      -0.31751785      -0.38780249       0.16626004 </v>
   <v>       0.18956091       0.45286432       0.21106205 </v>
   <v>       0.44066115      -0.04467847       0.21202514 </v>
   <v>      -0.06012836       0.45339543       0.21158721 </v>
   <v>      -0.44351451       0.36524629       0.16657735 </v>
   <v>       0.05892893       0.03726478       0.25581655 </v>
   <v>       0.18374620      -0.21277356       0.25548528 </v>
   <v>      -0.06642411      -0.21267471       0.25557741 </v>
   <v>       0.30915281       0.03726306       0.25548902 </v>
   <v>      -0.43347378       0.20302332       0.21140090 </v>
   <v>      -0.19019671       0.03774315       0.25597325 </v>
   <v>       0.18388770       0.28748609       0.25582086 </v>
   <v>      -0.43759797      -0.47109495       0.12446099 </v>
   <v>      -0.06595272       0.28785623       0.25592349 </v>
   <v>      -0.31091977       0.45398555       0.21172653 </v>
   <v>       0.43983870       0.45363135       0.21131829 </v>
   <v>      -0.43295723      -0.29684788       0.21200647 </v>
   <v>       0.43324917      -0.21248988       0.25559002 </v>
   <v>       0.05928981      -0.46283692       0.25573943 </v>
   <v>      -0.31631621      -0.21230389       0.25581909 </v>
   <v>       0.43343014       0.28800703       0.25578067 </v>
   <v>      -0.31580759       0.28793606       0.25601603 </v>
   <v>       0.30846592      -0.46281427       0.25557075 </v>
   <v>      -0.19114431      -0.46305382       0.25589895 </v>
   <v>      -0.43991391       0.03740759       0.25547456 </v>
   <v>       0.07058931      -0.12689308       0.30025622 </v>
   <v>      -0.05454482       0.12284715       0.30007707 </v>
   <v>       0.19528727       0.12323249       0.30022102 </v>
   <v>      -0.17892445      -0.12643955       0.30020554 </v>
   <v>       0.31930134      -0.12644215       0.30016178 </v>
   <v>       0.06940337       0.37403095       0.30000602 </v>
   <v>      -0.44188333      -0.46190377       0.25559638 </v>
   <v>      -0.05511640      -0.37668578       0.29988729 </v>
   <v>      -0.30456411       0.12285636       0.30027011 </v>
   <v>       0.19503262      -0.37721291       0.30030648 </v>
   <v>      -0.17977996       0.37291201       0.30000297 </v>
   <v>       0.32012713       0.37231257       0.30010770 </v>
   <v>       0.44457188       0.12302369       0.30043493 </v>
   <v>      -0.30514901      -0.37592869       0.30011126 </v>
   <v>      -0.42952201      -0.12691236       0.30026089 </v>
   <v>       0.44596141      -0.37661878       0.30017044 </v>
   <v>      -0.43029313       0.37169027       0.30010463 </v>
   <v>       0.18372425      -0.04759408       0.34490497 </v>
   <v>      -0.06602972      -0.04901709       0.34475449 </v>
   <v>       0.05869636       0.20278926       0.34495942 </v>
   <v>       0.05860428      -0.29788702       0.34486809 </v>
   <v>       0.30891952       0.20274131       0.34472410 </v>
   <v>      -0.19100961       0.20254006       0.34500734 </v>
   <v>       0.30909197      -0.29815233       0.34484805 </v>
   <v>       0.43365516      -0.04768065       0.34492025 </v>
   <v>      -0.19137530      -0.29739605       0.34489483 </v>
   <v>      -0.31709217      -0.04823908       0.34465094 </v>
   <v>       0.18365118       0.45249412       0.34490109 </v>
   <v>      -0.06635555       0.45234982       0.34489104 </v>
   <v>      -0.44103359       0.20268840       0.34478859 </v>
   <v>       0.43368987       0.45248967       0.34498506 </v>
   <v>       0.06339774       0.04066745      -0.12410418 </v>
   <v>      -0.31608550       0.45235649       0.34497750 </v>
   <v>      -0.44114321      -0.29789652       0.34487763 </v>
   <v>       0.18764437      -0.20245707      -0.12393618 </v>
   <v>      -0.06386434      -0.20257297      -0.12437927 </v>
   <v>       0.31288846       0.04100436      -0.12397281 </v>
   <v>      -0.18756905       0.04035360      -0.12413733 </v>
   <v>       0.18790482       0.29776205      -0.12390990 </v>
   <v>      -0.06307465       0.29745955      -0.12441323 </v>
   <v>       0.43646378      -0.20204216      -0.12371568 </v>
   <v>      -0.31441194      -0.20177212      -0.12392562 </v>
   <v>       0.06345422      -0.45993442      -0.12413733 </v>
   <v>       0.06665093       0.03808271       0.38913902 </v>
   <v>       0.43654924       0.29764955      -0.12382094 </v>
   <v>      -0.31452767       0.29825393      -0.12400282 </v>
   <v>      -0.05868722      -0.21249429       0.38888380 </v>
   <v>       0.31276382      -0.45910637      -0.12403676 </v>
   <v>      -0.18759317      -0.45975957      -0.12418333 </v>
   <v>       0.19310439      -0.21246813       0.38888952 </v>
   <v>      -0.18210248       0.03931100       0.38924044 </v>
   <v>      -0.05904320       0.28656553       0.38893315 </v>
   <v>       0.31635846       0.03726832       0.38891797 </v>
   <v>      -0.43760529       0.04106120      -0.12404836 </v>
   <v>       0.19109730       0.28764888       0.38892284 </v>
   <v>       0.06730353      -0.46168430       0.38904589 </v>
   <v>      -0.30828573      -0.21241571       0.38904304 </v>
   <v>      -0.30881334       0.28741476       0.38900369 </v>
   <v>       0.44149521      -0.21218298       0.38907740 </v>
   <v>       0.44149145       0.28755668       0.38908061 </v>
   <v>      -0.18390427      -0.46226734       0.38894401 </v>
   <v>      -0.43748445      -0.45899760      -0.12403003 </v>
   <v>       0.31600125      -0.46167459       0.38894878 </v>
   <v>      -0.43350218       0.03774971       0.38906299 </v>
   <v>      -0.05810459      -0.03645617      -0.16631738 </v>
   <v>       0.19168617      -0.03721200      -0.16650220 </v>
   <v>       0.06713830       0.21539176      -0.16631491 </v>
   <v>       0.06734101      -0.28471505      -0.16633647 </v>
   <v>      -0.18222666       0.21546864      -0.16642704 </v>
   <v>       0.31812142       0.21390245      -0.16667394 </v>
   <v>      -0.43368955      -0.46244880       0.38905451 </v>
   <v>      -0.18217281      -0.28433694      -0.16645054 </v>
   <v>      -0.30807405      -0.03759776      -0.16655755 </v>
   <v>       0.31797837      -0.28632353      -0.16664957 </v>
   <v>       0.44232354      -0.03682308      -0.16664307 </v>
   <v>      -0.05790153       0.46347405      -0.16633948 </v>
   <v>       0.19164352       0.46280242      -0.16651508 </v>
   <v>       0.06201663      -0.12895518       0.43438311 </v>
   <v>      -0.43349425       0.21353130      -0.16662051 </v>
   <v>       0.18699895       0.12038953       0.43423636 </v>
   <v>      -0.06311732       0.11991378       0.43450556 </v>
   <v>      -0.30779504       0.46228420      -0.16660454 </v>
   <v>       0.44219696       0.46318144      -0.16661937 </v>
   <v>      -0.43362987      -0.28649172      -0.16661926 </v>
   <v>      -0.18879493      -0.12894139       0.43422289 </v>
   <v>       0.31194365      -0.12961267       0.43442099 </v>
   <v>       0.06304405       0.37153582       0.43427289 </v>
   <v>      -0.06262351      -0.37937120       0.43447067 </v>
   <v>       0.18714088      -0.37966847       0.43444873 </v>
   <v>      -0.31226306       0.12016103       0.43423519 </v>
   <v>       0.43699894       0.12085816       0.43433216 </v>
   <v>      -0.18830722       0.37141229       0.43419403 </v>
   <v>       0.31233200       0.37041348       0.43444965 </v>
   <v>       0.43659971      -0.37877248       0.43439461 </v>
   <v>      -0.31200364      -0.37942170       0.43442746 </v>
   <v>      -0.43754272      -0.12947735       0.43441932 </v>
   <v>      -0.43805214       0.37089327       0.43441183 </v>
   <v>       0.05909965      -0.12647324      -0.21152611 </v>
   <v>       0.18439988       0.12327694      -0.21130802 </v>
   <v>      -0.06663404       0.12513237      -0.21139750 </v>
   <v>       0.30954982      -0.12646624      -0.21138251 </v>
   <v>      -0.19086355      -0.12555831      -0.21141884 </v>
   <v>       0.05913587       0.37385179      -0.21151228 </v>
   <v>       0.18425004      -0.37649547      -0.21129940 </v>
   <v>      -0.06660664      -0.37478185      -0.21134557 </v>
   <v>       0.43343194       0.12340924      -0.21095042 </v>
   <v>      -0.31720188       0.12349677      -0.21126206 </v>
   <v>       0.30984956       0.37317310      -0.21145536 </v>
   <v>      -0.19091831       0.37419311      -0.21139729 </v>
   <v>       0.43344422      -0.37609795      -0.21099370 </v>
   <v>      -0.44066665      -0.12648296      -0.21136311 </v>
   <v>      -0.31720935      -0.37666623      -0.21125586 </v>
   <v>       0.18740359      -0.04413693       0.47866217 </v>
   <v>      -0.06261131      -0.04465584       0.47869687 </v>
   <v>       0.06266088       0.20597380       0.47868159 </v>
   <v>      -0.44080709       0.37345736      -0.21132996 </v>
   <v>       0.06228774      -0.29430723       0.47853710 </v>
   <v>      -0.18764290       0.20591491       0.47866403 </v>
   <v>       0.31244682       0.20577903       0.47871970 </v>
   <v>      -0.18754494      -0.29430455       0.47864395 </v>
   <v>       0.31224555      -0.29431815       0.47866252 </v>
   <v>      -0.31246959      -0.04398992       0.47869077 </v>
   <v>       0.43721867      -0.04413285       0.47866732 </v>
   <v>      -0.06286325       0.45581405       0.47861830 </v>
   <v>       0.18733648       0.45558992       0.47864999 </v>
   <v>      -0.43775724       0.20582097       0.47868257 </v>
   <v>       0.43733838       0.45603316       0.47858804 </v>
   <v>      -0.31279422       0.45567076       0.47864595 </v>
   <v>      -0.43755618      -0.29420659       0.47866120 </v>
   <v>       0.06564074       0.04137474      -0.25569633 </v>
   <v>      -0.05996109      -0.20894176      -0.25552173 </v>
   <v>       0.19027181      -0.20855051      -0.25574442 </v>
   <v>      -0.18455053       0.04102968      -0.25580691 </v>
   <v>      -0.05968909       0.29107040      -0.25550432 </v>
   <v>       0.31517133       0.04171106      -0.25572199 </v>
   <v>       0.19036491       0.29131243      -0.25568074 </v>
   <v>       0.06554472      -0.45865101      -0.25566147 </v>
   <v>      -0.30985657      -0.20856354      -0.25578236 </v>
   <v>       0.44012653      -0.20853360      -0.25573679 </v>
   <v>      -0.30995260       0.29153692      -0.25573521 </v>
   <v>       0.44019124       0.29158296      -0.25556461 </v>
   <v>      -0.18457544      -0.45867524      -0.25561500 </v>
   <v>       0.31521967      -0.45853623      -0.25577757 </v>
   <v>      -0.43425016       0.04149902      -0.25572466 </v>
   <v>       0.06177440      -0.12839891      -0.47861101 </v>
   <v>       0.18678816       0.12157030      -0.47866764 </v>
   <v>      -0.06348292       0.12162908      -0.47856978 </v>
   <v>      -0.18839543      -0.12834632      -0.47864909 </v>
   <v>       0.31163868      -0.12811773      -0.47858134 </v>
   <v>       0.06154879       0.37234239      -0.47864461 </v>
   <v>      -0.43448461      -0.45877727      -0.25568449 </v>
   <v>      -0.06330132      -0.37803886      -0.47861326 </v>
   <v>       0.18681785      -0.37853008      -0.47859436 </v>
   <v>      -0.31339765       0.12178690      -0.47865372 </v>
   <v>       0.43690566       0.12138812      -0.47857155 </v>
   <v>       0.31163635       0.37187734      -0.47863189 </v>
   <v>      -0.18798944       0.37213142      -0.47862526 </v>
   <v>      -0.31335320      -0.37864904      -0.47870732 </v>
   <v>       0.43676450      -0.37806808      -0.47864438 </v>
   <v>      -0.43797629      -0.12789348      -0.47854932 </v>
   <v>      -0.43824578       0.37195294      -0.47862385 </v>
   <v>       0.18475333      -0.04243431      -0.30020278 </v>
   <v>      -0.06448265      -0.04248208      -0.30024620 </v>
   <v>       0.06029856       0.20780538      -0.30023809 </v>
   <v>       0.06059368      -0.29240375      -0.30025158 </v>
   <v>       0.31058124       0.20747266      -0.30021134 </v>
   <v>      -0.18969923       0.20710651      -0.30014674 </v>
   <v>       0.31016236      -0.29297011      -0.30023132 </v>
   <v>      -0.18955852      -0.29263228      -0.30021821 </v>
   <v>      -0.31554419      -0.04312822      -0.30003595 </v>
   <v>       0.43536382      -0.04201517      -0.30024931 </v>
   <v>       0.18516784       0.45777245      -0.30020233 </v>
   <v>      -0.06459902       0.45797703      -0.30031330 </v>
   <v>      -0.43934002       0.20710651      -0.30021406 </v>
   <v>       0.43559836       0.45738654      -0.30013726 </v>
   <v>      -0.31455771       0.45779966      -0.30018189 </v>
   <v>      -0.44037691      -0.29314549      -0.30011877 </v>
   <v>      -0.06339839      -0.04264517      -0.43454657 </v>
   <v>       0.18684578      -0.04282768      -0.43446731 </v>
   <v>       0.06221387       0.20715124      -0.43464129 </v>
   <v>       0.06191941      -0.29353714      -0.43456466 </v>
   <v>       0.31140650       0.20659091      -0.43444926 </v>
   <v>      -0.18881128       0.20701574      -0.43447836 </v>
   <v>       0.31112855      -0.29308185      -0.43453180 </v>
   <v>      -0.18870974      -0.29335012      -0.43451493 </v>
   <v>       0.43689338      -0.04270387      -0.43457692 </v>
   <v>      -0.31266788      -0.04288309      -0.43448366 </v>
   <v>      -0.06319599       0.45678313      -0.43448063 </v>
   <v>       0.18740790       0.45702271      -0.43446307 </v>
   <v>      -0.43833108       0.20667014      -0.43446722 </v>
   <v>      -0.31325015       0.45722770      -0.43459289 </v>
   <v>       0.43653317       0.45677176      -0.43440291 </v>
   <v>      -0.43829644      -0.29306310      -0.43447581 </v>
   <v>       0.06625099      -0.12496716      -0.34490444 </v>
   <v>       0.19124238       0.12520556      -0.34490460 </v>
   <v>      -0.05860740       0.12462429      -0.34505816 </v>
   <v>      -0.18373332      -0.12546485      -0.34508197 </v>
   <v>       0.31618654      -0.12518933      -0.34489076 </v>
   <v>       0.06603420       0.37496908      -0.34496446 </v>
   <v>      -0.05858480      -0.37489832      -0.34508799 </v>
   <v>       0.19123596      -0.37496298      -0.34498785 </v>
   <v>      -0.30856008       0.12482104      -0.34479772 </v>
   <v>      -0.18356177       0.37482818      -0.34503434 </v>
   <v>       0.44138536       0.12477152      -0.34504615 </v>
   <v>       0.31623829       0.37431065      -0.34501995 </v>
   <v>      -0.30884439      -0.37491042      -0.34486418 </v>
   <v>      -0.43417356      -0.12575496      -0.34498237 </v>
   <v>       0.44122791      -0.37536761      -0.34505583 </v>
   <v>      -0.43375935       0.37423306      -0.34505989 </v>
   <v>       0.05909433       0.03845612      -0.38909966 </v>
   <v>       0.18382127      -0.21172775      -0.38904845 </v>
   <v>      -0.06653177      -0.21243829      -0.38907355 </v>
   <v>       0.30895848       0.03831029      -0.38896092 </v>
   <v>      -0.06619258       0.28840035      -0.38915788 </v>
   <v>      -0.19068203       0.03861149      -0.38900955 </v>
   <v>       0.18401233       0.28827012      -0.38904412 </v>
   <v>       0.05868015      -0.46193066      -0.38901227 </v>
   <v>       0.43394532      -0.21141403      -0.38896622 </v>
   <v>      -0.31576810      -0.21131203      -0.38894876 </v>
   <v>       0.43392467       0.28809442      -0.38907526 </v>
   <v>      -0.31585999       0.28933594      -0.38893417 </v>
   <v>       0.30909563      -0.46139827      -0.38896991 </v>
   <v>      -0.19096784      -0.46101427      -0.38886372 </v>
   <v>      -0.44100372       0.03850288      -0.38895419 </v>
   <v>      -0.44118810      -0.46178860      -0.38901340 </v>
  </varray>
 </structure>
 <varray name="primitive_index" >
  <v type="int" >        1 </v>
  <v type="int" >      125 </v>
  <v type="int" >       60 </v>
  <v type="int" >       83 </v>
  <v type="int" >       44 </v>
  <v type="int" >      202 </v>
  <v type="int" >       26 </v>
  <v type="int" >      256 </v>
  <v type="int" >      111 </v>
  <v type="int" >      155 </v>
  <v type="int" >      277 </v>
  <v type="int" >       51 </v>
  <v type="int" >      102 </v>
  <v type="int" >      182 </v>
  <v type="int" >      212 </v>
  <v type="int" >       20 </v>
  <v type="int" >      108 </v>
  <v type="int" >      170 </v>
  <v type="int" >       50 </v>
  <v type="int" >      146 </v>
  <v type="int" >      104 </v>
  <v type="int" >      163 </v>
  <v type="int" >      176 </v>
  <v type="int" >      284 </v>
  <v type="int" >      166 </v>
  <v type="int" >      117 </v>
  <v type="int" >      145 </v>
  <v type="int" >      250 </v>
  <v type="int" >      167 </v>
  <v type="int" >      114 </v>
  <v type="int" >      205 </v>
  <v type="int" >      249 </v>
  <v type="int" >       91 </v>
  <v type="int" >      213 </v>
  <v type="int" >      192 </v>
  <v type="int" >      174 </v>
  <v type="int" >       92 </v>
  <v type="int" >      276 </v>
  <v type="int" >       97 </v>
  <v type="int" >      189 </v>
  <v type="int" >      229 </v>
  <v type="int" >      175 </v>
  <v type="int" >       30 </v>
  <v type="int" >      185 </v>
  <v type="int" >      200 </v>
  <v type="int" >       52 </v>
  <v type="int" >      179 </v>
  <v type="int" >      103 </v>
  <v type="int" >       24 </v>
  <v type="int" >      112 </v>
  <v type="int" >      283 </v>
  <v type="int" >      127 </v>
  <v type="int" >      261 </v>
  <v type="int" >      139 </v>
  <v type="int" >      288 </v>
  <v type="int" >      137 </v>
  <v type="int" >      168 </v>
  <v type="int" >      118 </v>
  <v type="int" >      265 </v>
  <v type="int" >       58 </v>
  <v type="int" >      275 </v>
  <v type="int" >       81 </v>
  <v type="int" >      221 </v>
  <v type="int" >      214 </v>
  <v type="int" >      135 </v>
  <v type="int" >      215 </v>
  <v type="int" >       72 </v>
  <v type="int" >       98 </v>
  <v type="int" >      226 </v>
  <v type="int" >       28 </v>
  <v type="int" >      178 </v>
  <v type="int" >      109 </v>
  <v type="int" >      263 </v>
  <v type="int" >      220 </v>
  <v type="int" >      242 </v>
  <v type="int" >      159 </v>
  <v type="int" >      130 </v>
  <v type="int" >      210 </v>
  <v type="int" >      101 </v>
  <v type="int" >      171 </v>
  <v type="int" >      258 </v>
  <v type="int" >      194 </v>
  <v type="int" >       47 </v>
  <v type="int" >      216 </v>
  <v type="int" >       86 </v>
  <v type="int" >      207 </v>
  <v type="int" >      208 </v>
  <v type="int" >      172 </v>
  <v type="int" >       73 </v>
  <v type="int" >       25 </v>
  <v type="int" >      116 </v>
  <v type="int" >       12 </v>
  <v type="int" >      219 </v>
  <v type="int" >      206 </v>
  <v type="int" >       22 </v>
  <v type="int" >       48 </v>
  <v type="int" >      164 </v>
  <v type="int" >      268 </v>
  <v type="int" >      281 </v>
  <v type="int" >      245 </v>
  <v type="int" >       14 </v>
  <v type="int" >      120 </v>
  <v type="int" >      280 </v>
  <v type="int" >      150 </v>
  <v type="int" >       29 </v>
  <v type="int" >      266 </v>
  <v type="int" >      124 </v>
  <v type="int" >      255 </v>
  <v type="int" >      191 </v>
  <v type="int" >      190 </v>
  <v type="int" >       18 </v>
  <v type="int" >      231 </v>
  <v type="int" >      287 </v>
  <v type="int" >      279 </v>
  <v type="int" >       13 </v>
  <v type="int" >      165 </v>
  <v type="int" >      161 </v>
  <v type="int" >      248 </v>
  <v type="int" >      273 </v>
  <v type="int" >       45 </v>
  <v type="int" >       84 </v>
  <v type="int" >      264 </v>
  <v type="int" >        4 </v>
  <v type="int" >      123 </v>
  <v type="int" >       64 </v>
  <v type="int" >       67 </v>
  <v type="int" >       16 </v>
  <v type="int" >       17 </v>
  <v type="int" >        7 </v>
  <v type="int" >      259 </v>
  <v type="int" >      134 </v>
  <v type="int" >        6 </v>
  <v type="int" >       39 </v>
  <v type="int" >      222 </v>
  <v type="int" >      253 </v>
  <v type="int" >       88 </v>
  <v type="int" >        5 </v>
  <v type="int" >      110 </v>
  <v type="int" >       36 </v>
  <v type="int" >      181 </v>
  <v type="int" >      285 </v>
  <v type="int" >      143 </v>
  <v type="int" >      160 </v>
  <v type="int" >      158 </v>
  <v type="int" >       82 </v>
  <v type="int" >       74 </v>
  <v type="int" >      241 </v>
  <v type="int" >      235 </v>
  <v type="int" >       23 </v>
  <v type="int" >      218 </v>
  <v type="int" >      131 </v>
  <v type="int" >      238 </v>
  <v type="int" >      257 </v>
  <v type="int" >      201 </v>
  <v type="int" >       80 </v>
  <v type="int" >      113 </v>
  <v type="int" >      278 </v>
  <v type="int" >      232 </v>
  <v type="int" >       69 </v>
  <v type="int" >      251 </v>
  <v type="int" >      197 </v>
  <v type="int" >        3 </v>
  <v type="int" >      149 </v>
  <v type="int" >      224 </v>
  <v type="int" >       55 </v>
  <v type="int" >      254 </v>
  <v type="int" >      272 </v>
  <v type="int" >      132 </v>
  <v type="int" >       49 </v>
  <v type="int" >      188 </v>
  <v type="int" >      138 </v>
  <v type="int" >       57 </v>
  <v type="int" >      184 </v>
  <v type="int" >       33 </v>
  <v type="int" >       66 </v>
  <v type="int" >       94 </v>
  <v type="int" >      236 </v>
  <v type="int" >      223 </v>
  <v type="int" >      106 </v>
  <v type="int" >      157 </v>
  <v type="int" >       21 </v>
  <v type="int" >      230 </v>
  <v type="int" >      234 </v>
  <v type="int" >       99 </v>
  <v type="int" >       75 </v>
  <v type="int" >      105 </v>
  <v type="int" >      269 </v>
  <v type="int" >      244 </v>
  <v type="int" >      237 </v>
  <v type="int" >      156 </v>
  <v type="int" >      199 </v>
  <v type="int" >      169 </v>
  <v type="int" >        9 </v>
  <v type="int" >       46 </v>
  <v type="int" >      262 </v>
  <v type="int" >      151 </v>
  <v type="int" >      187 </v>
  <v type="int" >      239 </v>
  <v type="int" >       11 </v>
  <v type="int" >      211 </v>
  <v type="int" >       43 </v>
  <v type="int" >       31 </v>
  <v type="int" >       19 </v>
  <v type="int" >       71 </v>
  <v type="int" >       87 </v>
  <v type="int" >      243 </v>
  <v type="int" >      267 </v>
  <v type="int" >       27 </v>
  <v type="int" >      140 </v>
  <v type="int" >      286 </v>
  <v type="int" >       10 </v>
  <v type="int" >      144 </v>
  <v type="int" >      107 </v>
  <v type="int" >      270 </v>
  <v type="int" >      203 </v>
  <v type="int" >       68 </v>
  <v type="int" >       34 </v>
  <v type="int" >      119 </v>
  <v type="int" >      183 </v>
  <v type="int" >      177 </v>
  <v type="int" >      195 </v>
  <v type="int" >      252 </v>
  <v type="int" >       77 </v>
  <v type="int" >      247 </v>
  <v type="int" >      173 </v>
  <v type="int" >      225 </v>
  <v type="int" >       37 </v>
  <v type="int" >      274 </v>
  <v type="int" >       63 </v>
  <v type="int" >      233 </v>
  <v type="int" >      154 </v>
  <v type="int" >      141 </v>
  <v type="int" >       54 </v>
  <v type="int" >       38 </v>
  <v type="int" >      246 </v>
  <v type="int" >      152 </v>
  <v type="int" >       53 </v>
  <v type="int" >      193 </v>
  <v type="int" >       76 </v>
  <v type="int" >      133 </v>
  <v type="int" >      129 </v>
  <v type="int" >      162 </v>
  <v type="int" >       62 </v>
  <v type="int" >       65 </v>
  <v type="int" >       93 </v>
  <v type="int" >      271 </v>
  <v type="int" >       90 </v>
  <v type="int" >       32 </v>
  <v type="int" >       56 </v>
  <v type="int" >       95 </v>
  <v type="int" >       42 </v>
  <v type="int" >       59 </v>
  <v type="int" >        8 </v>
  <v type="int" >      228 </v>
  <v type="int" >       70 </v>
  <v type="int" >      186 </v>
  <v type="int" >      196 </v>
  <v type="int" >      121 </v>
  <v type="int" >      122 </v>
  <v type="int" >       79 </v>
  <v type="int" >        2 </v>
  <v type="int" >      198 </v>
  <v type="int" >      240 </v>
  <v type="int" >      153 </v>
  <v type="int" >      209 </v>
  <v type="int" >       35 </v>
  <v type="int" >      204 </v>
  <v type="int" >       85 </v>
  <v type="int" >      227 </v>
  <v type="int" >       89 </v>
  <v type="int" >       40 </v>
  <v type="int" >       78 </v>
  <v type="int" >      142 </v>
  <v type="int" >       15 </v>
  <v type="int" >      136 </v>
  <v type="int" >      148 </v>
  <v type="int" >      100 </v>
  <v type="int" >      217 </v>
  <v type="int" >       61 </v>
  <v type="int" >      126 </v>
  <v type="int" >       96 </v>
  <v type="int" >      180 </v>
  <v type="int" >      115 </v>
  <v type="int" >      147 </v>
  <v type="int" >       41 </v>
  <v type="int" >      282 </v>
  <v type="int" >      260 </v>
  <v type="int" >      128 </v>
 </varray>
 <kpoints>
  <generation param="Gamma">
   <v type="int" name="divisions">       4        4        1 </v>
   <v name="usershift">      0.00000000       0.00000000       0.00000000 </v>
   <v name="genvec1">      0.25000000       0.00000000       0.00000000 </v>
   <v name="genvec2">      0.00000000       0.25000000       0.00000000 </v>
   <v name="genvec3">      0.00000000       0.00000000       1.00000000 </v>
   <v name="shift">      0.00000000       0.00000000       0.00000000 </v>
  </generation>
  <varray name="kpointlist" >
   <v>       0.00000000       0.00000000       0.00000000 </v>
   <v>       0.25000000       0.00000000       0.00000000 </v>
   <v>       0.50000000       0.00000000       0.00000000 </v>
   <v>       0.00000000       0.25000000       0.00000000 </v>
   <v>       0.25000000       0.25000000       0.00000000 </v>
   <v>       0.50000000       0.25000000       0.00000000 </v>
   <v>      -0.25000000       0.25000000       0.00000000 </v>
   <v>       0.00000000       0.50000000       0.00000000 </v>
   <v>       0.25000000       0.50000000       0.00000000 </v>
   <v>       0.50000000       0.50000000       0.00000000 </v>
  </varray>
  <varray name="weights" >
   <v>       0.06250000 </v>
   <v>       0.12500000 </v>
   <v>       0.06250000 </v>
   <v>       0.12500000 </v>
   <v>       0.12500000 </v>
   <v>       0.12500000 </v>
   <v>       0.12500000 </v>
   <v>       0.06250000 </v>
   <v>       0.12500000 </v>
   <v>       0.06250000 </v>
  </varray>
 </kpoints>
 <parameters>
  <separator name="general" >
   <i type="string" name="SYSTEM">unknown system</i>
   <i type="logical" name="LCOMPAT"> F  </i>
  </separator>
  <separator name="electronic" >
   <i type="string" name="PREC">accura</i>
   <i name="ENMAX">    450.00000000</i>
   <i name="ENAUG">    838.43500000</i>
   <i name="EDIFF">      0.00000100</i>
   <i type="int" name="IALGO">    68</i>
   <i type="int" name="IWAVPR">    11</i>
   <i type="int" name="NBANDS">  1386</i>
   <i name="NELECT">   2290.00000000</i>
   <i type="int" name="TURBO">     0</i>
   <i type="int" name="IRESTART">     0</i>
   <i type="int" name="NREBOOT">     0</i>
   <i type="int" name="NMIN">     0</i>
   <i name="EREF">      0.00000000</i>
   <separator name="electronic smearing" >
    <i type="int" name="ISMEAR">     0</i>
    <i name="SIGMA">      0.15000000</i>
    <i name="KSPACING">      0.50000000</i>
    <i type="logical" name="KGAMMA"> T  </i>
   </separator>
   <separator name="electronic projectors" >
    <i type="logical" name="LREAL"> T  </i>
    <v name="ROPT">     -0.00025000     -0.00025000</v>
    <i type="int" name="LMAXPAW">  -100</i>
    <i type="int" name="LMAXMIX">     2</i>
    <i type="logical" name="NLSPLINE"> F  </i>
   </separator>
   <separator name="electronic startup" >
    <i type="int" name="ISTART">     0</i>
    <i type="int" name="ICHARG">     2</i>
    <i type="int" name="INIWAV">     1</i>
   </separator>
   <separator name="electronic spin" >
    <i type="int" name="ISPIN">     1</i>
    <i type="logical" name="LNONCOLLINEAR"> F  </i>
    <v name="MAGMOM">      1.00000000      1.00000000      1.00000000      1.00000000      1.00000000      1.00000000      1.00000000      1.00000000      1.00000000      1.00000000      1.00000000      1.00000000      1.00000000      1.00000000      1.00000000      1.00000000      1.00000000      1.00000000      1.00000000      1.00000000
      1.00000000      1.00000000      1.00000000      1.00000000      1.00000000      1.00000000      1.00000000      1.00000000      1.00000000      1.00000000      1.00000000      1.00000000      1.00000000      1.00000000      1.00000000      1.00000000      1.00000000      1.00000000      1.00000000      1.00000000
      1.00000000      1.00000000      1.00000000      1.00000000      1.00000000      1.00000000      1.00000000      1.00000000      1.00000000      1.00000000      1.00000000      1.00000000      1.00000000      1.00000000      1.00000000      1.00000000      1.00000000      1.00000000      1.00000000      1.00000000
      1.00000000      1.00000000      1.00000000      1.00000000      1.00000000      1.00000000      1.00000000      1.00000000      1.00000000      1.00000000      1.00000000      1.00000000      1.00000000      1.00000000      1.00000000      1.00000000      1.00000000      1.00000000      1.00000000      1.00000000
      1.00000000      1.00000000      1.00000000      1.00000000      1.00000000      1.00000000      1.00000000      1.00000000      1.00000000      1.00000000      1.00000000      1.00000000      1.00000000      1.00000000      1.00000000      1.00000000      1.00000000      1.00000000      1.00000000      1.00000000
      1.00000000      1.00000000      1.00000000      1.00000000      1.00000000      1.00000000      1.00000000      1.00000000      1.00000000      1.00000000      1.00000000      1.00000000      1.00000000      1.00000000      1.00000000      1.00000000      1.00000000      1.00000000      1.00000000      1.00000000
      1.00000000      1.00000000      1.00000000      1.00000000      1.00000000      1.00000000      1.00000000      1.00000000      1.00000000      1.00000000      1.00000000      1.00000000      1.00000000      1.00000000      1.00000000      1.00000000      1.00000000      1.00000000      1.00000000      1.00000000
      1.00000000      1.00000000      1.00000000      1.00000000      1.00000000      1.00000000      1.00000000      1.00000000      1.00000000      1.00000000      1.00000000      1.00000000      1.00000000      1.00000000      1.00000000      1.00000000      1.00000000      1.00000000      1.00000000      1.00000000
      1.00000000      1.00000000      1.00000000      1.00000000      1.00000000      1.00000000      1.00000000      1.00000000      1.00000000      1.00000000      1.00000000      1.00000000      1.00000000      1.00000000      1.00000000      1.00000000      1.00000000      1.00000000      1.00000000      1.00000000
      1.00000000      1.00000000      1.00000000      1.00000000      1.00000000      1.00000000      1.00000000      1.00000000      1.00000000      1.00000000      1.00000000      1.00000000      1.00000000      1.00000000      1.00000000      1.00000000      1.00000000      1.00000000      1.00000000      1.00000000
      1.00000000      1.00000000      1.00000000      1.00000000      1.00000000      1.00000000      1.00000000      1.00000000      1.00000000      1.00000000      1.00000000      1.00000000      1.00000000      1.00000000      1.00000000      1.00000000      1.00000000      1.00000000      1.00000000      1.00000000
      1.00000000      1.00000000      1.00000000      1.00000000      1.00000000      1.00000000      1.00000000      1.00000000      1.00000000      1.00000000      1.00000000      1.00000000      1.00000000      1.00000000      1.00000000      1.00000000      1.00000000      1.00000000      1.00000000      1.00000000
      1.00000000      1.00000000      1.00000000      1.00000000      1.00000000      1.00000000      1.00000000      1.00000000      1.00000000      1.00000000      1.00000000      1.00000000      1.00000000      1.00000000      1.00000000      1.00000000      1.00000000      1.00000000      1.00000000      1.00000000
      1.00000000      1.00000000      1.00000000      1.00000000      1.00000000      1.00000000      1.00000000      1.00000000      1.00000000      1.00000000      1.00000000      1.00000000      1.00000000      1.00000000      1.00000000      1.00000000      1.00000000      1.00000000      1.00000000      1.00000000
      1.00000000      1.00000000      1.00000000      1.00000000      1.00000000      1.00000000      1.00000000      1.00000000</v>
    <i name="NUPDOWN">     -1.00000000</i>
    <i type="logical" name="LSORBIT"> F  </i>
    <v name="SAXIS">      0.00000000      0.00000000      1.00000000</v>
    <i type="logical" name="LSPIRAL"> F  </i>
    <v name="QSPIRAL">      0.00000000      0.00000000      0.00000000</v>
    <i type="logical" name="LZEROZ"> F  </i>
   </separator>
   <separator name="electronic exchange-correlation" >
    <i type="logical" name="LASPH"> F  </i>
    <i type="logical" name="LMETAGGA"> F  </i>
   </separator>
   <separator name="electronic convergence" >
    <i type="int" name="NELM">   100</i>
    <i type="int" name="NELMDL">     0</i>
    <i type="int" name="NELMIN">     4</i>
    <i name="ENINI">    450.00000000</i>
    <separator name="electronic convergence detail" >
     <i type="logical" name="LDIAG"> T  </i>
     <i type="logical" name="LSUBROT"> F  </i>
     <i name="WEIMIN">      0.00100000</i>
     <i name="EBREAK">      0.00000000</i>
     <i name="DEPER">      0.30000000</i>
     <i type="int" name="NRMM">     4</i>
     <i name="TIME">      0.40000000</i>
    </separator>
   </separator>
   <separator name="electronic mixer" >
    <i name="AMIX">      0.40000000</i>
    <i name="BMIX">      1.00000000</i>
    <i name="AMIN">      0.10000000</i>
    <i name="AMIX_MAG">      1.60000000</i>
    <i name="BMIX_MAG">      1.00000000</i>
    <separator name="electronic mixer details" >
     <i type="int" name="IMIX">     4</i>
     <i type="logical" name="MIXFIRST"> F  </i>
     <i type="int" name="MAXMIX">   -45</i>
     <i name="WC">    100.00000000</i>
     <i type="int" name="INIMIX">     1</i>
     <i type="int" name="MIXPRE">     1</i>
     <i type="int" name="MREMOVE">     5</i>
    </separator>
   </separator>
   <separator name="electronic dipolcorrection" >
    <i type="logical" name="LDIPOL"> F  </i>
    <i type="logical" name="LMONO"> F  </i>
    <i type="int" name="IDIPOL">     0</i>
    <i name="EPSILON">      1.00000000</i>
    <v name="DIPOL">   -100.00000000   -100.00000000   -100.00000000</v>
    <i name="EFIELD">      0.00000000</i>
   </separator>
  </separator>
  <separator name="grids" >
   <i type="int" name="NGX">    70</i>
   <i type="int" name="NGY">    60</i>
   <i type="int" name="NGZ">   320</i>
   <i type="int" name="NGXF">   140</i>
   <i type="int" name="NGYF">   120</i>
   <i type="int" name="NGZF">   640</i>
   <i type="logical" name="ADDGRID"> F  </i>
  </separator>
  <separator name="ionic" >
   <i type="int" name="NSW">     5</i>
   <i type="int" name="IBRION">     2</i>
   <i type="int" name="MDALGO">     0</i>
   <i type="int" name="ISIF">     2</i>
   <i name="PSTRESS">      0.00000000</i>
   <i name="EDIFFG">      0.00001000</i>
   <i type="int" name="NFREE">     1</i>
   <i name="POTIM">      0.25000000</i>
   <i name="SMASS">     -3.00000000</i>
   <i name="SCALEE">      1.00000000</i>
  </separator>
  <separator name="ionic md" >
   <i name="TEBEG">      0.00010000</i>
   <i name="TEEND">      0.00010000</i>
   <i type="int" name="NBLOCK">     1</i>
   <i type="int" name="KBLOCK">     5</i>
   <i type="int" name="NPACO">   256</i>
   <i name="APACO">     16.00000000</i>
  </separator>
  <separator name="symmetry" >
   <i type="int" name="ISYM">     2</i>
   <i name="SYMPREC">      0.00001000</i>
  </separator>
  <separator name="dos" >
   <i type="int" name="LORBIT">     0</i>
   <v name="RWIGS">     -1.00000000     -1.00000000</v>
   <i type="int" name="NEDOS">   301</i>
   <i name="EMIN">     10.00000000</i>
   <i name="EMAX">    -10.00000000</i>
   <i name="EFERMI">      0.00000000</i>
  </separator>
  <separator name="writing" >
   <i type="int" name="NWRITE">     2</i>
   <i type="logical" name="LWAVE"> F  </i>
   <i type="logical" name="LDOWNSAMPLE"> F  </i>
   <i type="logical" name="LCHARG"> F  </i>
   <i type="logical" name="LPARD"> F  </i>
   <i type="logical" name="LVTOT"> F  </i>
   <i type="logical" name="LVHAR"> F  </i>
   <i type="logical" name="LELF"> F  </i>
   <i type="logical" name="LOPTICS"> F  </i>
   <v name="STM">      0.00000000      0.00000000      0.00000000      0.00000000      0.00000000      0.00000000      0.00000000</v>
  </separator>
  <separator name="performance" >
   <i type="int" name="NPAR">    14</i>
   <i type="int" name="NSIM">     4</i>
   <i type="int" name="NBLK">    -1</i>
   <i type="logical" name="LPLANE"> T  </i>
   <i type="logical" name="LSCALAPACK"> T  </i>
   <i type="logical" name="LSCAAWARE"> T  </i>
   <i type="logical" name="LSCALU"> F  </i>
   <i type="logical" name="LASYNC"> F  </i>
   <i type="logical" name="LORBITALREAL"> F  </i>
  </separator>
  <separator name="miscellaneous" >
   <i type="int" name="IDIOT">     3</i>
   <i type="int" name="ISPECIAL">     0</i>
   <i type="logical" name="LMUSIC"> F  </i>
   <v name="POMASS">     55.84700000     54.93800000</v>
   <v name="DARWINR">      0.00000000      0.00000000</v>
   <v name="DARWINV">      1.00000000      1.00000000</v>
   <i type="logical" name="LCORR"> T  </i>
  </separator>
  <i type="logical" name="GGA_COMPAT"> T  </i>
  <i type="logical" name="LBERRY"> F  </i>
  <i type="int" name="ICORELEVEL">     0</i>
  <i type="logical" name="LDAU"> F  </i>
  <i type="int" name="I_CONSTRAINED_M">     0</i>
  <separator name="electronic exchange-correlation" >
   <i type="string" name="GGA">--</i>
   <i type="int" name="VOSKOWN">     0</i>
   <i type="logical" name="LHFCALC"> F  </i>
   <i type="string" name="PRECFOCK"></i>
   <i type="logical" name="LSYMGRAD"> F  </i>
   <i type="logical" name="LHFONE"> F  </i>
   <i type="logical" name="LRHFCALC"> F  </i>
   <i type="logical" name="LTHOMAS"> F  </i>
   <i type="logical" name="LMODELHF"> F  </i>
   <i name="ENCUT4O">     -1.00000000</i>
   <i type="int" name="EXXOEP">     0</i>
   <i type="int" name="FOURORBIT">     0</i>
   <i name="AEXX">      0.00000000</i>
   <i name="HFALPHA">      0.00000000</i>
   <i name="MCALPHA">      0.00000000</i>
   <i name="ALDAX">      1.00000000</i>
   <i name="AGGAX">      1.00000000</i>
   <i name="ALDAC">      1.00000000</i>
   <i name="AGGAC">      1.00000000</i>
   <i type="int" name="NKREDX">     1</i>
   <i type="int" name="NKREDY">     1</i>
   <i type="int" name="NKREDZ">     1</i>
   <i type="logical" name="SHIFTRED"> F  </i>
   <i type="logical" name="ODDONLY"> F  </i>
   <i type="logical" name="EVENONLY"> F  </i>
   <i type="int" name="LMAXFOCK">     0</i>
   <i type="int" name="NMAXFOCKAE">     0</i>
   <i type="logical" name="LFOCKAEDFT"> F  </i>
   <i name="HFSCREEN">      0.00000000</i>
   <i name="HFSCREENC">      0.00000000</i>
   <i type="int" name="NBANDSGWLOW">     0</i>
  </separator>
  <separator name="vdW DFT" >
   <i type="logical" name="LUSE_VDW"> F  </i>
   <i name="Zab_VDW">     -0.84910000</i>
   <i name="PARAM1">      0.12340000</i>
   <i name="PARAM2">      1.00000000</i>
   <i name="PARAM3">      0.00000000</i>
  </separator>
  <separator name="model GW" >
   <i type="int" name="MODEL_GW">     0</i>
   <i name="MODEL_EPS0">      7.68123389</i>
   <i name="MODEL_ALPHA">      1.00000000</i>
  </separator>
  <separator name="linear response parameters" >
   <i type="logical" name="LEPSILON"> F  </i>
   <i type="logical" name="LRPA"> F  </i>
   <i type="logical" name="LNABLA"> F  </i>
   <i type="logical" name="LVEL"> F  </i>
   <i type="int" name="KINTER">     0</i>
   <i name="CSHIFT">      0.10000000</i>
   <i name="OMEGAMAX">     -1.00000000</i>
   <i name="DEG_THRESHOLD">      0.00200000</i>
   <i name="RTIME">     -0.10000000</i>
   <i name="WPLASMAI">      0.00000000</i>
   <v name="DFIELD">      0.00000000      0.00000000      0.00000000</v>
   <v name="WPLASMA">      0.00000000      0.00000000      0.00000000      0.00000000      0.00000000      0.00000000      0.00000000      0.00000000      0.00000000</v>
  </separator>
  <separator name="orbital magnetization" >
   <i type="logical" name="NUCIND"> F  </i>
   <v name="MAGPOS">      0.00000000      0.00000000      0.00000000</v>
   <i type="logical" name="LNICSALL"> T  </i>
   <i type="logical" name="ORBITALMAG"> F  </i>
   <i type="logical" name="LMAGBLOCH"> F  </i>
   <i type="logical" name="LCHIMAG"> F  </i>
   <i type="logical" name="LGAUGE"> T  </i>
   <i type="int" name="MAGATOM">     0</i>
   <v name="MAGDIPOL">      0.00000000      0.00000000      0.00000000</v>
   <v name="AVECCONST">      0.00000000      0.00000000      0.00000000</v>
  </separator>
  <separator name="response functions" >
   <i type="logical" name="LADDER"> F  </i>
   <i type="logical" name="LRPAFORCE"> F  </i>
   <i type="logical" name="LFXC"> F  </i>
   <i type="logical" name="LHARTREE"> T  </i>
   <i type="int" name="IBSE">     0</i>
   <v type="int" name="KPOINT">    -1     0     0     0</v>
   <i type="logical" name="LTCTE"> F  </i>
   <i type="logical" name="LTETE"> F  </i>
   <i type="logical" name="LTRIPLET"> F  </i>
   <i type="logical" name="LFXCEPS"> F  </i>
   <i type="logical" name="LFXHEG"> F  </i>
   <i type="int" name="NATURALO">     2</i>
   <i type="logical" name="L2ORDER"> F  </i>
   <i type="logical" name="LMP2LT"> F  </i>
   <i type="logical" name="LUSEW"> F  </i>
   <i name="ENCUTGW">     -2.00000000</i>
   <i name="ENCUTGWSOFT">     -2.00000000</i>
   <i name="ENCUTLF">     -1.00000000</i>
   <i type="int" name="LMAXMP2">    -1</i>
   <i name="SCISSOR">      0.00000000</i>
   <i type="int" name="NOMEGA">     0</i>
   <i type="int" name="NOMEGAR">     0</i>
   <i type="int" name="NBANDSGW">    -1</i>
   <i type="int" name="NBANDSO">    -1</i>
   <i type="int" name="NBANDSV">    -1</i>
   <i type="int" name="NELM">   100</i>
   <i type="int" name="NELMHF">     1</i>
   <i type="int" name="DIM">     3</i>
   <i type="int" name="ANTIRES">     0</i>
   <i name="OMEGAMAX">    -30.00000000</i>
   <i name="OMEGAMIN">    -30.00000000</i>
   <i name="OMEGATL">   -200.00000000</i>
   <i type="int" name="OMEGAGRID">   140</i>
   <i name="CSHIFT">     -0.10000000</i>
   <i type="logical" name="SELFENERGY"> F  </i>
   <i type="logical" name="LSPECTRAL"> F  </i>
   <i type="logical" name="LSPECTRALGW"> F  </i>
   <i type="logical" name="LSINGLES"> F  </i>
   <i type="logical" name="LFERMIGW"> F  </i>
   <i type="logical" name="ODDONLYGW"> F  </i>
   <i type="logical" name="EVENONLYGW"> F  </i>
   <i type="int" name="NKREDLFX">     1</i>
   <i type="int" name="NKREDLFY">     1</i>
   <i type="int" name="NKREDLFZ">     1</i>
   <i type="int" name="MAXMEM">  2800</i>
   <i type="int" name="TELESCOPE">     0</i>
   <i type="int" name="TAUPAR">     1</i>
   <i type="int" name="OMEGAPAR">    -1</i>
   <i name="LAMBDA">      1.00000000</i>
  </separator>
  <separator name="External order field" >
   <i name="OFIELD_KAPPA">      0.00000000</i>
   <v name="OFIELD_K">      0.00000000      0.00000000      0.00000000</v>
   <i name="OFIELD_Q6_NEAR">      0.00000000</i>
   <i name="OFIELD_Q6_FAR">      0.00000000</i>
   <i name="OFIELD_A">      0.00000000</i>
  </separator>
 </parameters>
 <atominfo>
  <atoms>     288 </atoms>
  <types>       2 </types>
  <array name="atoms" >
   <dimension dim="1">ion</dimension>
   <field type="string">element</field>
   <field type="int">atomtype</field>
   <set>
    <rc><c>Fe</c><c>   1</c></rc>
    <rc><c>Fe</c><c>   1</c></rc>
    <rc><c>Fe</c><c>   1</c></rc>
    <rc><c>Fe</c><c>   1</c></rc>
    <rc><c>Fe</c><c>   1</c></rc>
    <rc><c>Fe</c><c>   1</c></rc>
    <rc><c>Fe</c><c>   1</c></rc>
    <rc><c>Fe</c><c>   1</c></rc>
    <rc><c>Fe</c><c>   1</c></rc>
    <rc><c>Fe</c><c>   1</c></rc>
    <rc><c>Fe</c><c>   1</c></rc>
    <rc><c>Fe</c><c>   1</c></rc>
    <rc><c>Fe</c><c>   1</c></rc>
    <rc><c>Fe</c><c>   1</c></rc>
    <rc><c>Fe</c><c>   1</c></rc>
    <rc><c>Fe</c><c>   1</c></rc>
    <rc><c>Fe</c><c>   1</c></rc>
    <rc><c>Fe</c><c>   1</c></rc>
    <rc><c>Fe</c><c>   1</c></rc>
    <rc><c>Fe</c><c>   1</c></rc>
    <rc><c>Fe</c><c>   1</c></rc>
    <rc><c>Fe</c><c>   1</c></rc>
    <rc><c>Fe</c><c>   1</c></rc>
    <rc><c>Fe</c><c>   1</c></rc>
    <rc><c>Fe</c><c>   1</c></rc>
    <rc><c>Fe</c><c>   1</c></rc>
    <rc><c>Fe</c><c>   1</c></rc>
    <rc><c>Fe</c><c>   1</c></rc>
    <rc><c>Fe</c><c>   1</c></rc>
    <rc><c>Fe</c><c>   1</c></rc>
    <rc><c>Fe</c><c>   1</c></rc>
    <rc><c>Fe</c><c>   1</c></rc>
    <rc><c>Fe</c><c>   1</c></rc>
    <rc><c>Fe</c><c>   1</c></rc>
    <rc><c>Fe</c><c>   1</c></rc>
    <rc><c>Fe</c><c>   1</c></rc>
    <rc><c>Fe</c><c>   1</c></rc>
    <rc><c>Fe</c><c>   1</c></rc>
    <rc><c>Fe</c><c>   1</c></rc>
    <rc><c>Fe</c><c>   1</c></rc>
    <rc><c>Fe</c><c>   1</c></rc>
    <rc><c>Fe</c><c>   1</c></rc>
    <rc><c>Fe</c><c>   1</c></rc>
    <rc><c>Fe</c><c>   1</c></rc>
    <rc><c>Fe</c><c>   1</c></rc>
    <rc><c>Fe</c><c>   1</c></rc>
    <rc><c>Fe</c><c>   1</c></rc>
    <rc><c>Fe</c><c>   1</c></rc>
    <rc><c>Fe</c><c>   1</c></rc>
    <rc><c>Fe</c><c>   1</c></rc>
    <rc><c>Fe</c><c>   1</c></rc>
    <rc><c>Fe</c><c>   1</c></rc>
    <rc><c>Fe</c><c>   1</c></rc>
    <rc><c>Fe</c><c>   1</c></rc>
    <rc><c>Fe</c><c>   1</c></rc>
    <rc><c>Fe</c><c>   1</c></rc>
    <rc><c>Fe</c><c>   1</c></rc>
    <rc><c>Fe</c><c>   1</c></rc>
    <rc><c>Fe</c><c>   1</c></rc>
    <rc><c>Fe</c><c>   1</c></rc>
    <rc><c>Fe</c><c>   1</c></rc>
    <rc><c>Fe</c><c>   1</c></rc>
    <rc><c>Fe</c><c>   1</c></rc>
    <rc><c>Fe</c><c>   1</c></rc>
    <rc><c>Fe</c><c>   1</c></rc>
    <rc><c>Fe</c><c>   1</c></rc>
    <rc><c>Fe</c><c>   1</c></rc>
    <rc><c>Fe</c><c>   1</c></rc>
    <rc><c>Fe</c><c>   1</c></rc>
    <rc><c>Fe</c><c>   1</c></rc>
    <rc><c>Fe</c><c>   1</c></rc>
    <rc><c>Fe</c><c>   1</c></rc>
    <rc><c>Fe</c><c>   1</c></rc>
    <rc><c>Fe</c><c>   1</c></rc>
    <rc><c>Fe</c><c>   1</c></rc>
    <rc><c>Fe</c><c>   1</c></rc>
    <rc><c>Fe</c><c>   1</c></rc>
    <rc><c>Fe</c><c>   1</c></rc>
    <rc><c>Fe</c><c>   1</c></rc>
    <rc><c>Fe</c><c>   1</c></rc>
    <rc><c>Fe</c><c>   1</c></rc>
    <rc><c>Fe</c><c>   1</c></rc>
    <rc><c>Fe</c><c>   1</c></rc>
    <rc><c>Fe</c><c>   1</c></rc>
    <rc><c>Fe</c><c>   1</c></rc>
    <rc><c>Fe</c><c>   1</c></rc>
    <rc><c>Fe</c><c>   1</c></rc>
    <rc><c>Fe</c><c>   1</c></rc>
    <rc><c>Fe</c><c>   1</c></rc>
    <rc><c>Fe</c><c>   1</c></rc>
    <rc><c>Fe</c><c>   1</c></rc>
    <rc><c>Fe</c><c>   1</c></rc>
    <rc><c>Fe</c><c>   1</c></rc>
    <rc><c>Fe</c><c>   1</c></rc>
    <rc><c>Fe</c><c>   1</c></rc>
    <rc><c>Fe</c><c>   1</c></rc>
    <rc><c>Fe</c><c>   1</c></rc>
    <rc><c>Fe</c><c>   1</c></rc>
    <rc><c>Fe</c><c>   1</c></rc>
    <rc><c>Fe</c><c>   1</c></rc>
    <rc><c>Fe</c><c>   1</c></rc>
    <rc><c>Fe</c><c>   1</c></rc>
    <rc><c>Fe</c><c>   1</c></rc>
    <rc><c>Fe</c><c>   1</c></rc>
    <rc><c>Fe</c><c>   1</c></rc>
    <rc><c>Fe</c><c>   1</c></rc>
    <rc><c>Fe</c><c>   1</c></rc>
    <rc><c>Fe</c><c>   1</c></rc>
    <rc><c>Fe</c><c>   1</c></rc>
    <rc><c>Fe</c><c>   1</c></rc>
    <rc><c>Fe</c><c>   1</c></rc>
    <rc><c>Fe</c><c>   1</c></rc>
    <rc><c>Fe</c><c>   1</c></rc>
    <rc><c>Fe</c><c>   1</c></rc>
    <rc><c>Fe</c><c>   1</c></rc>
    <rc><c>Fe</c><c>   1</c></rc>
    <rc><c>Fe</c><c>   1</c></rc>
    <rc><c>Fe</c><c>   1</c></rc>
    <rc><c>Fe</c><c>   1</c></rc>
    <rc><c>Fe</c><c>   1</c></rc>
    <rc><c>Fe</c><c>   1</c></rc>
    <rc><c>Fe</c><c>   1</c></rc>
    <rc><c>Fe</c><c>   1</c></rc>
    <rc><c>Fe</c><c>   1</c></rc>
    <rc><c>Fe</c><c>   1</c></rc>
    <rc><c>Fe</c><c>   1</c></rc>
    <rc><c>Fe</c><c>   1</c></rc>
    <rc><c>Fe</c><c>   1</c></rc>
    <rc><c>Fe</c><c>   1</c></rc>
    <rc><c>Fe</c><c>   1</c></rc>
    <rc><c>Fe</c><c>   1</c></rc>
    <rc><c>Fe</c><c>   1</c></rc>
    <rc><c>Fe</c><c>   1</c></rc>
    <rc><c>Fe</c><c>   1</c></rc>
    <rc><c>Fe</c><c>   1</c></rc>
    <rc><c>Fe</c><c>   1</c></rc>
    <rc><c>Fe</c><c>   1</c></rc>
    <rc><c>Fe</c><c>   1</c></rc>
    <rc><c>Fe</c><c>   1</c></rc>
    <rc><c>Fe</c><c>   1</c></rc>
    <rc><c>Fe</c><c>   1</c></rc>
    <rc><c>Fe</c><c>   1</c></rc>
    <rc><c>Fe</c><c>   1</c></rc>
    <rc><c>Fe</c><c>   1</c></rc>
    <rc><c>Fe</c><c>   1</c></rc>
    <rc><c>Fe</c><c>   1</c></rc>
    <rc><c>Fe</c><c>   1</c></rc>
    <rc><c>Fe</c><c>   1</c></rc>
    <rc><c>Fe</c><c>   1</c></rc>
    <rc><c>Fe</c><c>   1</c></rc>
    <rc><c>Fe</c><c>   1</c></rc>
    <rc><c>Fe</c><c>   1</c></rc>
    <rc><c>Fe</c><c>   1</c></rc>
    <rc><c>Fe</c><c>   1</c></rc>
    <rc><c>Fe</c><c>   1</c></rc>
    <rc><c>Fe</c><c>   1</c></rc>
    <rc><c>Fe</c><c>   1</c></rc>
    <rc><c>Fe</c><c>   1</c></rc>
    <rc><c>Fe</c><c>   1</c></rc>
    <rc><c>Fe</c><c>   1</c></rc>
    <rc><c>Fe</c><c>   1</c></rc>
    <rc><c>Fe</c><c>   1</c></rc>
    <rc><c>Fe</c><c>   1</c></rc>
    <rc><c>Fe</c><c>   1</c></rc>
    <rc><c>Fe</c><c>   1</c></rc>
    <rc><c>Fe</c><c>   1</c></rc>
    <rc><c>Fe</c><c>   1</c></rc>
    <rc><c>Fe</c><c>   1</c></rc>
    <rc><c>Fe</c><c>   1</c></rc>
    <rc><c>Fe</c><c>   1</c></rc>
    <rc><c>Fe</c><c>   1</c></rc>
    <rc><c>Fe</c><c>   1</c></rc>
    <rc><c>Fe</c><c>   1</c></rc>
    <rc><c>Fe</c><c>   1</c></rc>
    <rc><c>Fe</c><c>   1</c></rc>
    <rc><c>Fe</c><c>   1</c></rc>
    <rc><c>Fe</c><c>   1</c></rc>
    <rc><c>Fe</c><c>   1</c></rc>
    <rc><c>Fe</c><c>   1</c></rc>
    <rc><c>Fe</c><c>   1</c></rc>
    <rc><c>Fe</c><c>   1</c></rc>
    <rc><c>Fe</c><c>   1</c></rc>
    <rc><c>Fe</c><c>   1</c></rc>
    <rc><c>Fe</c><c>   1</c></rc>
    <rc><c>Fe</c><c>   1</c></rc>
    <rc><c>Fe</c><c>   1</c></rc>
    <rc><c>Fe</c><c>   1</c></rc>
    <rc><c>Fe</c><c>   1</c></rc>
    <rc><c>Fe</c><c>   1</c></rc>
    <rc><c>Fe</c><c>   1</c></rc>
    <rc><c>Fe</c><c>   1</c></rc>
    <rc><c>Fe</c><c>   1</c></rc>
    <rc><c>Fe</c><c>   1</c></rc>
    <rc><c>Fe</c><c>   1</c></rc>
    <rc><c>Fe</c><c>   1</c></rc>
    <rc><c>Fe</c><c>   1</c></rc>
    <rc><c>Fe</c><c>   1</c></rc>
    <rc><c>Fe</c><c>   1</c></rc>
    <rc><c>Fe</c><c>   1</c></rc>
    <rc><c>Fe</c><c>   1</c></rc>
    <rc><c>Fe</c><c>   1</c></rc>
    <rc><c>Fe</c><c>   1</c></rc>
    <rc><c>Fe</c><c>   1</c></rc>
    <rc><c>Fe</c><c>   1</c></rc>
    <rc><c>Fe</c><c>   1</c></rc>
    <rc><c>Fe</c><c>   1</c></rc>
    <rc><c>Fe</c><c>   1</c></rc>
    <rc><c>Fe</c><c>   1</c></rc>
    <rc><c>Fe</c><c>   1</c></rc>
    <rc><c>Fe</c><c>   1</c></rc>
    <rc><c>Fe</c><c>   1</c></rc>
    <rc><c>Fe</c><c>   1</c></rc>
    <rc><c>Fe</c><c>   1</c></rc>
    <rc><c>Fe</c><c>   1</c></rc>
    <rc><c>Fe</c><c>   1</c></rc>
    <rc><c>Fe</c><c>   1</c></rc>
    <rc><c>Fe</c><c>   1</c></rc>
    <rc><c>Fe</c><c>   1</c></rc>
    <rc><c>Fe</c><c>   1</c></rc>
    <rc><c>Fe</c><c>   1</c></rc>
    <rc><c>Fe</c><c>   1</c></rc>
    <rc><c>Fe</c><c>   1</c></rc>
    <rc><c>Fe</c><c>   1</c></rc>
    <rc><c>Fe</c><c>   1</c></rc>
    <rc><c>Fe</c><c>   1</c></rc>
    <rc><c>Fe</c><c>   1</c></rc>
    <rc><c>Fe</c><c>   1</c></rc>
    <rc><c>Fe</c><c>   1</c></rc>
    <rc><c>Fe</c><c>   1</c></rc>
    <rc><c>Fe</c><c>   1</c></rc>
    <rc><c>Fe</c><c>   1</c></rc>
    <rc><c>Fe</c><c>   1</c></rc>
    <rc><c>Fe</c><c>   1</c></rc>
    <rc><c>Fe</c><c>   1</c></rc>
    <rc><c>Fe</c><c>   1</c></rc>
    <rc><c>Fe</c><c>   1</c></rc>
    <rc><c>Fe</c><c>   1</c></rc>
    <rc><c>Fe</c><c>   1</c></rc>
    <rc><c>Fe</c><c>   1</c></rc>
    <rc><c>Fe</c><c>   1</c></rc>
    <rc><c>Fe</c><c>   1</c></rc>
    <rc><c>Fe</c><c>   1</c></rc>
    <rc><c>Fe</c><c>   1</c></rc>
    <rc><c>Fe</c><c>   1</c></rc>
    <rc><c>Fe</c><c>   1</c></rc>
    <rc><c>Fe</c><c>   1</c></rc>
    <rc><c>Fe</c><c>   1</c></rc>
    <rc><c>Fe</c><c>   1</c></rc>
    <rc><c>Fe</c><c>   1</c></rc>
    <rc><c>Fe</c><c>   1</c></rc>
    <rc><c>Fe</c><c>   1</c></rc>
    <rc><c>Fe</c><c>   1</c></rc>
    <rc><c>Fe</c><c>   1</c></rc>
    <rc><c>Fe</c><c>   1</c></rc>
    <rc><c>Fe</c><c>   1</c></rc>
    <rc><c>Fe</c><c>   1</c></rc>
    <rc><c>Fe</c><c>   1</c></rc>
    <rc><c>Fe</c><c>   1</c></rc>
    <rc><c>Fe</c><c>   1</c></rc>
    <rc><c>Fe</c><c>   1</c></rc>
    <rc><c>Fe</c><c>   1</c></rc>
    <rc><c>Fe</c><c>   1</c></rc>
    <rc><c>Fe</c><c>   1</c></rc>
    <rc><c>Fe</c><c>   1</c></rc>
    <rc><c>Fe</c><c>   1</c></rc>
    <rc><c>Fe</c><c>   1</c></rc>
    <rc><c>Fe</c><c>   1</c></rc>
    <rc><c>Fe</c><c>   1</c></rc>
    <rc><c>Fe</c><c>   1</c></rc>
    <rc><c>Fe</c><c>   1</c></rc>
    <rc><c>Fe</c><c>   1</c></rc>
    <rc><c>Fe</c><c>   1</c></rc>
    <rc><c>Fe</c><c>   1</c></rc>
    <rc><c>Fe</c><c>   1</c></rc>
    <rc><c>Mn</c><c>   2</c></rc>
    <rc><c>Mn</c><c>   2</c></rc>
    <rc><c>Mn</c><c>   2</c></rc>
    <rc><c>Mn</c><c>   2</c></rc>
    <rc><c>Mn</c><c>   2</c></rc>
    <rc><c>Mn</c><c>   2</c></rc>
    <rc><c>Mn</c><c>   2</c></rc>
    <rc><c>Mn</c><c>   2</c></rc>
    <rc><c>Mn</c><c>   2</c></rc>
    <rc><c>Mn</c><c>   2</c></rc>
    <rc><c>Mn</c><c>   2</c></rc>
    <rc><c>Mn</c><c>   2</c></rc>
    <rc><c>Mn</c><c>   2</c></rc>
    <rc><c>Mn</c><c>   2</c></rc>
   </set>
  </array>
  <array name="atomtypes" >
   <dimension dim="1">type</dimension>
   <field type="int">atomspertype</field>
   <field type="string">element</field>
   <field>mass</field>
   <field>valence</field>
   <field type="string">pseudopotential</field>
   <set>
    <rc><c> 274</c><c>Fe</c><c>     55.84700000</c><c>      8.00000000</c><c>  PAW_PBE Fe_GW 31Mar2010               </c></rc>
    <rc><c>  14</c><c>Mn</c><c>     54.93800000</c><c>      7.00000000</c><c>  PAW_PBE Mn_GW 31Mar2010               </c></rc>
   </set>
  </array>
 </atominfo>
 <structure name="initialpos" >
  <crystal>
   <varray name="basis" >
    <v>       9.72667804       0.00000000       0.00000000 </v>
    <v>       0.00000000       8.42355028       0.00000000 </v>
    <v>       0.00000000       0.00000000      45.00000000 </v>
   </varray>
   <i name="volume">   3686.99226691 </i>
   <varray name="rec_basis" >
    <v>       0.10281002       0.00000000       0.00000000 </v>
    <v>       0.00000000       0.11871479       0.00000000 </v>
    <v>       0.00000000       0.00000000       0.02222222 </v>
   </varray>
  </crystal>
  <varray name="positions" >
   <v>       0.06190780       0.02918192       0.12409394 </v>
   <v>       0.31618654       0.87481067       0.65510924 </v>
   <v>       0.18439988       0.12327694       0.78869198 </v>
   <v>       0.44149145       0.28755668       0.38908061 </v>
   <v>       0.31797837       0.71367647       0.83335043 </v>
   <v>       0.81777334       0.21546864       0.83357296 </v>
   <v>       0.19168617       0.96278800       0.83349780 </v>
   <v>       0.56166892       0.20667014       0.56553278 </v>
   <v>       0.06564074       0.04137474       0.74430367 </v>
   <v>       0.81160457       0.87165368       0.52135091 </v>
   <v>       0.19036491       0.29131243       0.74431926 </v>
   <v>       0.93364445       0.45234982       0.34489104 </v>
   <v>       0.94095680       0.28656553       0.38893315 </v>
   <v>       0.81243095       0.04035360       0.87586267 </v>
   <v>       0.18382127       0.78827225       0.61095155 </v>
   <v>       0.56649782       0.03774971       0.38906299 </v>
   <v>       0.94189541       0.96354383       0.83368262 </v>
   <v>       0.31276382       0.54089363       0.87596324 </v>
   <v>       0.69004740       0.29153692       0.74426479 </v>
   <v>       0.18215540       0.61359132       0.16663414 </v>
   <v>       0.81235710       0.20591491       0.47866403 </v>
   <v>       0.06339774       0.04066745       0.87589582 </v>
   <v>       0.31194365       0.87038733       0.43442099 </v>
   <v>       0.80980329       0.03774315       0.25597325 </v>
   <v>       0.68290783       0.95176092       0.34465094 </v>
   <v>       0.93093257       0.11439878       0.16688772 </v>
   <v>       0.06177440       0.87160109       0.52138899 </v>
   <v>       0.55811667       0.53809623       0.25559638 </v>
   <v>       0.68558806       0.79822788       0.87607438 </v>
   <v>       0.55648549       0.36524629       0.16657735 </v>
   <v>       0.44012653       0.79146640       0.74426321 </v>
   <v>       0.81129026       0.70664988       0.56548507 </v>
   <v>       0.55933335       0.87351704       0.78863689 </v>
   <v>       0.68660235       0.12178690       0.52134628 </v>
   <v>       0.81643823       0.37482818       0.65496566 </v>
   <v>       0.94209847       0.46347405       0.83366052 </v>
   <v>       0.06029856       0.20780538       0.69976191 </v>
   <v>       0.43536382       0.95798483       0.69975069 </v>
   <v>       0.31812142       0.21390245       0.83332606 </v>
   <v>       0.44122791       0.62463239       0.65494417 </v>
   <v>       0.30909563       0.53860173       0.61103009 </v>
   <v>       0.93680401       0.45678313       0.56551937 </v>
   <v>       0.69014343       0.79143646       0.74421764 </v>
   <v>       0.93414397       0.78854426       0.12440287 </v>
   <v>       0.69171427       0.78758429       0.38904304 </v>
   <v>       0.94003891       0.79105824       0.74447827 </v>
   <v>       0.05869636       0.20278926       0.34495942 </v>
   <v>       0.68391450       0.45235649       0.34497750 </v>
   <v>       0.43343194       0.12340924       0.78904958 </v>
   <v>       0.06506796       0.20377146       0.21107540 </v>
   <v>       0.05533864       0.36538966       0.16664737 </v>
   <v>       0.93357589       0.78732529       0.25557741 </v>
   <v>       0.56065998       0.20710651       0.69978594 </v>
   <v>       0.68445581       0.95687178       0.69996405 </v>
   <v>       0.80913645       0.87444169       0.78858116 </v>
   <v>       0.43689338       0.95729613       0.56542308 </v>
   <v>       0.80908169       0.37419311       0.78860271 </v>
   <v>       0.68419241       0.28793606       0.25601603 </v>
   <v>       0.18740790       0.45702271       0.56553693 </v>
   <v>       0.05609201       0.86535794       0.16660478 </v>
   <v>       0.18401233       0.28827012       0.61095588 </v>
   <v>       0.06221387       0.20715124       0.56535871 </v>
   <v>       0.31058124       0.20747266       0.69978866 </v>
   <v>       0.56251555       0.54100240       0.87596997 </v>
   <v>       0.06191941       0.70646286       0.56543534 </v>
   <v>       0.68279065       0.62333377       0.78874414 </v>
   <v>       0.31600125       0.53832541       0.38894878 </v>
   <v>       0.18681785       0.62146992       0.52140564 </v>
   <v>       0.56245728       0.87052265       0.43441932 </v>
   <v>       0.43653317       0.45677176       0.56559709 </v>
   <v>       0.44019124       0.29158296       0.74443539 </v>
   <v>       0.82107555       0.87356045       0.30020554 </v>
   <v>       0.80862470       0.70260395       0.34489483 </v>
   <v>       0.44219696       0.46318144       0.83338063 </v>
   <v>       0.68753041       0.95601008       0.47869077 </v>
   <v>       0.68544229       0.45779966       0.69981811 </v>
   <v>       0.56202371       0.87210652       0.52145068 </v>
   <v>       0.56624065       0.37423306       0.65494011 </v>
   <v>       0.81626668       0.87453515       0.65491803 </v>
   <v>       0.81169278       0.37141229       0.43419403 </v>
   <v>       0.80885569       0.53694618       0.25589895 </v>
   <v>       0.69220496       0.46228420       0.83339546 </v>
   <v>       0.18613131       0.78816050       0.12404442 </v>
   <v>       0.69118666       0.28741476       0.38900369 </v>
   <v>       0.31623829       0.37431065       0.65498005 </v>
   <v>       0.30891952       0.20274131       0.34472410 </v>
   <v>       0.81542456       0.54132476       0.74438500 </v>
   <v>       0.69192595       0.96240224       0.83344245 </v>
   <v>       0.56582644       0.87424504       0.65501763 </v>
   <v>       0.31112855       0.70691815       0.56546820 </v>
   <v>       0.31280242       0.52961936       0.12391161 </v>
   <v>       0.68942593       0.95456456       0.21177282 </v>
   <v>       0.31140650       0.20659091       0.56555074 </v>
   <v>       0.18740359       0.95586307       0.47866217 </v>
   <v>       0.68733212       0.95711691       0.56551634 </v>
   <v>       0.43394532       0.78858597       0.61103378 </v>
   <v>       0.68248215       0.61219751       0.16626004 </v>
   <v>       0.31930134       0.87355785       0.30016178 </v>
   <v>       0.31224555       0.70568185       0.47866252 </v>
   <v>       0.93380742       0.28840035       0.61084212 </v>
   <v>       0.44596141       0.62338122       0.30017044 </v>
   <v>       0.80724491       0.86340946       0.16679974 </v>
   <v>       0.56652622       0.20302332       0.21140090 </v>
   <v>       0.93257070       0.61290605       0.16667943 </v>
   <v>       0.43721867       0.95586715       0.47866732 </v>
   <v>       0.55919291       0.37345736       0.78867004 </v>
   <v>       0.06154879       0.37234239       0.52135539 </v>
   <v>       0.30724040       0.36418005       0.16660689 </v>
   <v>       0.69543589       0.12285636       0.30027011 </v>
   <v>       0.44232354       0.96317692       0.83335693 </v>
   <v>       0.18516295       0.28642983       0.12414252 </v>
   <v>       0.18388770       0.28748609       0.25582086 </v>
   <v>       0.31233200       0.37041348       0.43444965 </v>
   <v>       0.56279397       0.03199571       0.12426378 </v>
   <v>       0.43392467       0.28809442       0.61092474 </v>
   <v>       0.18365118       0.45249412       0.34490109 </v>
   <v>       0.43460714       0.28655082       0.12412622 </v>
   <v>       0.68368379       0.78769611       0.25581909 </v>
   <v>       0.43690566       0.12138812       0.52142845 </v>
   <v>       0.18790482       0.29776205       0.87609010 </v>
   <v>       0.19124238       0.12520556       0.65509540 </v>
   <v>       0.94139260       0.12462429       0.65494184 </v>
   <v>       0.81609573       0.53773266       0.38894401 </v>
   <v>       0.06665093       0.03808271       0.38913902 </v>
   <v>       0.18336975       0.11214900       0.16648074 </v>
   <v>       0.05868015       0.53806934       0.61098773 </v>
   <v>       0.93404728       0.28785623       0.25592349 </v>
   <v>       0.55881190       0.53821140       0.61098660 </v>
   <v>       0.93660161       0.95735483       0.56545343 </v>
   <v>       0.69485099       0.62407131       0.30011126 </v>
   <v>       0.93737649       0.62062880       0.43447067 </v>
   <v>       0.93339336       0.62521815       0.78865443 </v>
   <v>       0.55962309       0.70685451       0.69988123 </v>
   <v>       0.06734101       0.71528495       0.83366353 </v>
   <v>       0.94545518       0.12284715       0.30007707 </v>
   <v>       0.93346823       0.78756171       0.61092645 </v>
   <v>       0.43324917       0.78751012       0.25559002 </v>
   <v>       0.30984956       0.37317310       0.78854464 </v>
   <v>       0.43983870       0.45363135       0.21131829 </v>
   <v>       0.18678816       0.12157030       0.52133236 </v>
   <v>       0.81044148       0.70736772       0.69978179 </v>
   <v>       0.05909433       0.03845612       0.61090034 </v>
   <v>       0.56650575       0.21353130       0.83337949 </v>
   <v>       0.31163868       0.87188227       0.52141866 </v>
   <v>       0.68646825       0.28596115       0.12390514 </v>
   <v>       0.19013078       0.95462887       0.21170986 </v>
   <v>       0.68414001       0.28933594       0.61106583 </v>
   <v>       0.30895848       0.03831029       0.61103908 </v>
   <v>       0.93336596       0.12513237       0.78860250 </v>
   <v>       0.43646378       0.79795784       0.87628432 </v>
   <v>       0.81544947       0.04102968       0.74419309 </v>
   <v>       0.93540098       0.45797703       0.69968670 </v>
   <v>       0.19123596       0.62503702       0.65501215 </v>
   <v>       0.31016236       0.70702989       0.69976868 </v>
   <v>       0.93425190       0.28681895       0.12387280 </v>
   <v>       0.43733838       0.45603316       0.47858804 </v>
   <v>       0.06228774       0.70569277       0.47853710 </v>
   <v>       0.93688268       0.11991378       0.43450556 </v>
   <v>       0.44457188       0.12302369       0.30043493 </v>
   <v>       0.18699895       0.12038953       0.43423636 </v>
   <v>       0.56239471       0.04106120       0.87595164 </v>
   <v>       0.18684578       0.95717232       0.56553269 </v>
   <v>       0.68458352       0.78817081       0.12433913 </v>
   <v>       0.55885679       0.70210348       0.34487763 </v>
   <v>       0.31635846       0.03726832       0.38891797 </v>
   <v>       0.68246607       0.11390757       0.16688480 </v>
   <v>       0.81574491       0.20353538       0.21109036 </v>
   <v>       0.05928981       0.53716308       0.25573943 </v>
   <v>       0.56244382       0.70579341       0.47866120 </v>
   <v>       0.43529740       0.78697690       0.12411817 </v>
   <v>       0.56970687       0.37169027       0.30010463 </v>
   <v>       0.43365516       0.95231935       0.34492025 </v>
   <v>       0.18475333       0.95756569       0.69979722 </v>
   <v>       0.43172739       0.61280444       0.16606600 </v>
   <v>       0.93987164       0.45339543       0.21158721 </v>
   <v>       0.06182383       0.52938951       0.12405718 </v>
   <v>       0.81201056       0.37213142       0.52137474 </v>
   <v>       0.94488360       0.62331422       0.29988729 </v>
   <v>       0.30915281       0.03726306       0.25548902 </v>
   <v>       0.68423190       0.78868797       0.61105124 </v>
   <v>       0.19164352       0.46280242       0.83348492 </v>
   <v>       0.43251838       0.11177081       0.16655687 </v>
   <v>       0.31163635       0.37187734       0.52136811 </v>
   <v>       0.43344422       0.62390205       0.78900630 </v>
   <v>       0.05892893       0.03726478       0.25581655 </v>
   <v>       0.56170356       0.70693690       0.56552419 </v>
   <v>       0.94031091       0.29107040       0.74449568 </v>
   <v>       0.68279812       0.12349677       0.78873794 </v>
   <v>       0.18956091       0.45286432       0.21106205 </v>
   <v>       0.94131278       0.78750571       0.38888380 </v>
   <v>       0.68547233       0.29825393       0.87599718 </v>
   <v>       0.55636390       0.86230431       0.16632883 </v>
   <v>       0.43559836       0.45738654       0.69986274 </v>
   <v>       0.93397028       0.95098291       0.34475449 </v>
   <v>       0.68664680       0.62135096       0.52129268 </v>
   <v>       0.06625099       0.87503284       0.65509556 </v>
   <v>       0.05909965       0.87352676       0.78847389 </v>
   <v>       0.06603420       0.37496908       0.65503554 </v>
   <v>       0.68720578       0.45567076       0.47864595 </v>
   <v>       0.18374620       0.78722644       0.25548528 </v>
   <v>       0.43699894       0.12085816       0.43433216 </v>
   <v>       0.81421703       0.03061939       0.12400311 </v>
   <v>       0.93669868       0.62196114       0.52138674 </v>
   <v>       0.44138536       0.12477152       0.65495385 </v>
   <v>       0.81334213       0.52903095       0.12393592 </v>
   <v>       0.43368987       0.45248967       0.34498506 </v>
   <v>       0.80899039       0.20254006       0.34500734 </v>
   <v>       0.30909197       0.70184767       0.34484805 </v>
   <v>       0.69143992       0.12482104       0.65520228 </v>
   <v>       0.57047799       0.87308764       0.30026089 </v>
   <v>       0.06554472       0.54134899       0.74433853 </v>
   <v>       0.94063878       0.95392680       0.21127973 </v>
   <v>       0.81596718       0.70333757       0.21133913 </v>
   <v>       0.07058931       0.87310692       0.30025622 </v>
   <v>       0.19528727       0.12323249       0.30022102 </v>
   <v>       0.05860428       0.70211298       0.34486809 </v>
   <v>       0.80931797       0.03861149       0.61099045 </v>
   <v>       0.06304405       0.37153582       0.43427289 </v>
   <v>       0.55896641       0.20268840       0.34478859 </v>
   <v>       0.82022004       0.37291201       0.30000297 </v>
   <v>       0.56008609       0.03740759       0.25547456 </v>
   <v>       0.56631045       0.53755120       0.38905451 </v>
   <v>       0.06266088       0.20597380       0.47868159 </v>
   <v>       0.30954982       0.87353376       0.78861749 </v>
   <v>       0.93551735       0.95751792       0.69975380 </v>
   <v>       0.06940337       0.37403095       0.30000602 </v>
   <v>       0.69115561       0.62508958       0.65513582 </v>
   <v>       0.68674985       0.45722770       0.56540711 </v>
   <v>       0.44066115       0.95532153       0.21202514 </v>
   <v>       0.31244682       0.20577903       0.47871970 </v>
   <v>       0.81240683       0.54024043       0.87581667 </v>
   <v>       0.68799636       0.62057830       0.43442746 </v>
   <v>       0.81030077       0.20710651       0.69985326 </v>
   <v>       0.81245506       0.70569545       0.47864395 </v>
   <v>       0.81120507       0.87105861       0.43422289 </v>
   <v>       0.93738869       0.95534416       0.47869687 </v>
   <v>       0.56224276       0.20582097       0.47868257 </v>
   <v>       0.18714088       0.62033153       0.43444873 </v>
   <v>       0.31517133       0.04171106       0.74427801 </v>
   <v>       0.94141520       0.62510168       0.65491201 </v>
   <v>       0.56637013       0.71350828       0.83338074 </v>
   <v>       0.32012713       0.37231257       0.30010770 </v>
   <v>       0.31521967       0.54146377       0.74422243 </v>
   <v>       0.18733648       0.45558992       0.47864999 </v>
   <v>       0.31288846       0.04100436       0.87602719 </v>
   <v>       0.18516784       0.45777245       0.69979767 </v>
   <v>       0.56175422       0.37195294       0.52137615 </v>
   <v>       0.19109730       0.28764888       0.38892284 </v>
   <v>       0.31565442       0.20412356       0.21117390 </v>
   <v>       0.06730020       0.70362934       0.21130028 </v>
   <v>       0.56194786       0.37089327       0.43441183 </v>
   <v>       0.43676450       0.62193192       0.52135562 </v>
   <v>       0.81782719       0.71566306       0.83354946 </v>
   <v>       0.05913587       0.37385179       0.78848772 </v>
   <v>       0.43654924       0.29764955       0.87617906 </v>
   <v>       0.31157874       0.03059871       0.12412025 </v>
   <v>       0.68773694       0.12016103       0.43423519 </v>
   <v>       0.18372425       0.95240592       0.34490497 </v>
   <v>       0.06713830       0.21539176       0.83368509 </v>
   <v>       0.55899628       0.03850288       0.61104581 </v>
   <v>       0.68908023       0.45398555       0.21172653 </v>
   <v>       0.19027181       0.79144949       0.74425558 </v>
   <v>       0.19503262       0.62278709       0.30030648 </v>
   <v>       0.44149521       0.78781702       0.38907740 </v>
   <v>       0.43343014       0.28800703       0.25578067 </v>
   <v>       0.06345422       0.54006558       0.87586267 </v>
   <v>       0.56574984       0.04149902       0.74427534 </v>
   <v>       0.18764437       0.79754293       0.87606382 </v>
   <v>       0.93713675       0.45581405       0.47861830 </v>
   <v>       0.56551539       0.54122273       0.74431551 </v>
   <v>       0.81118872       0.20701574       0.56552164 </v>
   <v>       0.18425004       0.62350453       0.78870060 </v>
   <v>       0.06730353       0.53831570       0.38904589 </v>
   <v>       0.06059368       0.70759625       0.69974842 </v>
   <v>       0.30846592       0.53718573       0.25557075 </v>
   <v>       0.31453799       0.70299454       0.21222828 </v>
   <v>       0.30593975       0.86449914       0.16582558 </v>
   <v>       0.43659971       0.62122752       0.43439461 </v>
   <v>       0.81789752       0.03931100       0.38924044 </v>
   <v>       0.93692535       0.29745955       0.87558677 </v>
   <v>       0.93613566       0.79742703       0.87562073 </v>
   <v>       0.80903216       0.53898573       0.61113628 </v>
   <v>       0.56240203       0.52890505       0.12446099 </v>
   <v>       0.80563827       0.36550561       0.16591933 </v>
   <v>       0.06201663       0.87104482       0.43438311 </v>
   <v>       0.93651708       0.12162908       0.52143022 </v>
   <v>       0.19310439       0.78753187       0.38888952 </v>
   <v>       0.56704277       0.70315212       0.21200647 </v>
  </varray>
 </structure>
 <calculation>
  <scstep>
   <time name="dav">   54.61   54.62</time>
   <time name="total">   54.76   54.79</time>
   <energy>
    <i name="alphaZ">  16293.21160653 </i>
    <i name="ewald"> 724612.58644654 </i>
    <i name="hartreedc">-915127.72230851 </i>
    <i name="XCdc">  -6512.70121798 </i>
    <i name="pawpsdc"> 162273.92519768 </i>
    <i name="pawaedc">-159623.75899949 </i>
    <i name="eentropy">     -1.06825722 </i>
    <i name="bandstr">  38488.75723242 </i>
    <i name="atom"> 168671.76673737 </i>
    <i name="e_fr_energy">  29074.99643735 </i>
    <i name="e_wo_entrp">  29076.06469457 </i>
    <i name="e_0_energy">  29075.53056596 </i>
   </energy>
  </scstep>
  <scstep>
   <time name="dav">   54.13   54.17</time>
   <time name="total">   54.14   54.17</time>
   <energy>
    <i name="e_fr_energy">   1187.47630755 </i>
    <i name="e_wo_entrp">   1188.97779465 </i>
    <i name="e_0_energy">   1188.22705110 </i>
   </energy>
  </scstep>
  <scstep>
   <time name="dav">   70.83   70.87</time>
   <time name="total">   70.84   70.88</time>
   <energy>
    <i name="e_fr_energy">  -1949.94120645 </i>
    <i name="e_wo_entrp">  -1946.39106963 </i>
    <i name="e_0_energy">  -1948.16613804 </i>
   </energy>
  </scstep>
  <scstep>
   <time name="dav">   89.26   89.30</time>
   <time name="total">   89.26   89.31</time>
   <energy>
    <i name="e_fr_energy">  -2619.47311631 </i>
    <i name="e_wo_entrp">  -2615.93296347 </i>
    <i name="e_0_energy">  -2617.70303989 </i>
   </energy>
  </scstep>
  <scstep>
   <time name="dav">   84.99   85.03</time>
   <time name="total">   87.03   87.07</time>
   <energy>
    <i name="e_fr_energy">  -2738.97478317 </i>
    <i name="e_wo_entrp">  -2735.30695828 </i>
    <i name="e_0_energy">  -2737.14087073 </i>
   </energy>
  </scstep>
  <scstep>
   <time name="diag">    8.25    8.25</time>
   <time name="diis">   37.35   37.35</time>
   <time name="orth">    2.30    2.30</time>
   <time name="total">   50.07   50.07</time>
   <energy>
    <i name="e_fr_energy">  -5812.47661664 </i>
    <i name="e_wo_entrp">  -5809.85053885 </i>
    <i name="e_0_energy">  -5811.16357775 </i>
   </energy>
  </scstep>
  <scstep>
   <time name="diag">    8.29    8.29</time>
   <time name="diis">   28.49   28.50</time>
   <time name="orth">    2.30    2.30</time>
   <time name="total">   41.20   41.24</time>
[...]
       <r>     5.8894     0.0000  2772.0000 </r>
       <r>     5.9323     0.0000  2772.0000 </r>
       <r>     5.9751     0.0000  2772.0000 </r>
       <r>     6.0180     0.0000  2772.0000 </r>
       <r>     6.0608     0.0000  2772.0000 </r>
       <r>     6.1037     0.0000  2772.0000 </r>
       <r>     6.1466     0.0000  2772.0000 </r>
       <r>     6.1894     0.0000  2772.0000 </r>
       <r>     6.2323     0.0000  2772.0000 </r>
       <r>     6.2751     0.0000  2772.0000 </r>
       <r>     6.3180     0.0000  2772.0000 </r>
       <r>     6.3608     0.0000  2772.0000 </r>
       <r>     6.4037     0.0000  2772.0000 </r>
       <r>     6.4465     0.0000  2772.0000 </r>
       <r>     6.4894     0.0000  2772.0000 </r>
       <r>     6.5323     0.0000  2772.0000 </r>
       <r>     6.5751     0.0000  2772.0000 </r>
       <r>     6.6180     0.0000  2772.0000 </r>
       <r>     6.6608     0.0000  2772.0000 </r>
       <r>     6.7037     0.0000  2772.0000 </r>
       <r>     6.7465     0.0000  2772.0000 </r>
       <r>     6.7894     0.0000  2772.0000 </r>
       <r>     6.8322     0.0000  2772.0000 </r>
      </set>
     </set>
    </array>
   </total>
  </dos>
 </calculation>
 <structure name="finalpos" >
  <crystal>
   <varray name="basis" >
    <v>       9.72667804       0.00000000       0.00000000 </v>
    <v>       0.00000000       8.42355028       0.00000000 </v>
    <v>       0.00000000       0.00000000      45.00000000 </v>
   </varray>
   <i name="volume">   3686.99226691 </i>
   <varray name="rec_basis" >
    <v>       0.10281002       0.00000000       0.00000000 </v>
    <v>       0.00000000       0.11871479       0.00000000 </v>
    <v>       0.00000000       0.00000000       0.02222222 </v>
   </varray>
  </crystal>
  <varray name="positions" >
   <v>       0.06146692       0.03277625       0.12441979 </v>
   <v>       0.31354093       0.87403754       0.65507960 </v>
   <v>       0.18643086       0.12508469       0.78833644 </v>
   <v>       0.44010064       0.28802221       0.38935769 </v>
   <v>       0.31487154       0.71161928       0.83357418 </v>
   <v>       0.81559715       0.21265973       0.83357319 </v>
   <v>       0.18976357       0.96188608       0.83372252 </v>
   <v>       0.56175897       0.20634965       0.56575670 </v>
   <v>       0.06354520       0.04146673       0.74409244 </v>
   <v>       0.81129998       0.87246655       0.52167543 </v>
   <v>       0.18850018       0.29161923       0.74413716 </v>
   <v>       0.93710756       0.45390192       0.34490104 </v>
   <v>       0.93930372       0.28750318       0.38923255 </v>
   <v>       0.81254976       0.04442523       0.87555865 </v>
   <v>       0.18592134       0.78959247       0.61064350 </v>
   <v>       0.56432117       0.03804110       0.38933324 </v>
   <v>       0.94026796       0.96186540       0.83378153 </v>
   <v>       0.31334313       0.54510207       0.87562016 </v>
   <v>       0.68859209       0.29153665       0.74418506 </v>
   <v>       0.18491954       0.61615934       0.16641492 </v>
   <v>       0.81198825       0.20539880       0.47842367 </v>
   <v>       0.06471385       0.04452911       0.87558950 </v>
   <v>       0.31286627       0.87159258       0.43430262 </v>
   <v>       0.81194608       0.03703998       0.25586269 </v>
   <v>       0.68721480       0.95370607       0.34493993 </v>
   <v>       0.93369033       0.11601748       0.16658759 </v>
   <v>       0.06236538       0.87252627       0.52159792 </v>
   <v>       0.56148575       0.53702100       0.25576227 </v>
   <v>       0.68691548       0.79469110       0.87572202 </v>
   <v>       0.55896082       0.36648976       0.16619015 </v>
   <v>       0.43855599       0.79195226       0.74414740 </v>
   <v>       0.81169905       0.70634305       0.56571140 </v>
   <v>       0.56115545       0.87460968       0.78834481 </v>
   <v>       0.68652516       0.12227436       0.52166963 </v>
   <v>       0.81361807       0.37399787       0.65507191 </v>
   <v>       0.94023624       0.46183863       0.83375404 </v>
   <v>       0.06163737       0.20744506       0.69980779 </v>
   <v>       0.43658976       0.95730832       0.69978527 </v>
   <v>       0.31481589       0.21151416       0.83354973 </v>
   <v>       0.43846124       0.62405045       0.65506553 </v>
   <v>       0.31099842       0.53929444       0.61062674 </v>
   <v>       0.93678238       0.45584963       0.56573294 </v>
   <v>       0.68856426       0.79150350       0.74420939 </v>
   <v>       0.93432555       0.78314488       0.12469158 </v>
   <v>       0.68980054       0.78771482       0.38923687 </v>
   <v>       0.93857476       0.79147213       0.74419284 </v>
   <v>       0.06236755       0.20420869       0.34489320 </v>
   <v>       0.68740854       0.45355936       0.34486507 </v>
   <v>       0.43613512       0.12482511       0.78854501 </v>
   <v>       0.06301860       0.20257560       0.21149519 </v>
   <v>       0.05778368       0.36622540       0.16620114 </v>
   <v>       0.93656158       0.78722089       0.25573078 </v>
   <v>       0.56166413       0.20728411       0.69978311 </v>
   <v>       0.68682207       0.95725916       0.69982514 </v>
   <v>       0.81116844       0.87512475       0.78839636 </v>
   <v>       0.43678296       0.95623003       0.56580235 </v>
   <v>       0.81120024       0.37515326       0.78838980 </v>
   <v>       0.68677412       0.28682758       0.25586934 </v>
   <v>       0.18667739       0.45597940       0.56575436 </v>
   <v>       0.05895286       0.86644772       0.16641324 </v>
   <v>       0.18617098       0.28908342       0.61071085 </v>
   <v>       0.06173153       0.20634482       0.56570802 </v>
   <v>       0.31189365       0.20733272       0.69977826 </v>
   <v>       0.56386529       0.54512855       0.87561207 </v>
   <v>       0.06143612       0.70605804       0.56574463 </v>
   <v>       0.68599639       0.62514376       0.78835979 </v>
   <v>       0.31457511       0.53744566       0.38932911 </v>
   <v>       0.18722498       0.62247891       0.52171300 </v>
   <v>       0.56250462       0.87142970       0.43423390 </v>
   <v>       0.43688494       0.45609987       0.56579394 </v>
   <v>       0.43857948       0.29184017       0.74416123 </v>
   <v>       0.81591423       0.87222868       0.30023729 </v>
   <v>       0.81206625       0.70326058       0.34496888 </v>
   <v>       0.44012530       0.46159527       0.83367817 </v>
   <v>       0.68744609       0.95505849       0.47840331 </v>
   <v>       0.68680605       0.45733253       0.69984929 </v>
   <v>       0.56186026       0.87256538       0.52166291 </v>
   <v>       0.56379513       0.37399109       0.65503967 </v>
   <v>       0.81352538       0.87382721       0.65504161 </v>
   <v>       0.81193969       0.37087431       0.43409789 </v>
   <v>       0.81169605       0.53675713       0.25592741 </v>
   <v>       0.69029465       0.46186773       0.83367324 </v>
   <v>       0.18563887       0.78324593       0.12424885 </v>
   <v>       0.68930756       0.28763326       0.38926302 </v>
   <v>       0.31353674       0.37408291       0.65499190 </v>
   <v>       0.31231633       0.20376551       0.34499110 </v>
   <v>       0.81361491       0.54151425       0.74408371 </v>
   <v>       0.69038076       0.96175189       0.83368015 </v>
   <v>       0.56345453       0.87414990       0.65509920 </v>
   <v>       0.31173704       0.70629760       0.56579909 </v>
   <v>       0.31013611       0.53337875       0.12421353 </v>
   <v>       0.68844509       0.95349478       0.21167910 </v>
   <v>       0.31168554       0.20628324       0.56575785 </v>
   <v>       0.18731766       0.95519597       0.47840750 </v>
   <v>       0.68693771       0.95636928       0.56583729 </v>
   <v>       0.43602914       0.78974084       0.61064831 </v>
   <v>       0.68307374       0.61458188       0.16635174 </v>
   <v>       0.31569386       0.87171649       0.30021815 </v>
   <v>       0.31213824       0.70527949       0.47830639 </v>
   <v>       0.93615351       0.28921567       0.61056734 </v>
   <v>       0.44080736       0.62154818       0.30025754 </v>
   <v>       0.80883913       0.86545362       0.16658367 </v>
   <v>       0.56399890       0.20229657       0.21175710 </v>
   <v>       0.93442086       0.61473317       0.16656254 </v>
   <v>       0.43744207       0.95481587       0.47836440 </v>
   <v>       0.56120399       0.37468426       0.78837849 </v>
   <v>       0.06187034       0.37287263       0.52155667 </v>
   <v>       0.30881488       0.36581515       0.16617437 </v>
   <v>       0.69112311       0.12157078       0.30033681 </v>
   <v>       0.44004811       0.96137887       0.83369312 </v>
   <v>       0.18515817       0.28275503       0.12452463 </v>
   <v>       0.18674620       0.28636661       0.25583956 </v>
   <v>       0.31285550       0.37120301       0.43423676 </v>
   <v>       0.56077726       0.03323016       0.12446845 </v>
   <v>       0.43604994       0.28911449       0.61060036 </v>
   <v>       0.18712919       0.45374140       0.34490209 </v>
   <v>       0.43401300       0.28261681       0.12452571 </v>
   <v>       0.68676326       0.78736657       0.25593850 </v>
   <v>       0.43672817       0.12282617       0.52161348 </v>
   <v>       0.18866607       0.29454549       0.87577852 </v>
   <v>       0.18865079       0.12409741       0.65507439 </v>
   <v>       0.93862725       0.12389730       0.65503914 </v>
   <v>       0.81440452       0.53737071       0.38924462 </v>
   <v>       0.06457331       0.03805168       0.38930425 </v>
   <v>       0.18388620       0.11485146       0.16652452 </v>
   <v>       0.06130673       0.53919831       0.61062397 </v>
   <v>       0.93673285       0.28672027       0.25577659 </v>
   <v>       0.56079779       0.53938856       0.61059960 </v>
   <v>       0.93682017       0.95593461       0.56576263 </v>
   <v>       0.69089109       0.62181116       0.30035904 </v>
   <v>       0.93764775       0.62137701       0.43416483 </v>
   <v>       0.93617592       0.62587712       0.78838947 </v>
   <v>       0.56152521       0.70738967       0.69986605 </v>
   <v>       0.06429462       0.71280043       0.83361443 </v>
   <v>       0.94091510       0.12201565       0.30024534 </v>
   <v>       0.93590518       0.78908836       0.61064867 </v>
   <v>       0.43702090       0.78712292       0.25599297 </v>
   <v>       0.31119539       0.37466004       0.78836833 </v>
   <v>       0.43841952       0.45342700       0.21161818 </v>
   <v>       0.18716879       0.12240555       0.52167172 </v>
   <v>       0.81177419       0.70745047       0.69979827 </v>
   <v>       0.06136195       0.03953158       0.61058315 </v>
   <v>       0.56488402       0.21164284       0.83349192 </v>
   <v>       0.31192578       0.87244032       0.52173915 </v>
   <v>       0.68581739       0.28252325       0.12429066 </v>
   <v>       0.18827538       0.95413462       0.21169180 </v>
   <v>       0.68580733       0.28941052       0.61072889 </v>
   <v>       0.31095870       0.03920863       0.61065213 </v>
   <v>       0.93620212       0.12581421       0.78836509 </v>
   <v>       0.43768067       0.79430791       0.87574891 </v>
   <v>       0.81357812       0.04165392       0.74405396 </v>
   <v>       0.93679663       0.45742542       0.69982435 </v>
   <v>       0.18870664       0.62416825       0.65503710 </v>
   <v>       0.31190361       0.70742843       0.69979141 </v>
   <v>       0.93445234       0.28274448       0.12431126 </v>
   <v>       0.43734639       0.45466448       0.47833437 </v>
   <v>       0.06239395       0.70458158       0.47838975 </v>
   <v>       0.93740505       0.12112096       0.43449646 </v>
   <v>       0.44106409       0.12121321       0.30025968 </v>
   <v>       0.18752583       0.12100555       0.43409678 </v>
   <v>       0.56384602       0.04504011       0.87562941 </v>
   <v>       0.18645804       0.95628848       0.56580784 </v>
   <v>       0.68515276       0.78396505       0.12461751 </v>
   <v>       0.56253272       0.70366012       0.34498179 </v>
   <v>       0.31470890       0.03772032       0.38929665 </v>
   <v>       0.68481401       0.11569133       0.16666402 </v>
   <v>       0.81393066       0.20240527       0.21160237 </v>
   <v>       0.06142107       0.53709025       0.25563295 </v>
   <v>       0.56250131       0.70508474       0.47832728 </v>
   <v>       0.43466123       0.78355608       0.12418158 </v>
   <v>       0.56556133       0.37140608       0.30033746 </v>
   <v>       0.43714854       0.95379338       0.34491011 </v>
   <v>       0.18676510       0.95763182       0.69984262 </v>
   <v>       0.43396317       0.61550775       0.16629156 </v>
   <v>       0.93843729       0.45291726       0.21175067 </v>
   <v>       0.06063909       0.53243677       0.12432438 </v>
   <v>       0.81178009       0.37278346       0.52160043 </v>
   <v>       0.94089182       0.62235299       0.30012728 </v>
   <v>       0.31197248       0.03677763       0.25583294 </v>
   <v>       0.68591295       0.78936582       0.61061768 </v>
   <v>       0.18986051       0.46189143       0.83371192 </v>
   <v>       0.43472164       0.11451360       0.16662495 </v>
   <v>       0.31163841       0.37258560       0.52166231 </v>
   <v>       0.43613358       0.62499603       0.78853197 </v>
   <v>       0.06151451       0.03690432       0.25580274 </v>
   <v>       0.56185512       0.70618185       0.56577740 </v>
   <v>       0.93856796       0.29147900       0.74417325 </v>
   <v>       0.68604055       0.12511784       0.78831764 </v>
   <v>       0.18764893       0.45293781       0.21154854 </v>
   <v>       0.93911505       0.78749398       0.38927254 </v>
   <v>       0.68702476       0.29465612       0.87572392 </v>
   <v>       0.55755984       0.86548781       0.16638981 </v>
   <v>       0.43667134       0.45716467       0.69983993 </v>
   <v>       0.93761074       0.95364642       0.34489919 </v>
   <v>       0.68649505       0.62259268       0.52162026 </v>
   <v>       0.06364396       0.87402780       0.65504389 </v>
   <v>       0.06155866       0.87530984       0.78842537 </v>
   <v>       0.06343429       0.37411448       0.65504644 </v>
   <v>       0.68717633       0.45489584       0.47820840 </v>
   <v>       0.18653439       0.78739857       0.25591780 </v>
   <v>       0.43748939       0.12133126       0.43428527 </v>
   <v>       0.81116115       0.03368301       0.12447772 </v>
   <v>       0.93670343       0.62248898       0.52159227 </v>
   <v>       0.43866170       0.12393338       0.65506605 </v>
   <v>       0.81233304       0.53293476       0.12407434 </v>
   <v>       0.43745849       0.45380149       0.34494812 </v>
   <v>       0.81227438       0.20348391       0.34497099 </v>
   <v>       0.31257840       0.70364914       0.34490695 </v>
   <v>       0.68854891       0.12380629       0.65507086 </v>
   <v>       0.56583831       0.87158456       0.30026137 </v>
   <v>       0.06356188       0.54141834       0.74411017 </v>
   <v>       0.93848714       0.95366484       0.21161977 </v>
   <v>       0.81377607       0.70284638       0.21166060 </v>
   <v>       0.06553223       0.87192209       0.30031321 </v>
   <v>       0.19062600       0.12205055       0.30013965 </v>
   <v>       0.06217377       0.70364287       0.34491184 </v>
   <v>       0.81112690       0.03949858       0.61061229 </v>
   <v>       0.06259439       0.37098988       0.43412849 </v>
   <v>       0.56248561       0.20370026       0.34495746 </v>
   <v>       0.81559353       0.37227522       0.30022572 </v>
   <v>       0.56228974       0.03736912       0.25587878 </v>
   <v>       0.56413395       0.53727985       0.38929051 </v>
   <v>       0.06257112       0.20505551       0.47839789 </v>
   <v>       0.31126415       0.87464539       0.78839908 </v>
   <v>       0.93673042       0.95756235       0.69975508 </v>
   <v>       0.06613862       0.37196620       0.30028316 </v>
   <v>       0.68856845       0.62398822       0.65506538 </v>
   <v>       0.68657417       0.45613345       0.56570106 </v>
   <v>       0.43853826       0.95377392       0.21178543 </v>
   <v>       0.31223614       0.20485618       0.47834833 </v>
   <v>       0.81256830       0.54446665       0.87553938 </v>
   <v>       0.68787030       0.62087071       0.43418253 </v>
   <v>       0.81192891       0.20703607       0.69986226 </v>
   <v>       0.81234268       0.70503757       0.47833971 </v>
   <v>       0.81191015       0.87135780       0.43422309 </v>
   <v>       0.93723950       0.95456093       0.47844291 </v>
   <v>       0.56238825       0.20487618       0.47837767 </v>
   <v>       0.18724633       0.62083959       0.43425021 </v>
   <v>       0.31351632       0.04156461       0.74419239 </v>
   <v>       0.93875893       0.62427580       0.65506290 </v>
   <v>       0.56482146       0.71171578       0.83350897 </v>
   <v>       0.31598306       0.37148138       0.30031873 </v>
   <v>       0.31351323       0.54159111       0.74418031 </v>
   <v>       0.18759419       0.45490728       0.47833823 </v>
   <v>       0.31322263       0.04493151       0.87560489 </v>
   <v>       0.18673387       0.45744285       0.69982857 </v>
   <v>       0.56203831       0.37251239       0.52160516 </v>
   <v>       0.18910061       0.28783299       0.38932744 </v>
   <v>       0.31340584       0.20291940       0.21152206 </v>
   <v>       0.06414721       0.70268605       0.21148061 </v>
   <v>       0.56245872       0.37118717       0.43425385 </v>
   <v>       0.43675550       0.62262285       0.52155220 </v>
   <v>       0.81548930       0.71274784       0.83357958 </v>
   <v>       0.06161784       0.37524282       0.78842292 </v>
   <v>       0.43782601       0.29431385       0.87573895 </v>
   <v>       0.31112519       0.03312025       0.12410938 </v>
   <v>       0.68771077       0.12170478       0.43420832 </v>
   <v>       0.18720696       0.95352879       0.34492466 </v>
   <v>       0.06433633       0.21272021       0.83360819 </v>
   <v>       0.56071292       0.03941735       0.61063652 </v>
   <v>       0.68824692       0.45268053       0.21165353 </v>
   <v>       0.18841833       0.79152189       0.74413405 </v>
   <v>       0.19079912       0.62187025       0.30019860 </v>
   <v>       0.43990446       0.78738501       0.38932770 </v>
   <v>       0.43684538       0.28679082       0.25576675 </v>
   <v>       0.06469271       0.54462943       0.87558300 </v>
   <v>       0.56363975       0.04164480       0.74419934 </v>
   <v>       0.18857921       0.79463848       0.87580056 </v>
   <v>       0.93731628       0.45457153       0.47831065 </v>
   <v>       0.56368095       0.54154509       0.74419612 </v>
   <v>       0.81160254       0.20665919       0.56578524 </v>
   <v>       0.18652358       0.62503517       0.78833871 </v>
   <v>       0.06495302       0.53802716       0.38937236 </v>
   <v>       0.06177728       0.70769615       0.69987124 </v>
   <v>       0.31160800       0.53678534       0.25565431 </v>
   <v>       0.31266301       0.70232945       0.21180069 </v>
   <v>       0.30818883       0.86581733       0.16586790 </v>
   <v>       0.43704729       0.62092956       0.43417732 </v>
   <v>       0.81537988       0.03775128       0.38924314 </v>
   <v>       0.93760174       0.29435216       0.87559142 </v>
   <v>       0.93761159       0.79449805       0.87557765 </v>
   <v>       0.81062774       0.53913906       0.61080696 </v>
   <v>       0.56159022       0.53256183       0.12452867 </v>
   <v>       0.80785162       0.36606617       0.16576692 </v>
   <v>       0.06213062       0.87150444       0.43420024 </v>
   <v>       0.93698808       0.12282214       0.52150724 </v>
   <v>       0.19013835       0.78689202       0.38909521 </v>
   <v>       0.56485898       0.70293865       0.21179781 </v>
  </varray>
 </structure>
</modeling>
