unknown system                          
            1
     9.726678    0.000000    0.000000
     0.000000    8.423550    0.000000
     0.000000    0.000000   45.000000
   Fe   Mn
 273  15
Direct configuration=     1
   0.56242149  0.37640425  0.65323645
   0.94003354  0.46876413  0.83413390
   0.43673665  0.80307948  0.87576198
   0.18616762  0.79076695  0.60977620
   0.06195344  0.88111160  0.78997002
   0.68989758  0.27770427  0.12218242
   0.81317974  0.70080319  0.34533460
   0.31233851  0.70322851  0.34507183
   0.81232795  0.20695268  0.56543650
   0.68922869  0.95081096  0.34550479
   0.31281913  0.54603876  0.74455448
   0.81162944  0.04135638  0.60943011
   0.55791032  0.70777156  0.70003347
   0.31266401  0.20675305  0.56552952
   0.18874995  0.12170677  0.43378035
   0.93684252  0.79113760  0.60978964
   0.18573542  0.28557488  0.38941805
   0.31330884  0.21796546  0.83429477
   0.44199434  0.27909301  0.12166939
   0.31111885  0.53976186  0.60995669
   0.56422919  0.03851674  0.38942495
   0.31366285  0.37089952  0.52191822
   0.31317966  0.37047727  0.43416951
   0.80939778  0.88093915  0.79014785
   0.06226508  0.87182254  0.52192370
   0.68764070  0.61963280  0.52169288
   0.56081944  0.53117614  0.25657351
   0.93527964  0.45164811  0.34577750
   0.56202623  0.54013162  0.60967598
   0.81291163  0.69705265  0.21133663
   0.43742950  0.45468362  0.56549054
   0.68990584  0.28759713  0.38946430
   0.68690477  0.63075883  0.78961069
   0.06088900  0.37192765  0.43384005
   0.93610279  0.78689165  0.38894092
   0.43955319  0.12386007  0.52190062
   0.68802671  0.79071372  0.60954750
   0.81351967  0.03225724  0.25675987
   0.68631645  0.12994832  0.78981593
   0.18923365  0.44445710  0.21210561
   0.81174445  0.53232356  0.25649406
   0.68710945  0.12324323  0.43388193
   0.56466274  0.20226057  0.34554180
   0.18895132  0.97040928  0.83436672
   0.93723114  0.61691970  0.30145289
   0.05940389  0.36199081  0.16782388
   0.93525101  0.95764854  0.47813338
   0.93608788  0.78388074  0.25668726
   0.68939636  0.11706600  0.30105191
   0.31279353  0.70569263  0.47810345
   0.56423687  0.87603124  0.65289090
   0.18534221  0.13052605  0.78948300
   0.68731903  0.95947711  0.47823111
   0.06573030  0.70916741  0.69917260
   0.06259843  0.55153468  0.87614601
   0.19092168  0.79571627  0.74489781
   0.30918742  0.04059302  0.60976319
   0.93920164  0.62829040  0.65299068
   0.06065317  0.37999949  0.78971291
   0.18766839  0.29974804  0.87620117
   0.81554048  0.71992295  0.83419362
   0.31259666  0.36183175  0.16836097
   0.68960112  0.80298326  0.87567228
   0.68885445  0.29510355  0.74534221
   0.80972678  0.20731082  0.47831585
   0.43476467  0.28247774  0.25646088
   0.18778724  0.95215956  0.21231369
   0.68870941  0.45448171  0.56531372
   0.06322553  0.71865600  0.83433608
   0.18519832  0.96001947  0.69967921
   0.81173275  0.53409445  0.38894177
   0.81127245  0.70493509  0.47823863
   0.93989750  0.29336692  0.74549613
   0.68396726  0.45966416  0.69985831
   0.68825819  0.94640784  0.21129128
   0.81395666  0.86748657  0.30136732
   0.68783833  0.61128895  0.16594721
   0.68814676  0.61972192  0.43391168
   0.18888292  0.62609877  0.65380473
   0.06232314  0.05062701  0.87606963
   0.06186263  0.04118752  0.60988288
   0.68824044  0.45409182  0.47826439
   0.56457652  0.37046069  0.43395954
   0.56076186  0.19864265  0.21170362
   0.06663291  0.37527436  0.65333702
   0.18578149  0.27843048  0.12117789
   0.43654761  0.78189419  0.25654533
   0.43668581  0.95018348  0.21178196
   0.68721278  0.10764501  0.16636249
   0.18595726  0.45206136  0.34511885
   0.43751450  0.44621215  0.21207679
   0.56472788  0.21735400  0.83399834
   0.56117348  0.37983627  0.78955854
   0.68778064  0.29923058  0.87555434
   0.69069600  0.46867160  0.83400128
   0.31329295  0.03662757  0.38949916
   0.56348582  0.70099088  0.34553419
   0.43356854  0.45942489  0.69976252
   0.68549970  0.28269402  0.25663886
   0.56440518  0.20638300  0.47813975
   0.31438417  0.20630259  0.47807782
   0.93754754  0.44793096  0.21148663
   0.93728870  0.11595323  0.30122151
   0.93552163  0.12387687  0.43370702
   0.43616876  0.13063355  0.78981050
   0.43649553  0.79038005  0.60965787
   0.56282659  0.20638928  0.56523167
   0.93268925  0.77517403  0.12243482
   0.06486699  0.21825618  0.83425032
   0.80994247  0.36145966  0.16640628
   0.06299856  0.87137822  0.43384944
   0.31040520  0.54989520  0.87585441
   0.30968151  0.37976733  0.78966744
   0.31445988  0.02345423  0.12145568
   0.06035993  0.70250434  0.34532143
   0.43758371  0.95032603  0.34548460
   0.93795252  0.45492435  0.56559690
   0.81486353  0.21717463  0.83403751
   0.56334491  0.04160291  0.60938463
   0.93876257  0.96924158  0.83434087
   0.30829614  0.21308519  0.69959686
   0.05912380  0.85653095  0.16662391
   0.06023228  0.37196458  0.52195973
   0.18594707  0.77367246  0.12190903
   0.56117186  0.88042244  0.78971636
   0.43922232  0.45229989  0.34515876
   0.06644266  0.54296193  0.74531025
   0.31217753  0.37651554  0.65372062
   0.68705065  0.29058595  0.60939011
   0.18766218  0.95655610  0.56588850
   0.18669101  0.11610515  0.30051600
   0.56255369  0.55099210  0.87567219
   0.93942062  0.94918013  0.21172081
   0.31066110  0.88009298  0.78946770
   0.81173145  0.37101810  0.43373459
   0.56281840  0.36888194  0.30072235
   0.31080227  0.04618549  0.74527379
   0.68662688  0.12339902  0.52168418
   0.93602322  0.61980186  0.43408741
   0.06241244  0.36760721  0.30077075
   0.68908325  0.45135578  0.34580979
   0.43886707  0.12203935  0.43381755
   0.18739192  0.62134222  0.43391901
   0.56585239  0.53522888  0.38930023
   0.43554165  0.29910961  0.87584197
   0.18714780  0.61830785  0.30081929
   0.93667418  0.12980212  0.78953478
   0.56386423  0.70604190  0.47827042
   0.93650503  0.61870591  0.52169145
   0.93439410  0.28739916  0.38921049
   0.18680047  0.78796929  0.38916379
   0.06071263  0.03804414  0.38888601
   0.06395244  0.53085450  0.25663975
   0.69060624  0.96963821  0.83418800
   0.56523678  0.72001807  0.83393662
   0.56218333  0.70718077  0.56564542
   0.43786734  0.61621183  0.30090555
   0.43596864  0.63039066  0.78944635
   0.81275052  0.37599433  0.65273138
   0.43700497  0.79399027  0.74536609
   0.31364352  0.71890532  0.83402224
   0.56433219  0.87338647  0.52172170
   0.68850433  0.61593060  0.30121335
   0.56425243  0.36982570  0.52169312
   0.68768792  0.45011296  0.21149324
   0.43756917  0.11764171  0.30050307
   0.31095227  0.05232379  0.87603580
   0.93770183  0.95769878  0.56603478
   0.93619792  0.62877087  0.79007301
   0.81251333  0.03925890  0.38921199
   0.93947533  0.28075921  0.25658522
   0.31356184  0.36788941  0.30020799
   0.05858919  0.53156485  0.12200281
   0.06567786  0.19739654  0.21224661
   0.81197666  0.37965811  0.78983378
   0.68689907  0.95816862  0.56543419
   0.93531616  0.12432973  0.52191908
   0.43759924  0.29713381  0.74503642
   0.81387846  0.04891764  0.87595056
   0.43638743  0.62445103  0.65366369
   0.05763052  0.02379523  0.12188847
   0.31226451  0.85606559  0.16711829
   0.18820062  0.46760950  0.83415732
   0.81500124  0.04731893  0.74555252
   0.43887206  0.62104722  0.43395345
   0.18849824  0.46206717  0.69955989
   0.43826273  0.62053436  0.52192496
   0.93413546  0.10658426  0.16687929
   0.81177384  0.54079000  0.60946893
   0.18918807  0.28127941  0.25627724
   0.56433684  0.04560882  0.74565287
   0.43951057  0.45408687  0.47820755
   0.31246250  0.20034855  0.34529060
   0.31083344  0.03413994  0.25611308
   0.18673344  0.29589757  0.74474396
   0.68902120  0.77421914  0.12258347
   0.05986379  0.53666138  0.38929486
   0.81137556  0.87215660  0.43387170
   0.81444864  0.55305549  0.87580677
   0.93788269  0.80239302  0.87620137
   0.44016072  0.28588734  0.38951794
   0.31036308  0.87560138  0.65348299
   0.31252772  0.86790259  0.30068054
   0.68857190  0.96172110  0.70007641
   0.81536398  0.87647260  0.65264284
   0.18557791  0.62977859  0.78961761
   0.18549214  0.60939837  0.16668850
   0.93703060  0.29044063  0.60931512
   0.93633736  0.95093620  0.34552334
   0.81092821  0.85691509  0.16584226
   0.81151521  0.37106165  0.52169182
   0.18563703  0.10750209  0.16863030
   0.31177943  0.53005558  0.25639923
   0.43686361  0.29114822  0.60967233
   0.31311874  0.53757326  0.38915593
   0.31506133  0.53143113  0.12195750
   0.56295320  0.05047144  0.87574803
   0.06432154  0.87695399  0.65348440
   0.31271928  0.87312765  0.43411645
   0.18818069  0.12303855  0.52212612
   0.81075230  0.02369178  0.12236924
   0.56688182  0.53150873  0.12234308
   0.81273141  0.20212027  0.34586814
   0.05946812  0.20047840  0.34547505
   0.06408328  0.04835271  0.74513491
   0.94055785  0.12511494  0.65315401
   0.18793851  0.95695309  0.47800231
   0.68804474  0.78119412  0.25644932
   0.56373569  0.85679897  0.16616033
   0.93906492  0.96323599  0.69923338
   0.81292125  0.70596759  0.56578990
   0.18641109  0.28962546  0.60977284
   0.06396152  0.70534099  0.56559174
   0.18780655  0.78388487  0.25686442
   0.44219134  0.77322500  0.12213852
   0.56403198  0.36104913  0.16697774
   0.18655092  0.45549971  0.47819634
   0.43901643  0.10833972  0.16817261
   0.56090556  0.03408904  0.25650151
   0.68932014  0.12703535  0.65281058
   0.43889640  0.95799652  0.47828360
   0.81040972  0.87265427  0.52175935
   0.56260460  0.54529111  0.74533123
   0.43313037  0.96097988  0.69979207
   0.93521279  0.45531114  0.47817238
   0.06267872  0.20977090  0.69961329
   0.80973663  0.53144488  0.12248053
   0.18694047  0.62053276  0.52192963
   0.43625703  0.12783154  0.65322355
   0.93909938  0.30054403  0.87544044
   0.06127400  0.20699008  0.47816946
   0.56418966  0.69596129  0.21156673
   0.93306850  0.61111305  0.16603962
   0.81271050  0.20839518  0.70006042
   0.43813559  0.78774159  0.38906513
   0.56741672  0.02280227  0.12232269
   0.31208637  0.19800603  0.21263416
   0.93275720  0.27692533  0.12172859
   0.43936857  0.60996753  0.16645846
   0.68894203  0.78597217  0.38912332
   0.06258623  0.20738410  0.56570632
   0.43952337  0.97017342  0.83410063
   0.18587577  0.80226984  0.87586612
   0.81237705  0.54393213  0.74563400
   0.18684634  0.12600354  0.65361289
   0.31126108  0.70687547  0.56567957
   0.43882964  0.46786956  0.83405912
   0.68634427  0.79516421  0.74586815
   0.06119184  0.54096073  0.60957252
   0.06293413  0.03279461  0.25630200
   0.68875772  0.62651584  0.65258885
   0.30687677  0.70807958  0.69967351
   0.18613050  0.95055953  0.34540941
   0.56429820  0.86787873  0.30097611
   0.81386540  0.36904145  0.30102537
   0.06152441  0.70408156  0.47816473
   0.06299220  0.86866636  0.30080847
   0.43926929  0.95757948  0.56562438
   0.18682810  0.45556920  0.56591707
   0.55828421  0.21425401  0.69959246
   0.56399627  0.87274205  0.43385901
   0.06169014  0.69744525  0.21173146
   0.81434090  0.19731922  0.21210577
   0.31518640  0.69581163  0.21219406
   0.81032824  0.71074944  0.69892640
   0.94151293  0.46008510  0.70022398
   0.94042670  0.79771671  0.74554930
   0.31296653  0.87226121  0.52208912
Direct configuration=     2
   0.56268190  0.37749198  0.65377352
   0.93917970  0.46916163  0.83461311
   0.43769666  0.80018678  0.87576207
   0.18633692  0.78918915  0.60969121
   0.06209934  0.88090767  0.78976971
   0.68993908  0.27797518  0.12262267
   0.81208989  0.70150736  0.34506467
   0.31333348  0.70333394  0.34504375
   0.81226127  0.20730863  0.56514768
   0.68757784  0.94989459  0.34532372
   0.31250110  0.54551851  0.74389687
   0.81144697  0.04136574  0.60937271
   0.55924508  0.70676340  0.69951426
   0.31289963  0.20721465  0.56518226
   0.18895605  0.12124837  0.43394352
   0.93651591  0.79007640  0.60963544
   0.18719213  0.28620934  0.38973791
   0.31474126  0.21914731  0.83470915
   0.44158860  0.27978170  0.12225374
   0.31185758  0.53985536  0.60997463
   0.56305237  0.03773967  0.38958548
   0.31370484  0.37156888  0.52182974
   0.31340606  0.37162297  0.43418168
   0.80909755  0.88049185  0.78993719
   0.06210015  0.87133623  0.52160853
   0.68752637  0.62049965  0.52161963
   0.56207984  0.53230767  0.25646326
   0.93608179  0.45232381  0.34549745
   0.56186403  0.54035443  0.60964626
   0.81285766  0.69776751  0.21156382
   0.43788670  0.45548057  0.56529156
   0.68839495  0.28746504  0.38989166
   0.68635193  0.63028609  0.78974966
   0.06175913  0.37234820  0.43408174
   0.93655671  0.78687466  0.38950818
   0.43909450  0.12335596  0.52168620
   0.68774506  0.78960580  0.60953798
   0.81321921  0.03155930  0.25653443
   0.68556373  0.13036579  0.78982988
   0.18843496  0.44462238  0.21214326
   0.81251191  0.53280244  0.25636536
   0.68692814  0.12287533  0.43415346
   0.56324307  0.20152451  0.34541793
   0.19089614  0.96940816  0.83444694
   0.93734527  0.61756565  0.30095768
   0.05961489  0.36105580  0.16731715
   0.93569567  0.95653127  0.47806617
   0.93587820  0.78314441  0.25663284
   0.68919387  0.11635183  0.30082459
   0.31305205  0.70556903  0.47803037
   0.56432310  0.87509972  0.65337287
   0.18625787  0.13116742  0.78955022
   0.68749056  0.95813332  0.47814194
   0.06462805  0.70857666  0.69907392
   0.06339236  0.55007124  0.87644536
   0.18966474  0.79469571  0.74423839
   0.31057329  0.04036266  0.60959495
   0.93824614  0.62725579  0.65347664
   0.06105554  0.38038042  0.78947042
   0.18960813  0.30222491  0.87648739
   0.81312846  0.71869754  0.83456436
   0.31253297  0.36037251  0.16794502
   0.68741723  0.80068799  0.87590452
   0.68897870  0.29588826  0.74463600
   0.81018330  0.20662498  0.47822003
   0.43615103  0.28215668  0.25630768
   0.18737984  0.95139134  0.21218014
   0.68830199  0.45531836  0.56515430
   0.06464224  0.71806341  0.83464567
   0.18530856  0.95871359  0.69958923
   0.81149898  0.53519749  0.38946838
   0.81139424  0.70558865  0.47816033
   0.93907946  0.29474469  0.74482249
   0.68415008  0.46004545  0.69938149
   0.68780562  0.94710821  0.21133224
   0.81366542  0.86687175  0.30103799
   0.68777538  0.61157310  0.16587361
   0.68744224  0.62034870  0.43424728
   0.18922758  0.62507920  0.65414024
   0.06318489  0.05185188  0.87601966
   0.06114268  0.04106713  0.60958119
   0.68754275  0.45487898  0.47813539
   0.56346411  0.37140366  0.43418284
   0.56236156  0.19744614  0.21157464
   0.06531941  0.37737873  0.65367610
   0.18503555  0.28024838  0.12193176
   0.43748386  0.78232021  0.25657999
   0.43821855  0.95003807  0.21172520
   0.68686698  0.10781759  0.16661184
   0.18756922  0.45231881  0.34516245
   0.43802165  0.44562428  0.21197645
   0.56338479  0.21891730  0.83440617
   0.56122902  0.38021535  0.78987983
   0.68651834  0.30170971  0.87570758
   0.68797783  0.46941123  0.83456474
   0.31342054  0.03637851  0.38973230
   0.56233909  0.70192217  0.34537903
   0.43507445  0.46024814  0.69926864
   0.68675957  0.28252482  0.25636988
   0.56372842  0.20619742  0.47804530
   0.31430490  0.20582453  0.47801236
   0.93725182  0.44779422  0.21178670
   0.93730699  0.11579419  0.30081186
   0.93607064  0.12271398  0.43407636
   0.43657714  0.13116347  0.78999394
   0.43717434  0.78899122  0.60969478
   0.56268054  0.20698157  0.56500957
   0.93219234  0.77348224  0.12267372
   0.06611196  0.21936256  0.83450356
   0.81057794  0.35996537  0.16627873
   0.06313926  0.87070502  0.43411422
   0.31283048  0.54921301  0.87602626
   0.31080014  0.38019826  0.78986548
   0.31566372  0.02447662  0.12213740
   0.06159824  0.70272317  0.34515430
   0.43755710  0.94986544  0.34533152
   0.93768957  0.45564640  0.56534581
   0.81313126  0.21799159  0.83443297
   0.56319680  0.04152529  0.60947401
   0.93810021  0.96868699  0.83437790
   0.30982554  0.21426386  0.69941965
   0.05962893  0.85819048  0.16701804
   0.06039484  0.37245040  0.52185333
   0.18654815  0.77181717  0.12227651
   0.56131855  0.87996282  0.78996993
   0.43831909  0.45289302  0.34521851
   0.06532231  0.54352211  0.74460081
   0.31361271  0.37825878  0.65408191
   0.68666200  0.29202268  0.60946681
   0.18755238  0.95624918  0.56533602
   0.18702508  0.11569017  0.30058598
   0.56180623  0.55067650  0.87593257
   0.93851963  0.94866922  0.21183142
   0.31123570  0.87979443  0.78971396
   0.81160519  0.37159784  0.43406308
   0.56272756  0.36888837  0.30075011
   0.31118931  0.04670185  0.74478213
   0.68657675  0.12294898  0.52154726
   0.93646223  0.62103984  0.43437458
   0.06235393  0.36800673  0.30051496
   0.68759917  0.45209726  0.34559588
   0.43832251  0.12204329  0.43399333
   0.18816107  0.62199824  0.43405284
   0.56396171  0.53605246  0.38970750
   0.43613804  0.30223661  0.87606924
   0.18723424  0.61885579  0.30073367
   0.93660774  0.13021766  0.78935935
   0.56346101  0.70567339  0.47808699
   0.93668961  0.62004787  0.52155580
   0.93551842  0.28723758  0.38970817
   0.18792864  0.78759200  0.38962760
   0.06193757  0.03726716  0.38939416
   0.06267616  0.53142450  0.25654902
   0.68877466  0.96841802  0.83454497
   0.56388318  0.71788015  0.83452234
   0.56225671  0.70661233  0.56535980
   0.43770663  0.61745906  0.30102556
   0.43657734  0.62962227  0.78991724
   0.81200998  0.37678861  0.65327623
   0.43743338  0.79365264  0.74472023
   0.31551339  0.71744360  0.83452650
   0.56401947  0.87270211  0.52155518
   0.68843305  0.61698077  0.30100474
   0.56387407  0.37078975  0.52160497
   0.68813298  0.44920205  0.21164477
   0.43742328  0.11653624  0.30073034
   0.31307422  0.05350712  0.87599829
   0.93730193  0.95705391  0.56553001
   0.93572942  0.62897780  0.78967890
   0.81223508  0.03807637  0.38963433
   0.93870612  0.28136838  0.25644128
   0.31329985  0.36791147  0.30046618
   0.05847436  0.52827290  0.12207747
   0.06496266  0.19703765  0.21217427
   0.81098310  0.38036558  0.78969949
   0.68693761  0.95736441  0.56504109
   0.93599813  0.12353745  0.52175350
   0.43781154  0.29768506  0.74441986
   0.81148222  0.04988001  0.87619023
   0.43739956  0.62369808  0.65409643
   0.05761865  0.02643219  0.12249816
   0.31273929  0.85812756  0.16716144
   0.19047298  0.46790027  0.83470093
   0.81439511  0.04690943  0.74478774
   0.43832022  0.62113604  0.43406835
   0.18870250  0.46293313  0.69929250
   0.43824806  0.62126970  0.52175481
   0.93400000  0.10805153  0.16677643
   0.81146375  0.54090476  0.60951821
   0.18741387  0.28187486  0.25622349
   0.56474362  0.04605956  0.74505893
   0.43949766  0.45500192  0.47797709
   0.31302515  0.20014046  0.34529069
   0.31106358  0.03261004  0.25609091
   0.18680312  0.29695547  0.74424580
   0.68700917  0.77450407  0.12255976
   0.06167988  0.53713120  0.38972529
   0.81181759  0.87143854  0.43423199
   0.81228168  0.55196720  0.87611750
   0.93675636  0.79981615  0.87632112
   0.43904918  0.28647966  0.38982148
   0.31212104  0.87367549  0.65383210
   0.31292809  0.86754916  0.30087141
   0.68878381  0.96114944  0.69967938
   0.81413361  0.87563255  0.65325852
   0.18645810  0.62968322  0.78962985
   0.18513922  0.60799052  0.16640421
   0.93665700  0.29167615  0.60934355
   0.93643470  0.95053100  0.34528887
   0.80990129  0.85877179  0.16614354
   0.81169095  0.37200562  0.52164666
   0.18614939  0.10849249  0.16847411
   0.31110989  0.53087012  0.25644098
   0.43744812  0.29244445  0.60969766
   0.31332844  0.53792123  0.38956245
   0.31495024  0.52973174  0.12234308
   0.56267820  0.05106287  0.87574005
   0.06318850  0.87482113  0.65390643
   0.31257733  0.87199403  0.43421610
   0.18810296  0.12247880  0.52186029
   0.80989356  0.02493936  0.12276577
   0.56602137  0.53150857  0.12230000
   0.81194091  0.20156328  0.34561924
   0.06108132  0.20036578  0.34533141
   0.06345578  0.04775348  0.74455010
   0.93817531  0.12594673  0.65360827
   0.18768299  0.95603527  0.47799152
   0.68862004  0.78184751  0.25629802
   0.56399139  0.85881537  0.16613384
   0.93732809  0.96182206  0.69912662
   0.81280647  0.70572760  0.56541024
   0.18681201  0.29139769  0.60955674
   0.06335012  0.70486774  0.56519660
   0.18678755  0.78347759  0.25683984
   0.44362721  0.77308790  0.12231572
   0.56345405  0.35957377  0.16685701
   0.18693277  0.45614216  0.47807050
   0.43923811  0.10913626  0.16793559
   0.56233580  0.03301128  0.25617391
   0.68878334  0.12754329  0.65346332
   0.43864075  0.95714280  0.47828091
   0.81094180  0.87203820  0.52157326
   0.56328249  0.54498551  0.74459767
   0.43461492  0.96070012  0.69944652
   0.93555449  0.45602007  0.47815484
   0.06166882  0.21086189  0.69955079
   0.81076322  0.52976355  0.12261194
   0.18692052  0.62154462  0.52172383
   0.43803442  0.12858621  0.65365992
   0.93831710  0.30255586  0.87591357
   0.06152417  0.20608178  0.47813916
   0.56492058  0.69753293  0.21174609
   0.93398043  0.61018580  0.16599753
   0.81164437  0.20942220  0.69972043
   0.43754515  0.78714377  0.38934066
   0.56696478  0.02223917  0.12281819
   0.31219051  0.19762464  0.21225039
   0.93391715  0.27880714  0.12198840
   0.43922309  0.60960955  0.16615161
   0.68799148  0.78592556  0.38943126
   0.06257625  0.20779159  0.56531186
   0.43956544  0.96873835  0.83440627
   0.18860402  0.79953290  0.87598599
   0.81265743  0.54435977  0.74485722
   0.18772227  0.12676189  0.65398796
   0.31192811  0.70613155  0.56530434
   0.43962058  0.46844501  0.83471990
   0.68722331  0.79471070  0.74510635
   0.06124168  0.54105904  0.60953248
   0.06178528  0.03218290  0.25621129
   0.68807606  0.62557973  0.65317485
   0.30778961  0.70706180  0.69930524
   0.18779058  0.95050428  0.34526876
   0.56381294  0.86718247  0.30106120
   0.81411331  0.36919540  0.30055851
   0.06161605  0.70474794  0.47810854
   0.06294377  0.86811942  0.30060000
   0.43961165  0.95683214  0.56509803
   0.18696008  0.45599128  0.56553810
   0.55955355  0.21547974  0.69912721
   0.56341827  0.87148946  0.43417367
   0.06084478  0.69751128  0.21204862
   0.81303199  0.19674382  0.21212641
   0.31482907  0.69680196  0.21227333
   0.80993835  0.71007262  0.69865274
   0.93970856  0.46109296  0.69993993
   0.93977712  0.79626091  0.74464274
   0.31287924  0.87200342  0.52176885
Direct configuration=     3
   0.56270557  0.37759083  0.65382233
   0.93910210  0.46919776  0.83465666
   0.43778391  0.79992390  0.87576208
   0.18635230  0.78904576  0.60968348
   0.06211260  0.88088914  0.78975151
   0.68994285  0.27799980  0.12266267
   0.81199084  0.70157135  0.34504014
   0.31342390  0.70334352  0.34504119
   0.81225521  0.20734098  0.56512143
   0.68742782  0.94981132  0.34530727
   0.31247219  0.54547123  0.74383711
   0.81143038  0.04136659  0.60936749
   0.55936638  0.70667178  0.69946707
   0.31292104  0.20725660  0.56515070
   0.18897478  0.12120671  0.43395835
   0.93648623  0.78997996  0.60962143
   0.18732451  0.28626700  0.38976698
   0.31487144  0.21925472  0.83474680
   0.44155173  0.27984429  0.12230685
   0.31192472  0.53986386  0.60997626
   0.56294542  0.03766906  0.38960007
   0.31370866  0.37162971  0.52182169
   0.31342664  0.37172708  0.43418279
   0.80907026  0.88045120  0.78991804
   0.06208516  0.87129204  0.52157989
   0.68751598  0.62057843  0.52161297
   0.56219438  0.53241050  0.25645324
   0.93615469  0.45238521  0.34547199
   0.56184929  0.54037468  0.60964356
   0.81285275  0.69783248  0.21158446
   0.43792825  0.45555300  0.56527348
   0.68825764  0.28745304  0.38993050
   0.68630169  0.63024313  0.78976229
   0.06183820  0.37238642  0.43410370
   0.93659796  0.78687312  0.38955973
   0.43905282  0.12331014  0.52166671
   0.68771947  0.78950512  0.60953712
   0.81319190  0.03149588  0.25651394
   0.68549532  0.13040373  0.78983115
   0.18836238  0.44463740  0.21214668
   0.81258166  0.53284596  0.25635367
   0.68691166  0.12284190  0.43417814
   0.56311405  0.20145762  0.34540668
   0.19107288  0.96931719  0.83445423
   0.93735564  0.61762436  0.30091267
   0.05963407  0.36097082  0.16727110
   0.93573608  0.95642974  0.47806007
   0.93585915  0.78307749  0.25662790
   0.68917547  0.11628693  0.30080394
   0.31307555  0.70555779  0.47802372
   0.56433093  0.87501507  0.65341667
   0.18634108  0.13122571  0.78955633
   0.68750615  0.95801120  0.47813384
   0.06452788  0.70852298  0.69906495
   0.06346451  0.54993824  0.87647256
   0.18955051  0.79460296  0.74417846
   0.31069924  0.04034172  0.60957966
   0.93815931  0.62716176  0.65352081
   0.06109211  0.38041504  0.78944839
   0.18978441  0.30245000  0.87651340
   0.81290927  0.71858618  0.83459805
   0.31252718  0.36023990  0.16790721
   0.68721877  0.80047941  0.87592563
   0.68898999  0.29595957  0.74457182
   0.81022479  0.20656266  0.47821132
   0.43627702  0.28212750  0.25629375
   0.18734281  0.95132153  0.21216800
   0.68826497  0.45539439  0.56513981
   0.06477099  0.71800956  0.83467380
   0.18531857  0.95859491  0.69958105
   0.81147774  0.53529773  0.38951624
   0.81140531  0.70564805  0.47815321
   0.93900512  0.29486990  0.74476127
   0.68416670  0.46008010  0.69933815
   0.68776450  0.94717186  0.21133596
   0.81363895  0.86681588  0.30100806
   0.68776966  0.61159892  0.16586692
   0.68737821  0.62040566  0.43427778
   0.18925891  0.62498655  0.65417073
   0.06326321  0.05196319  0.87601512
   0.06107725  0.04105619  0.60955378
   0.68747935  0.45495052  0.47812366
   0.56336301  0.37148936  0.43420313
   0.56250694  0.19733740  0.21156292
   0.06520004  0.37756997  0.65370691
   0.18496776  0.28041358  0.12200027
   0.43756894  0.78235893  0.25658314
   0.43835784  0.95002485  0.21172004
   0.68683555  0.10783327  0.16663450
   0.18771571  0.45234221  0.34516641
   0.43806774  0.44557085  0.21196733
   0.56326274  0.21905937  0.83444323
   0.56123407  0.38024980  0.78990903
   0.68640362  0.30193501  0.87572150
   0.68773081  0.46947845  0.83461595
   0.31343213  0.03635588  0.38975348
   0.56223487  0.70200680  0.34536492
   0.43521130  0.46032295  0.69922376
   0.68687406  0.28250944  0.25634543
   0.56366692  0.20618056  0.47803671
   0.31429770  0.20578109  0.47800642
   0.93722495  0.44778179  0.21181397
   0.93730865  0.11577974  0.30077463
   0.93612054  0.12260830  0.43410992
   0.43661425  0.13121163  0.79001061
   0.43723603  0.78886501  0.60969814
   0.56266727  0.20703539  0.56498938
   0.93214718  0.77332850  0.12269543
   0.06622510  0.21946310  0.83452658
   0.81063569  0.35982957  0.16626714
   0.06315204  0.87064384  0.43413828
   0.31305088  0.54915101  0.87604188
   0.31090180  0.38023742  0.78988348
   0.31577312  0.02456954  0.12219935
   0.06171078  0.70274305  0.34513911
   0.43755468  0.94982358  0.34531761
   0.93766567  0.45571202  0.56532299
   0.81297384  0.21806583  0.83446891
   0.56318334  0.04151824  0.60948214
   0.93804002  0.96863660  0.83438126
   0.30996453  0.21437098  0.69940354
   0.05967483  0.85834129  0.16705386
   0.06040962  0.37249455  0.52184366
   0.18660277  0.77164857  0.12230991
   0.56133188  0.87992105  0.78999297
   0.43823701  0.45294692  0.34522394
   0.06522050  0.54357302  0.74453633
   0.31374314  0.37841720  0.65411474
   0.68662668  0.29215325  0.60947378
   0.18754241  0.95622129  0.56528581
   0.18705544  0.11565246  0.30059234
   0.56173830  0.55064782  0.87595623
   0.93843775  0.94862279  0.21184147
   0.31128792  0.87976730  0.78973634
   0.81159372  0.37165053  0.43409293
   0.56271931  0.36888896  0.30075263
   0.31122449  0.04674877  0.74473745
   0.68657219  0.12290808  0.52153482
   0.93650213  0.62115234  0.43440068
   0.06234861  0.36804304  0.30049172
   0.68746430  0.45216464  0.34557644
   0.43827303  0.12204365  0.43400930
   0.18823096  0.62205786  0.43406500
   0.56378989  0.53612731  0.38974451
   0.43619224  0.30252079  0.87608990
   0.18724209  0.61890559  0.30072589
   0.93660170  0.13025543  0.78934340
   0.56342436  0.70563990  0.47807032
   0.93670639  0.62016982  0.52154347
   0.93562060  0.28722289  0.38975340
   0.18803117  0.78755772  0.38966975
   0.06204889  0.03719655  0.38944034
   0.06256018  0.53147630  0.25654078
   0.68860821  0.96830713  0.83457741
   0.56376016  0.71768586  0.83457557
   0.56226338  0.70656067  0.56533385
   0.43769202  0.61757241  0.30103646
   0.43663266  0.62955244  0.78996003
   0.81194268  0.37686079  0.65332575
   0.43747231  0.79362195  0.74466153
   0.31568332  0.71731076  0.83457232
   0.56399105  0.87263991  0.52154004
   0.68842657  0.61707621  0.30098578
   0.56383968  0.37087736  0.52159696
   0.68817343  0.44911926  0.21165855
   0.43741002  0.11643578  0.30075099
   0.31326706  0.05361466  0.87599488
   0.93726558  0.95699531  0.56548414
   0.93568684  0.62899661  0.78964308
   0.81220979  0.03796890  0.38967271
   0.93863622  0.28142374  0.25642820
   0.31327605  0.36791348  0.30048964
   0.05846393  0.52797373  0.12208425
   0.06489766  0.19700504  0.21216770
   0.81089280  0.38042987  0.78968729
   0.68694111  0.95729132  0.56500537
   0.93606010  0.12346545  0.52173845
   0.43783083  0.29773516  0.74436383
   0.81126446  0.04996747  0.87621202
   0.43749154  0.62362966  0.65413575
   0.05761757  0.02667183  0.12255357
   0.31278244  0.85831495  0.16716536
   0.19067949  0.46792670  0.83475034
   0.81434003  0.04687222  0.74471824
   0.43827007  0.62114411  0.43407879
   0.18872106  0.46301183  0.69926820
   0.43824673  0.62133653  0.52173935
   0.93398769  0.10818487  0.16676708
   0.81143557  0.54091518  0.60952269
   0.18725263  0.28192897  0.25621860
   0.56478059  0.04610052  0.74500496
   0.43949649  0.45508507  0.47795615
   0.31307628  0.20012155  0.34529070
   0.31108449  0.03247101  0.25608889
   0.18680946  0.29705161  0.74420053
   0.68682632  0.77452996  0.12255760
   0.06184492  0.53717390  0.38976441
   0.81185776  0.87137329  0.43426473
   0.81208475  0.55186830  0.87614573
   0.93665400  0.79958197  0.87633201
   0.43894817  0.28653348  0.38984907
   0.31228080  0.87350047  0.65386383
   0.31296447  0.86751704  0.30088876
   0.68880307  0.96109749  0.69964330
   0.81402180  0.87555620  0.65331448
   0.18653809  0.62967455  0.78963096