<?xml version="1.0" encoding="ISO-8859-1"?>
<modeling>
 <generator>
  <i name="program" type="string">vasp </i>
  <i name="version" type="string">5.4.4.18Apr17-6-g9f103f2a35  </i>
  <i name="subversion" type="string">(build Sep 27 2018 12:46:37) complex + VL-xray_ parallel </i>
  <i name="platform" type="string">LLNL_Quartz_ifc </i>
  <i name="date" type="string">2021 09 27 </i>
  <i name="time" type="string">02:15:27 </i>
 </generator>
 <incar>
  <i type="int" name="ISTART">     2</i>
  <i type="string" name="PREC">accurate</i>
  <i type="string" name="ALGO"> Fast</i>
  <i type="int" name="ICHARG">     2</i>
  <i type="int" name="INIWAV">     1</i>
  <i type="int" name="NELM">   100</i>
  <i type="int" name="NELMIN">     4</i>
  <i type="int" name="IBRION">     2</i>
  <i name="EDIFF">      0.00000100</i>
  <i type="int" name="NSW">     5</i>
  <i type="int" name="ISIF">     2</i>
  <i type="int" name="ISYM">     2</i>
  <i name="ENCUT">    450.00000000</i>
  <i name="POTIM">      0.25000000</i>
  <i type="string" name="LREAL"> Auto</i>
  <i type="int" name="ISMEAR">     0</i>
  <i name="SIGMA">      0.15000000</i>
  <i type="logical" name="LWAVE"> F  </i>
  <i type="logical" name="LCHARG"> F  </i>
  <i type="int" name="ICORELEVEL">     0</i>
  <i type="int" name="CLNT">     1</i>
  <i type="int" name="CLN">     1</i>
  <i type="int" name="INCAR     ">     0</i>
  <i name="CLZ">      0.00000000</i>
  <v type="int" name="KPOINT_BSE">    -1     0     0     0</v>
  <i type="int" name="NELM">   100</i>
 </incar>
 <structure name="primitive_cell" >
  <crystal>
   <varray name="basis" >
    <v>       9.72667804       0.00000000       0.00000000 </v>
    <v>       0.00000000       8.42355028       0.00000000 </v>
    <v>       0.00000000       0.00000000      45.00000000 </v>
   </varray>
   <i name="volume">   3686.99226691 </i>
   <varray name="rec_basis" >
    <v>       0.10281002       0.00000000       0.00000000 </v>
    <v>       0.00000000       0.11871479       0.00000000 </v>
    <v>       0.00000000       0.00000000       0.02222222 </v>
   </varray>
  </crystal>
  <varray name="positions" >
   <v>       0.06209388       0.02909054       0.12411941 </v>
   <v>       0.18327482       0.11223088       0.16651614 </v>
   <v>       0.18601184      -0.21154348       0.12403547 </v>
   <v>       0.05598577      -0.13486205       0.16660155 </v>
   <v>      -0.06540976      -0.21111471       0.12440764 </v>
   <v>      -0.18599586       0.03077957       0.12406107 </v>
   <v>      -0.06936037       0.11467048       0.16684068 </v>
   <v>       0.31148332       0.03092166       0.12408627 </v>
   <v>       0.18550092       0.28693320       0.12403541 </v>
   <v>      -0.06599873       0.28675873       0.12384678 </v>
   <v>       0.30604616      -0.13619765       0.16587116 </v>
   <v>       0.05531171       0.36562989       0.16661327 </v>
   <v>      -0.19295386      -0.13639831       0.16682214 </v>
   <v>       0.43203299       0.11158944       0.16664903 </v>
   <v>      -0.05936396      -0.04634683       0.21129266 </v>
   <v>       0.18203689      -0.38634523       0.16666168 </v>
   <v>       0.30711088       0.36388300       0.16658395 </v>
   <v>       0.43489627      -0.21263666       0.12409241 </v>
   <v>       0.06570621       0.20562120       0.21111920 </v>
   <v>       0.19032309      -0.04552810       0.21186830 </v>
   <v>      -0.06757043      -0.38685060       0.16674127 </v>
   <v>      -0.31517074      -0.21166353       0.12430090 </v>
   <v>       0.06197984      -0.47077211       0.12400437 </v>
   <v>      -0.19434967       0.36545683       0.16588270 </v>
   <v>       0.43386041       0.28694401       0.12404948 </v>
   <v>      -0.31762011       0.11373141       0.16676194 </v>
   <v>      -0.31336195       0.28581148       0.12389016 </v>
   <v>       0.06747392      -0.29488950       0.21129976 </v>
   <v>      -0.18408326       0.20389169       0.21113386 </v>
   <v>      -0.43709807       0.03205570       0.12424075 </v>
   <v>      -0.18674486      -0.47089888       0.12397042 </v>
   <v>       0.31284253      -0.47021845       0.12399206 </v>
   <v>       0.31593071       0.20534924       0.21118710 </v>
   <v>      -0.18390311      -0.29560719       0.21148703 </v>
   <v>      -0.44339130      -0.13695683       0.16617267 </v>
   <v>       0.43162156      -0.38692295       0.16615037 </v>
   <v>      -0.31067608      -0.04608791       0.21176546 </v>
   <v>       0.31506223      -0.29514985       0.21213081 </v>
   <v>      -0.31732098      -0.38770710       0.16630172 </v>
   <v>       0.44053579      -0.04547511       0.21197350 </v>
   <v>      -0.05960790       0.45249966       0.21155853 </v>
   <v>       0.18985548       0.45293992       0.21109288 </v>
   <v>      -0.44401523       0.36541258       0.16653397 </v>
   <v>       0.05891987       0.03739665       0.25580703 </v>
   <v>       0.18318182      -0.21317907       0.25554082 </v>
   <v>      -0.06699368      -0.21325372       0.25552912 </v>
   <v>       0.30835541       0.03720835       0.25560276 </v>
   <v>      -0.43359383       0.20309966       0.21139505 </v>
   <v>      -0.19056815       0.03776947       0.25583992 </v>
   <v>       0.18355475       0.28701411       0.25583996 </v>
   <v>      -0.43760846      -0.47130141       0.12450141 </v>
   <v>      -0.06630554       0.28752649       0.25582006 </v>
   <v>      -0.31087693       0.45315273       0.21165172 </v>
   <v>       0.43967601       0.45291416       0.21116337 </v>
   <v>      -0.43250922      -0.29570090       0.21205517 </v>
   <v>       0.43262446      -0.21238518       0.25550552 </v>
   <v>       0.05857913      -0.46278083       0.25573614 </v>
   <v>      -0.31705905      -0.21239233       0.25570412 </v>
   <v>       0.43394500       0.28747208       0.25577558 </v>
   <v>      -0.31573534       0.28790995       0.25603540 </v>
   <v>       0.30837103      -0.46261501       0.25557947 </v>
   <v>      -0.44047208       0.03762561       0.25544546 </v>
   <v>      -0.19163215      -0.46278036       0.25580261 </v>
   <v>       0.07008408      -0.12654941       0.30034414 </v>
   <v>      -0.05511450       0.12365026       0.30008266 </v>
   <v>       0.19417313       0.12428820       0.30016355 </v>
   <v>      -0.17910654      -0.12677637       0.30019884 </v>
   <v>       0.31908863      -0.12563978       0.30017453 </v>
   <v>       0.06927080       0.37429634       0.29995341 </v>
   <v>      -0.44188878      -0.46159492       0.25517837 </v>
   <v>      -0.05569561      -0.37556069       0.30000596 </v>
   <v>       0.19462195      -0.37632582       0.30014978 </v>
   <v>      -0.30454702       0.12369621       0.30022867 </v>
   <v>      -0.18035117       0.37271247       0.29995030 </v>
   <v>       0.32033314       0.37249853       0.30009145 </v>
   <v>       0.44446469       0.12445181       0.30048009 </v>
   <v>      -0.30576241      -0.37518407       0.30023334 </v>
   <v>      -0.42983297      -0.12659026       0.30030786 </v>
   <v>       0.44503399      -0.37535033       0.29998646 </v>
   <v>      -0.43040467       0.37183586       0.30011571 </v>
   <v>       0.18386894      -0.04761413       0.34491212 </v>
   <v>      -0.06591599      -0.04861222       0.34475901 </v>
   <v>       0.05876106       0.20326628       0.34494588 </v>
   <v>       0.05888955      -0.29818636       0.34488835 </v>
   <v>       0.30911180       0.20281868       0.34462974 </v>
   <v>      -0.19076639       0.20241504       0.34504091 </v>
   <v>       0.30917896      -0.29783568       0.34477639 </v>
   <v>       0.43366148      -0.04652089       0.34491411 </v>
   <v>      -0.19099622      -0.29736377       0.34484509 </v>
   <v>      -0.31664591      -0.04740319       0.34462738 </v>
   <v>       0.18367670       0.45274643       0.34487980 </v>
   <v>      -0.06616689       0.45278797       0.34483399 </v>
   <v>      -0.44120993       0.20351036       0.34472126 </v>
   <v>       0.43429470       0.45275320       0.34500038 </v>
   <v>       0.06546418       0.03888930      -0.12423932 </v>
   <v>      -0.31636662       0.45269022       0.34498438 </v>
   <v>      -0.44094464      -0.29750210       0.34486798 </v>
   <v>       0.18780208      -0.20285193      -0.12394442 </v>
   <v>      -0.06283185      -0.20462847      -0.12444860 </v>
   <v>      -0.18720120       0.04058386      -0.12421762 </v>
   <v>       0.31431931       0.04103455      -0.12410892 </v>
   <v>       0.18857752       0.29658517      -0.12385003 </v>
   <v>      -0.06500291       0.29774432      -0.12440719 </v>
   <v>       0.43658594      -0.20251779      -0.12381322 </v>
   <v>       0.06340871      -0.45935865      -0.12411939 </v>
   <v>      -0.31507829      -0.20243375      -0.12407468 </v>
   <v>       0.06651196       0.03819158       0.38914406 </v>
   <v>       0.43681592       0.29813083      -0.12367068 </v>
   <v>      -0.31424206       0.29881707      -0.12394172 </v>
   <v>       0.31333303      -0.45949061      -0.12394419 </v>
   <v>      -0.05865030      -0.21225639       0.38898512 </v>
   <v>      -0.18772378      -0.45993728      -0.12413894 </v>
   <v>       0.19359545      -0.21223033       0.38886576 </v>
   <v>      -0.05868004       0.28667592       0.38887665 </v>
   <v>      -0.18284035       0.03943496       0.38926251 </v>
   <v>       0.31628552       0.03700521       0.38889885 </v>
   <v>      -0.43706553       0.04051953      -0.12396387 </v>
   <v>       0.19102324       0.28736539       0.38884759 </v>
   <v>      -0.30819167      -0.21208203       0.38899582 </v>
   <v>       0.06672622      -0.46169855       0.38913492 </v>
   <v>      -0.30873699       0.28737148       0.38900067 </v>
   <v>       0.44144482      -0.21238947       0.38917921 </v>
   <v>       0.44168923       0.28751333       0.38911339 </v>
   <v>      -0.18364070      -0.46232828       0.38902561 </v>
   <v>       0.31605169      -0.46170438       0.38890451 </v>
   <v>      -0.43742144      -0.45944144      -0.12401048 </v>
   <v>      -0.43360334       0.03785688       0.38906376 </v>
   <v>      -0.05729472      -0.03534162      -0.16606749 </v>
   <v>       0.19157659      -0.03653822      -0.16639653 </v>
   <v>       0.06684259       0.21499686      -0.16597658 </v>
   <v>       0.06621655      -0.28345195      -0.16609899 </v>
   <v>      -0.18183592       0.21488063      -0.16638027 </v>
   <v>       0.31707036       0.21286384      -0.16650793 </v>
   <v>      -0.43346607      -0.46256683       0.38900161 </v>
   <v>      -0.18303034      -0.28483398      -0.16660409 </v>
   <v>      -0.30795488      -0.03790430      -0.16652969 </v>
   <v>       0.31805191      -0.28631330      -0.16678448 </v>
   <v>       0.44288404      -0.03690810      -0.16664128 </v>
   <v>      -0.05791935       0.46391080      -0.16628982 </v>
   <v>       0.19177587       0.46307035      -0.16649472 </v>
   <v>       0.06173375      -0.12898580       0.43433402 </v>
   <v>       0.18747448       0.12051419       0.43436253 </v>
   <v>      -0.43385292       0.21340333      -0.16677123 </v>
   <v>      -0.06309470       0.11922034       0.43461223 </v>
   <v>      -0.30779288       0.46210421      -0.16666965 </v>
   <v>       0.44242712       0.46275148      -0.16663767 </v>
   <v>      -0.43364992      -0.28655720      -0.16666235 </v>
   <v>      -0.18832387      -0.12921292       0.43427739 </v>
   <v>       0.31187138      -0.12973264       0.43442192 </v>
   <v>       0.06313129       0.37134264       0.43431597 </v>
   <v>      -0.06270880      -0.37927821       0.43449057 </v>
   <v>       0.18745478      -0.37995293       0.43446312 </v>
   <v>      -0.31188211       0.12082218       0.43423177 </v>
   <v>       0.43705013       0.12083679       0.43437765 </v>
   <v>      -0.18824486       0.37135290       0.43423990 </v>
   <v>       0.31200008       0.37041334       0.43444384 </v>
   <v>       0.43638929      -0.37863707       0.43442218 </v>
   <v>      -0.31208140      -0.37975035       0.43449970 </v>
   <v>      -0.43757304      -0.13010397       0.43449151 </v>
   <v>      -0.43807951       0.37075744       0.43441138 </v>
   <v>       0.05918768      -0.12608040      -0.21151864 </v>
   <v>       0.18380440       0.12320885      -0.21131908 </v>
   <v>      -0.06573169       0.12436547      -0.21138393 </v>
   <v>       0.31026967      -0.12706348      -0.21154627 </v>
   <v>      -0.19095661      -0.12648536      -0.21160851 </v>
   <v>       0.05910559       0.37480417      -0.21153683 </v>
   <v>       0.43408291       0.12260604      -0.21099416 </v>
   <v>       0.18452077      -0.37743933      -0.21148529 </v>
   <v>      -0.06651278      -0.37575885      -0.21162752 </v>
   <v>       0.30921015       0.37372860      -0.21126401 </v>
   <v>      -0.31740959       0.12272502      -0.21139893 </v>
   <v>      -0.19107188       0.37465477      -0.21149264 </v>
   <v>       0.43327160      -0.37713178      -0.21107158 </v>
   <v>      -0.44083342      -0.12652592      -0.21137215 </v>
   <v>      -0.31680646      -0.37753230      -0.21139655 </v>
   <v>       0.18745381      -0.04413031       0.47871000 </v>
   <v>      -0.06264404      -0.04482360       0.47873334 </v>
   <v>       0.06265219       0.20578145       0.47866749 </v>
   <v>      -0.44076597       0.37317351      -0.21127372 </v>
   <v>       0.06235067      -0.29421374       0.47855086 </v>
   <v>      -0.18763428       0.20577682       0.47873343 </v>
   <v>       0.31268042       0.20584535       0.47877330 </v>
   <v>      -0.18762464      -0.29446507       0.47866691 </v>
   <v>       0.31226606      -0.29418397       0.47866370 </v>
   <v>       0.43740001      -0.04422611       0.47867930 </v>
   <v>      -0.31250809      -0.04413166       0.47872733 </v>
   <v>      -0.06260179       0.45564757       0.47863311 </v>
   <v>       0.18740131       0.45560622       0.47865535 </v>
   <v>      -0.43787014       0.20566899       0.47866323 </v>
   <v>       0.43748557       0.45601453       0.47860978 </v>
   <v>      -0.31288292       0.45570348       0.47864718 </v>
   <v>      -0.43750212      -0.29419540       0.47864356 </v>
   <v>       0.06573390       0.04041233      -0.25575394 </v>
   <v>      -0.05956554      -0.20919119      -0.25548799 </v>
   <v>       0.18982592      -0.20836007      -0.25556912 </v>
   <v>      -0.18439093       0.04088690      -0.25572336 </v>
   <v>      -0.06014665       0.29048084      -0.25548856 </v>
   <v>       0.31523836       0.04165504      -0.25583864 </v>
   <v>       0.19074879       0.29094534      -0.25561255 </v>
   <v>       0.06534610      -0.45909726      -0.25566492 </v>
   <v>      -0.30970953      -0.20843025      -0.25566083 </v>
   <v>       0.43963651      -0.20811333      -0.25554873 </v>
   <v>      -0.30976505       0.29143522      -0.25574222 </v>
   <v>       0.43990566       0.29156240      -0.25570039 </v>
   <v>      -0.18429191      -0.45971662      -0.25575336 </v>
   <v>       0.31534846      -0.45861970      -0.25569271 </v>
   <v>      -0.43437921       0.04119135      -0.25573557 </v>
   <v>       0.06187521      -0.12847982      -0.47856978 </v>
   <v>       0.18683664       0.12182973      -0.47858073 </v>
   <v>      -0.06338171       0.12173856      -0.47844602 </v>
   <v>       0.31178566      -0.12819018      -0.47860684 </v>
   <v>      -0.18836022      -0.12848951      -0.47860497 </v>
   <v>       0.06152612       0.37234475      -0.47860249 </v>
   <v>      -0.43460289      -0.45863247      -0.25586048 </v>
   <v>      -0.06310140      -0.37815654      -0.47858664 </v>
   <v>       0.18681993      -0.37843957      -0.47850502 </v>
   <v>      -0.31328654       0.12174517      -0.47863420 </v>
   <v>       0.43694326       0.12162252      -0.47847388 </v>
   <v>      -0.18808738       0.37200105      -0.47861265 </v>
   <v>       0.31163921       0.37197298      -0.47858468 </v>
   <v>       0.43677927      -0.37799041      -0.47861583 </v>
   <v>      -0.31344900      -0.37858973      -0.47866836 </v>
   <v>      -0.43803991      -0.12803055      -0.47853359 </v>
   <v>      -0.43821934       0.37183860      -0.47858727 </v>
   <v>       0.18518666      -0.04269395      -0.30015693 </v>
   <v>      -0.06468811      -0.04201296      -0.30033075 </v>
   <v>       0.06058183       0.20753811      -0.30026487 </v>
   <v>       0.06075675      -0.29258122      -0.30031657 </v>
   <v>       0.31066730       0.20736526      -0.30017983 </v>
   <v>      -0.18925438       0.20741488      -0.30018986 </v>
   <v>       0.31030428      -0.29318790      -0.30023836 </v>
   <v>      -0.18971509      -0.29275095      -0.30024372 </v>
   <v>       0.43553638      -0.04243945      -0.30026207 </v>
   <v>      -0.31491624      -0.04296323      -0.30022717 </v>
   <v>       0.18535668       0.45781430      -0.30030224 </v>
   <v>      -0.06459141       0.45789163      -0.30033283 </v>
   <v>      -0.43949908       0.20711770      -0.30021779 </v>
   <v>       0.43556085       0.45746811      -0.30022581 </v>
   <v>      -0.31516187       0.45753631      -0.30022569 </v>
   <v>      -0.43960251      -0.29276919      -0.30024548 </v>
   <v>      -0.06334288      -0.04292945      -0.43446017 </v>
   <v>       0.18688861      -0.04294648      -0.43444658 </v>
   <v>       0.06222749       0.20729419      -0.43460372 </v>
   <v>       0.06222312      -0.29337681      -0.43443189 </v>
   <v>       0.31152784       0.20652679      -0.43447682 </v>
   <v>      -0.18879332       0.20706355      -0.43449384 </v>
   <v>       0.31130508      -0.29285504      -0.43446996 </v>
   <v>      -0.18853312      -0.29350011      -0.43451324 </v>
   <v>       0.43667920      -0.04292812      -0.43459391 </v>
   <v>      -0.31261336      -0.04305176      -0.43447473 </v>
   <v>       0.18739614       0.45705090      -0.43446160 </v>
   <v>      -0.06361107       0.45642312      -0.43439429 </v>
   <v>      -0.43778356       0.20691782      -0.43446828 </v>
   <v>      -0.31342275       0.45696892      -0.43455762 </v>
   <v>       0.43666040       0.45684299      -0.43443748 </v>
   <v>      -0.43764614      -0.29305526      -0.43445134 </v>
   <v>       0.06630143      -0.12522550      -0.34501090 </v>
   <v>       0.19139990       0.12494232      -0.34484961 </v>
   <v>      -0.05889574       0.12506556      -0.34495277 </v>
   <v>      -0.18390557      -0.12507472      -0.34487766 </v>
   <v>       0.31629971      -0.12554632      -0.34492637 </v>
   <v>       0.06615520       0.37461041      -0.34497295 </v>
   <v>       0.19120294      -0.37503089      -0.34495667 </v>
   <v>      -0.05873897      -0.37480614      -0.34506678 </v>
   <v>      -0.30893732       0.12505181      -0.34496518 </v>
   <v>      -0.18386439       0.37480223      -0.34499124 </v>
   <v>       0.44125248       0.12463469      -0.34507188 </v>
   <v>       0.31595544       0.37393711      -0.34501096 </v>
   <v>      -0.30872047      -0.37514364      -0.34479805 </v>
   <v>      -0.43402767      -0.12585341      -0.34501015 </v>
   <v>       0.44111113      -0.37515981      -0.34496252 </v>
   <v>      -0.43395430       0.37433463      -0.34503370 </v>
   <v>       0.05880195       0.03796005      -0.38909839 </v>
   <v>       0.18384939      -0.21181929      -0.38905188 </v>
   <v>      -0.06632792      -0.21232324      -0.38907956 </v>
   <v>       0.30890293       0.03849622      -0.38892989 </v>
   <v>      -0.19099409       0.03843185      -0.38899141 </v>
   <v>      -0.06628619       0.28775049      -0.38909956 </v>
   <v>       0.18416639       0.28850102      -0.38892363 </v>
   <v>       0.05893148      -0.46175637      -0.38895927 </v>
   <v>       0.43391311      -0.21157044      -0.38897180 </v>
   <v>      -0.31608304      -0.21184712      -0.38903898 </v>
   <v>       0.43395223       0.28836243      -0.38900920 </v>
   <v>      -0.31598136       0.28866562      -0.38895296 </v>
   <v>       0.30900734      -0.46161051      -0.38901929 </v>
   <v>      -0.19093612      -0.46143576      -0.38891746 </v>
   <v>      -0.44076122       0.03849652      -0.38887974 </v>
   <v>      -0.44099117      -0.46167404      -0.38898406 </v>
  </varray>
 </structure>
 <varray name="primitive_index" >
  <v type="int" >        1 </v>
  <v type="int" >      125 </v>
  <v type="int" >       83 </v>
  <v type="int" >       60 </v>
  <v type="int" >       44 </v>
  <v type="int" >      202 </v>
  <v type="int" >       26 </v>
  <v type="int" >      256 </v>
  <v type="int" >      111 </v>
  <v type="int" >      155 </v>
  <v type="int" >      277 </v>
  <v type="int" >       51 </v>
  <v type="int" >      102 </v>
  <v type="int" >      182 </v>
  <v type="int" >      212 </v>
  <v type="int" >       20 </v>
  <v type="int" >      108 </v>
  <v type="int" >      170 </v>
  <v type="int" >       50 </v>
  <v type="int" >      146 </v>
  <v type="int" >      104 </v>
  <v type="int" >      163 </v>
  <v type="int" >      176 </v>
  <v type="int" >      284 </v>
  <v type="int" >      117 </v>
  <v type="int" >      166 </v>
  <v type="int" >      145 </v>
  <v type="int" >      250 </v>
  <v type="int" >      167 </v>
  <v type="int" >      114 </v>
  <v type="int" >      205 </v>
  <v type="int" >       91 </v>
  <v type="int" >      249 </v>
  <v type="int" >      213 </v>
  <v type="int" >      192 </v>
  <v type="int" >      174 </v>
  <v type="int" >       92 </v>
  <v type="int" >      276 </v>
  <v type="int" >       97 </v>
  <v type="int" >      229 </v>
  <v type="int" >      175 </v>
  <v type="int" >      189 </v>
  <v type="int" >       30 </v>
  <v type="int" >      185 </v>
  <v type="int" >      200 </v>
  <v type="int" >       52 </v>
  <v type="int" >      179 </v>
  <v type="int" >      103 </v>
  <v type="int" >       24 </v>
  <v type="int" >      112 </v>
  <v type="int" >      283 </v>
  <v type="int" >      127 </v>
  <v type="int" >      261 </v>
  <v type="int" >      139 </v>
  <v type="int" >      288 </v>
  <v type="int" >      137 </v>
  <v type="int" >      168 </v>
  <v type="int" >      118 </v>
  <v type="int" >      265 </v>
  <v type="int" >       58 </v>
  <v type="int" >      219 </v>
  <v type="int" >      221 </v>
  <v type="int" >       81 </v>
  <v type="int" >      214 </v>
  <v type="int" >      135 </v>
  <v type="int" >      215 </v>
  <v type="int" >       72 </v>
  <v type="int" >       98 </v>
  <v type="int" >      226 </v>
  <v type="int" >       28 </v>
  <v type="int" >      178 </v>
  <v type="int" >      263 </v>
  <v type="int" >      109 </v>
  <v type="int" >      220 </v>
  <v type="int" >      242 </v>
  <v type="int" >      159 </v>
  <v type="int" >      130 </v>
  <v type="int" >      210 </v>
  <v type="int" >      101 </v>
  <v type="int" >      171 </v>
  <v type="int" >      258 </v>
  <v type="int" >      194 </v>
  <v type="int" >       47 </v>
  <v type="int" >      216 </v>
  <v type="int" >       86 </v>
  <v type="int" >      207 </v>
  <v type="int" >      208 </v>
  <v type="int" >      172 </v>
  <v type="int" >       73 </v>
  <v type="int" >       25 </v>
  <v type="int" >      116 </v>
  <v type="int" >       12 </v>
  <v type="int" >      275 </v>
  <v type="int" >      206 </v>
  <v type="int" >      282 </v>
  <v type="int" >       48 </v>
  <v type="int" >      164 </v>
  <v type="int" >      268 </v>
  <v type="int" >      281 </v>
  <v type="int" >       14 </v>
  <v type="int" >      245 </v>
  <v type="int" >      120 </v>
  <v type="int" >      280 </v>
  <v type="int" >      150 </v>
  <v type="int" >      266 </v>
  <v type="int" >       29 </v>
  <v type="int" >      124 </v>
  <v type="int" >      255 </v>
  <v type="int" >      191 </v>
  <v type="int" >       18 </v>
  <v type="int" >      190 </v>
  <v type="int" >      231 </v>
  <v type="int" >      287 </v>
  <v type="int" >       13 </v>
  <v type="int" >      279 </v>
  <v type="int" >      165 </v>
  <v type="int" >      161 </v>
  <v type="int" >      248 </v>
  <v type="int" >       45 </v>
  <v type="int" >      273 </v>
  <v type="int" >       84 </v>
  <v type="int" >      264 </v>
  <v type="int" >        4 </v>
  <v type="int" >      123 </v>
  <v type="int" >       67 </v>
  <v type="int" >       64 </v>
  <v type="int" >       16 </v>
  <v type="int" >       17 </v>
  <v type="int" >        7 </v>
  <v type="int" >      259 </v>
  <v type="int" >      134 </v>
  <v type="int" >        6 </v>
  <v type="int" >       39 </v>
  <v type="int" >      222 </v>
  <v type="int" >      253 </v>
  <v type="int" >       88 </v>
  <v type="int" >        5 </v>
  <v type="int" >      110 </v>
  <v type="int" >       36 </v>
  <v type="int" >      181 </v>
  <v type="int" >      285 </v>
  <v type="int" >      160 </v>
  <v type="int" >      143 </v>
  <v type="int" >      158 </v>
  <v type="int" >       82 </v>
  <v type="int" >       74 </v>
  <v type="int" >      241 </v>
  <v type="int" >      235 </v>
  <v type="int" >       23 </v>
  <v type="int" >      218 </v>
  <v type="int" >      131 </v>
  <v type="int" >      238 </v>
  <v type="int" >      257 </v>
  <v type="int" >      201 </v>
  <v type="int" >       80 </v>
  <v type="int" >      113 </v>
  <v type="int" >      278 </v>
  <v type="int" >      232 </v>
  <v type="int" >       69 </v>
  <v type="int" >      251 </v>
  <v type="int" >      197 </v>
  <v type="int" >        3 </v>
  <v type="int" >      149 </v>
  <v type="int" >      224 </v>
  <v type="int" >       55 </v>
  <v type="int" >      254 </v>
  <v type="int" >       49 </v>
  <v type="int" >      272 </v>
  <v type="int" >      132 </v>
  <v type="int" >      138 </v>
  <v type="int" >      188 </v>
  <v type="int" >       57 </v>
  <v type="int" >      184 </v>
  <v type="int" >       33 </v>
  <v type="int" >       66 </v>
  <v type="int" >       94 </v>
  <v type="int" >      236 </v>
  <v type="int" >      223 </v>
  <v type="int" >      106 </v>
  <v type="int" >      157 </v>
  <v type="int" >       21 </v>
  <v type="int" >      230 </v>
  <v type="int" >      234 </v>
  <v type="int" >       99 </v>
  <v type="int" >      105 </v>
  <v type="int" >       75 </v>
  <v type="int" >      269 </v>
  <v type="int" >      244 </v>
  <v type="int" >      237 </v>
  <v type="int" >      156 </v>
  <v type="int" >      199 </v>
  <v type="int" >      169 </v>
  <v type="int" >        9 </v>
  <v type="int" >       46 </v>
  <v type="int" >      262 </v>
  <v type="int" >      151 </v>
  <v type="int" >      187 </v>
  <v type="int" >      239 </v>
  <v type="int" >       11 </v>
  <v type="int" >      211 </v>
  <v type="int" >       43 </v>
  <v type="int" >       31 </v>
  <v type="int" >       19 </v>
  <v type="int" >       71 </v>
  <v type="int" >       87 </v>
  <v type="int" >      243 </v>
  <v type="int" >      267 </v>
  <v type="int" >       27 </v>
  <v type="int" >      140 </v>
  <v type="int" >      286 </v>
  <v type="int" >      144 </v>
  <v type="int" >       10 </v>
  <v type="int" >      107 </v>
  <v type="int" >      270 </v>
  <v type="int" >      203 </v>
  <v type="int" >       68 </v>
  <v type="int" >       34 </v>
  <v type="int" >      119 </v>
  <v type="int" >      177 </v>
  <v type="int" >      183 </v>
  <v type="int" >      252 </v>
  <v type="int" >      195 </v>
  <v type="int" >       77 </v>
  <v type="int" >      247 </v>
  <v type="int" >      173 </v>
  <v type="int" >      225 </v>
  <v type="int" >       37 </v>
  <v type="int" >      274 </v>
  <v type="int" >       63 </v>
  <v type="int" >      233 </v>
  <v type="int" >      154 </v>
  <v type="int" >      141 </v>
  <v type="int" >       38 </v>
  <v type="int" >       54 </v>
  <v type="int" >      246 </v>
  <v type="int" >      152 </v>
  <v type="int" >       53 </v>
  <v type="int" >      193 </v>
  <v type="int" >       76 </v>
  <v type="int" >      133 </v>
  <v type="int" >      129 </v>
  <v type="int" >      162 </v>
  <v type="int" >       62 </v>
  <v type="int" >       65 </v>
  <v type="int" >       93 </v>
  <v type="int" >      271 </v>
  <v type="int" >       90 </v>
  <v type="int" >       32 </v>
  <v type="int" >       56 </v>
  <v type="int" >       95 </v>
  <v type="int" >       59 </v>
  <v type="int" >       42 </v>
  <v type="int" >        8 </v>
  <v type="int" >      228 </v>
  <v type="int" >       70 </v>
  <v type="int" >      186 </v>
  <v type="int" >      196 </v>
  <v type="int" >      121 </v>
  <v type="int" >      122 </v>
  <v type="int" >       79 </v>
  <v type="int" >        2 </v>
  <v type="int" >      198 </v>
  <v type="int" >      153 </v>
  <v type="int" >      240 </v>
  <v type="int" >      209 </v>
  <v type="int" >       35 </v>
  <v type="int" >      204 </v>
  <v type="int" >       85 </v>
  <v type="int" >      227 </v>
  <v type="int" >       89 </v>
  <v type="int" >       40 </v>
  <v type="int" >       78 </v>
  <v type="int" >      142 </v>
  <v type="int" >       15 </v>
  <v type="int" >      136 </v>
  <v type="int" >      148 </v>
  <v type="int" >      217 </v>
  <v type="int" >      100 </v>
  <v type="int" >       61 </v>
  <v type="int" >      126 </v>
  <v type="int" >       96 </v>
  <v type="int" >      180 </v>
  <v type="int" >      115 </v>
  <v type="int" >      147 </v>
  <v type="int" >       41 </v>
  <v type="int" >       22 </v>
  <v type="int" >      260 </v>
  <v type="int" >      128 </v>
 </varray>
 <kpoints>
  <generation param="Gamma">
   <v type="int" name="divisions">       4        4        1 </v>
   <v name="usershift">      0.00000000       0.00000000       0.00000000 </v>
   <v name="genvec1">      0.25000000       0.00000000       0.00000000 </v>
   <v name="genvec2">      0.00000000       0.25000000       0.00000000 </v>
   <v name="genvec3">      0.00000000       0.00000000       1.00000000 </v>
   <v name="shift">      0.00000000       0.00000000       0.00000000 </v>
  </generation>
  <varray name="kpointlist" >
   <v>       0.00000000       0.00000000       0.00000000 </v>
   <v>       0.25000000       0.00000000       0.00000000 </v>
   <v>       0.50000000       0.00000000       0.00000000 </v>
   <v>       0.00000000       0.25000000       0.00000000 </v>
   <v>       0.25000000       0.25000000       0.00000000 </v>
   <v>       0.50000000       0.25000000       0.00000000 </v>
   <v>      -0.25000000       0.25000000       0.00000000 </v>
   <v>       0.00000000       0.50000000       0.00000000 </v>
   <v>       0.25000000       0.50000000       0.00000000 </v>
   <v>       0.50000000       0.50000000       0.00000000 </v>
  </varray>
  <varray name="weights" >
   <v>       0.06250000 </v>
   <v>       0.12500000 </v>
   <v>       0.06250000 </v>
   <v>       0.12500000 </v>
   <v>       0.12500000 </v>
   <v>       0.12500000 </v>
   <v>       0.12500000 </v>
   <v>       0.06250000 </v>
   <v>       0.12500000 </v>
   <v>       0.06250000 </v>
  </varray>
 </kpoints>
 <parameters>
  <separator name="general" >
   <i type="string" name="SYSTEM">unknown system</i>
   <i type="logical" name="LCOMPAT"> F  </i>
  </separator>
  <separator name="electronic" >
   <i type="string" name="PREC">accura</i>
   <i name="ENMAX">    450.00000000</i>
   <i name="ENAUG">    838.43500000</i>
   <i name="EDIFF">      0.00000100</i>
   <i type="int" name="IALGO">    68</i>
   <i type="int" name="IWAVPR">    11</i>
   <i type="int" name="NBANDS">  1386</i>
   <i name="NELECT">   2290.00000000</i>
   <i type="int" name="TURBO">     0</i>
   <i type="int" name="IRESTART">     0</i>
   <i type="int" name="NREBOOT">     0</i>
   <i type="int" name="NMIN">     0</i>
   <i name="EREF">      0.00000000</i>
   <separator name="electronic smearing" >
    <i type="int" name="ISMEAR">     0</i>
    <i name="SIGMA">      0.15000000</i>
    <i name="KSPACING">      0.50000000</i>
    <i type="logical" name="KGAMMA"> T  </i>
   </separator>
   <separator name="electronic projectors" >
    <i type="logical" name="LREAL"> T  </i>
    <v name="ROPT">     -0.00025000     -0.00025000</v>
    <i type="int" name="LMAXPAW">  -100</i>
    <i type="int" name="LMAXMIX">     2</i>
    <i type="logical" name="NLSPLINE"> F  </i>
   </separator>
   <separator name="electronic startup" >
    <i type="int" name="ISTART">     0</i>
    <i type="int" name="ICHARG">     2</i>
    <i type="int" name="INIWAV">     1</i>
   </separator>
   <separator name="electronic spin" >
    <i type="int" name="ISPIN">     1</i>
    <i type="logical" name="LNONCOLLINEAR"> F  </i>
    <v name="MAGMOM">      1.00000000      1.00000000      1.00000000      1.00000000      1.00000000      1.00000000      1.00000000      1.00000000      1.00000000      1.00000000      1.00000000      1.00000000      1.00000000      1.00000000      1.00000000      1.00000000      1.00000000      1.00000000      1.00000000      1.00000000
      1.00000000      1.00000000      1.00000000      1.00000000      1.00000000      1.00000000      1.00000000      1.00000000      1.00000000      1.00000000      1.00000000      1.00000000      1.00000000      1.00000000      1.00000000      1.00000000      1.00000000      1.00000000      1.00000000      1.00000000
      1.00000000      1.00000000      1.00000000      1.00000000      1.00000000      1.00000000      1.00000000      1.00000000      1.00000000      1.00000000      1.00000000      1.00000000      1.00000000      1.00000000      1.00000000      1.00000000      1.00000000      1.00000000      1.00000000      1.00000000
      1.00000000      1.00000000      1.00000000      1.00000000      1.00000000      1.00000000      1.00000000      1.00000000      1.00000000      1.00000000      1.00000000      1.00000000      1.00000000      1.00000000      1.00000000      1.00000000      1.00000000      1.00000000      1.00000000      1.00000000
      1.00000000      1.00000000      1.00000000      1.00000000      1.00000000      1.00000000      1.00000000      1.00000000      1.00000000      1.00000000      1.00000000      1.00000000      1.00000000      1.00000000      1.00000000      1.00000000      1.00000000      1.00000000      1.00000000      1.00000000
      1.00000000      1.00000000      1.00000000      1.00000000      1.00000000      1.00000000      1.00000000      1.00000000      1.00000000      1.00000000      1.00000000      1.00000000      1.00000000      1.00000000      1.00000000      1.00000000      1.00000000      1.00000000      1.00000000      1.00000000
      1.00000000      1.00000000      1.00000000      1.00000000      1.00000000      1.00000000      1.00000000      1.00000000      1.00000000      1.00000000      1.00000000      1.00000000      1.00000000      1.00000000      1.00000000      1.00000000      1.00000000      1.00000000      1.00000000      1.00000000
      1.00000000      1.00000000      1.00000000      1.00000000      1.00000000      1.00000000      1.00000000      1.00000000      1.00000000      1.00000000      1.00000000      1.00000000      1.00000000      1.00000000      1.00000000      1.00000000      1.00000000      1.00000000      1.00000000      1.00000000
      1.00000000      1.00000000      1.00000000      1.00000000      1.00000000      1.00000000      1.00000000      1.00000000      1.00000000      1.00000000      1.00000000      1.00000000      1.00000000      1.00000000      1.00000000      1.00000000      1.00000000      1.00000000      1.00000000      1.00000000
      1.00000000      1.00000000      1.00000000      1.00000000      1.00000000      1.00000000      1.00000000      1.00000000      1.00000000      1.00000000      1.00000000      1.00000000      1.00000000      1.00000000      1.00000000      1.00000000      1.00000000      1.00000000      1.00000000      1.00000000
      1.00000000      1.00000000      1.00000000      1.00000000      1.00000000      1.00000000      1.00000000      1.00000000      1.00000000      1.00000000      1.00000000      1.00000000      1.00000000      1.00000000      1.00000000      1.00000000      1.00000000      1.00000000      1.00000000      1.00000000
      1.00000000      1.00000000      1.00000000      1.00000000      1.00000000      1.00000000      1.00000000      1.00000000      1.00000000      1.00000000      1.00000000      1.00000000      1.00000000      1.00000000      1.00000000      1.00000000      1.00000000      1.00000000      1.00000000      1.00000000
      1.00000000      1.00000000      1.00000000      1.00000000      1.00000000      1.00000000      1.00000000      1.00000000      1.00000000      1.00000000      1.00000000      1.00000000      1.00000000      1.00000000      1.00000000      1.00000000      1.00000000      1.00000000      1.00000000      1.00000000
      1.00000000      1.00000000      1.00000000      1.00000000      1.00000000      1.00000000      1.00000000      1.00000000      1.00000000      1.00000000      1.00000000      1.00000000      1.00000000      1.00000000      1.00000000      1.00000000      1.00000000      1.00000000      1.00000000      1.00000000
      1.00000000      1.00000000      1.00000000      1.00000000      1.00000000      1.00000000      1.00000000      1.00000000</v>
    <i name="NUPDOWN">     -1.00000000</i>
    <i type="logical" name="LSORBIT"> F  </i>
    <v name="SAXIS">      0.00000000      0.00000000      1.00000000</v>
    <i type="logical" name="LSPIRAL"> F  </i>
    <v name="QSPIRAL">      0.00000000      0.00000000      0.00000000</v>
    <i type="logical" name="LZEROZ"> F  </i>
   </separator>
   <separator name="electronic exchange-correlation" >
    <i type="logical" name="LASPH"> F  </i>
    <i type="logical" name="LMETAGGA"> F  </i>
   </separator>
   <separator name="electronic convergence" >
    <i type="int" name="NELM">   100</i>
    <i type="int" name="NELMDL">     0</i>
    <i type="int" name="NELMIN">     4</i>
    <i name="ENINI">    450.00000000</i>
    <separator name="electronic convergence detail" >
     <i type="logical" name="LDIAG"> T  </i>
     <i type="logical" name="LSUBROT"> F  </i>
     <i name="WEIMIN">      0.00100000</i>
     <i name="EBREAK">      0.00000000</i>
     <i name="DEPER">      0.30000000</i>
     <i type="int" name="NRMM">     4</i>
     <i name="TIME">      0.40000000</i>
    </separator>
   </separator>
   <separator name="electronic mixer" >
    <i name="AMIX">      0.40000000</i>
    <i name="BMIX">      1.00000000</i>
    <i name="AMIN">      0.10000000</i>
    <i name="AMIX_MAG">      1.60000000</i>
    <i name="BMIX_MAG">      1.00000000</i>
    <separator name="electronic mixer details" >
     <i type="int" name="IMIX">     4</i>
     <i type="logical" name="MIXFIRST"> F  </i>
     <i type="int" name="MAXMIX">   -45</i>
     <i name="WC">    100.00000000</i>
     <i type="int" name="INIMIX">     1</i>
     <i type="int" name="MIXPRE">     1</i>
     <i type="int" name="MREMOVE">     5</i>
    </separator>
   </separator>
   <separator name="electronic dipolcorrection" >
    <i type="logical" name="LDIPOL"> F  </i>
    <i type="logical" name="LMONO"> F  </i>
    <i type="int" name="IDIPOL">     0</i>
    <i name="EPSILON">      1.00000000</i>
    <v name="DIPOL">   -100.00000000   -100.00000000   -100.00000000</v>
    <i name="EFIELD">      0.00000000</i>
   </separator>
  </separator>
  <separator name="grids" >
   <i type="int" name="NGX">    70</i>
   <i type="int" name="NGY">    60</i>
   <i type="int" name="NGZ">   320</i>
   <i type="int" name="NGXF">   140</i>
   <i type="int" name="NGYF">   120</i>
   <i type="int" name="NGZF">   640</i>
   <i type="logical" name="ADDGRID"> F  </i>
  </separator>
  <separator name="ionic" >
   <i type="int" name="NSW">     5</i>
   <i type="int" name="IBRION">     2</i>
   <i type="int" name="MDALGO">     0</i>
   <i type="int" name="ISIF">     2</i>
   <i name="PSTRESS">      0.00000000</i>
   <i name="EDIFFG">      0.00001000</i>
   <i type="int" name="NFREE">     1</i>
   <i name="POTIM">      0.25000000</i>
   <i name="SMASS">     -3.00000000</i>
   <i name="SCALEE">      1.00000000</i>
  </separator>
  <separator name="ionic md" >
   <i name="TEBEG">      0.00010000</i>
   <i name="TEEND">      0.00010000</i>
   <i type="int" name="NBLOCK">     1</i>
   <i type="int" name="KBLOCK">     5</i>
   <i type="int" name="NPACO">   256</i>
   <i name="APACO">     16.00000000</i>
  </separator>
  <separator name="symmetry" >
   <i type="int" name="ISYM">     2</i>
   <i name="SYMPREC">      0.00001000</i>
  </separator>
  <separator name="dos" >
   <i type="int" name="LORBIT">     0</i>
   <v name="RWIGS">     -1.00000000     -1.00000000</v>
   <i type="int" name="NEDOS">   301</i>
   <i name="EMIN">     10.00000000</i>
   <i name="EMAX">    -10.00000000</i>
   <i name="EFERMI">      0.00000000</i>
  </separator>
  <separator name="writing" >
   <i type="int" name="NWRITE">     2</i>
   <i type="logical" name="LWAVE"> F  </i>
   <i type="logical" name="LDOWNSAMPLE"> F  </i>
   <i type="logical" name="LCHARG"> F  </i>
   <i type="logical" name="LPARD"> F  </i>
   <i type="logical" name="LVTOT"> F  </i>
   <i type="logical" name="LVHAR"> F  </i>
   <i type="logical" name="LELF"> F  </i>
   <i type="logical" name="LOPTICS"> F  </i>
   <v name="STM">      0.00000000      0.00000000      0.00000000      0.00000000      0.00000000      0.00000000      0.00000000</v>
  </separator>
  <separator name="performance" >
   <i type="int" name="NPAR">    14</i>
   <i type="int" name="NSIM">     4</i>
   <i type="int" name="NBLK">    -1</i>
   <i type="logical" name="LPLANE"> T  </i>
   <i type="logical" name="LSCALAPACK"> T  </i>
   <i type="logical" name="LSCAAWARE"> T  </i>
   <i type="logical" name="LSCALU"> F  </i>
   <i type="logical" name="LASYNC"> F  </i>
   <i type="logical" name="LORBITALREAL"> F  </i>
  </separator>
  <separator name="miscellaneous" >
   <i type="int" name="IDIOT">     3</i>
   <i type="int" name="ISPECIAL">     0</i>
   <i type="logical" name="LMUSIC"> F  </i>
   <v name="POMASS">     55.84700000     54.93800000</v>
   <v name="DARWINR">      0.00000000      0.00000000</v>
   <v name="DARWINV">      1.00000000      1.00000000</v>
   <i type="logical" name="LCORR"> T  </i>
  </separator>
  <i type="logical" name="GGA_COMPAT"> T  </i>
  <i type="logical" name="LBERRY"> F  </i>
  <i type="int" name="ICORELEVEL">     0</i>
  <i type="logical" name="LDAU"> F  </i>
  <i type="int" name="I_CONSTRAINED_M">     0</i>
  <separator name="electronic exchange-correlation" >
   <i type="string" name="GGA">--</i>
   <i type="int" name="VOSKOWN">     0</i>
   <i type="logical" name="LHFCALC"> F  </i>
   <i type="string" name="PRECFOCK"></i>
   <i type="logical" name="LSYMGRAD"> F  </i>
   <i type="logical" name="LHFONE"> F  </i>
   <i type="logical" name="LRHFCALC"> F  </i>
   <i type="logical" name="LTHOMAS"> F  </i>
   <i type="logical" name="LMODELHF"> F  </i>
   <i name="ENCUT4O">     -1.00000000</i>
   <i type="int" name="EXXOEP">     0</i>
   <i type="int" name="FOURORBIT">     0</i>
   <i name="AEXX">      0.00000000</i>
   <i name="HFALPHA">      0.00000000</i>
   <i name="MCALPHA">      0.00000000</i>
   <i name="ALDAX">      1.00000000</i>
   <i name="AGGAX">      1.00000000</i>
   <i name="ALDAC">      1.00000000</i>
   <i name="AGGAC">      1.00000000</i>
   <i type="int" name="NKREDX">     1</i>
   <i type="int" name="NKREDY">     1</i>
   <i type="int" name="NKREDZ">     1</i>
   <i type="logical" name="SHIFTRED"> F  </i>
   <i type="logical" name="ODDONLY"> F  </i>
   <i type="logical" name="EVENONLY"> F  </i>
   <i type="int" name="LMAXFOCK">     0</i>
   <i type="int" name="NMAXFOCKAE">     0</i>
   <i type="logical" name="LFOCKAEDFT"> F  </i>
   <i name="HFSCREEN">      0.00000000</i>
   <i name="HFSCREENC">      0.00000000</i>
   <i type="int" name="NBANDSGWLOW">     0</i>
  </separator>
  <separator name="vdW DFT" >
   <i type="logical" name="LUSE_VDW"> F  </i>
   <i name="Zab_VDW">     -0.84910000</i>
   <i name="PARAM1">      0.12340000</i>
   <i name="PARAM2">      1.00000000</i>
   <i name="PARAM3">      0.00000000</i>
  </separator>
  <separator name="model GW" >
   <i type="int" name="MODEL_GW">     0</i>
   <i name="MODEL_EPS0">      7.68123389</i>
   <i name="MODEL_ALPHA">      1.00000000</i>
  </separator>
  <separator name="linear response parameters" >
   <i type="logical" name="LEPSILON"> F  </i>
   <i type="logical" name="LRPA"> F  </i>
   <i type="logical" name="LNABLA"> F  </i>
   <i type="logical" name="LVEL"> F  </i>
   <i type="int" name="KINTER">     0</i>
   <i name="CSHIFT">      0.10000000</i>
   <i name="OMEGAMAX">     -1.00000000</i>
   <i name="DEG_THRESHOLD">      0.00200000</i>
   <i name="RTIME">     -0.10000000</i>
   <i name="WPLASMAI">      0.00000000</i>
   <v name="DFIELD">      0.00000000      0.00000000      0.00000000</v>
   <v name="WPLASMA">      0.00000000      0.00000000      0.00000000      0.00000000      0.00000000      0.00000000      0.00000000      0.00000000      0.00000000</v>
  </separator>
  <separator name="orbital magnetization" >
   <i type="logical" name="NUCIND"> F  </i>
   <v name="MAGPOS">      0.00000000      0.00000000      0.00000000</v>
   <i type="logical" name="LNICSALL"> T  </i>
   <i type="logical" name="ORBITALMAG"> F  </i>
   <i type="logical" name="LMAGBLOCH"> F  </i>
   <i type="logical" name="LCHIMAG"> F  </i>
   <i type="logical" name="LGAUGE"> T  </i>
   <i type="int" name="MAGATOM">     0</i>
   <v name="MAGDIPOL">      0.00000000      0.00000000      0.00000000</v>
   <v name="AVECCONST">      0.00000000      0.00000000      0.00000000</v>
  </separator>
  <separator name="response functions" >
   <i type="logical" name="LADDER"> F  </i>
   <i type="logical" name="LRPAFORCE"> F  </i>
   <i type="logical" name="LFXC"> F  </i>
   <i type="logical" name="LHARTREE"> T  </i>
   <i type="int" name="IBSE">     0</i>
   <v type="int" name="KPOINT">    -1     0     0     0</v>
   <i type="logical" name="LTCTE"> F  </i>
   <i type="logical" name="LTETE"> F  </i>
   <i type="logical" name="LTRIPLET"> F  </i>
   <i type="logical" name="LFXCEPS"> F  </i>
   <i type="logical" name="LFXHEG"> F  </i>
   <i type="int" name="NATURALO">     2</i>
   <i type="logical" name="L2ORDER"> F  </i>
   <i type="logical" name="LMP2LT"> F  </i>
   <i type="logical" name="LUSEW"> F  </i>
   <i name="ENCUTGW">     -2.00000000</i>
   <i name="ENCUTGWSOFT">     -2.00000000</i>
   <i name="ENCUTLF">     -1.00000000</i>
   <i type="int" name="LMAXMP2">    -1</i>
   <i name="SCISSOR">      0.00000000</i>
   <i type="int" name="NOMEGA">     0</i>
   <i type="int" name="NOMEGAR">     0</i>
   <i type="int" name="NBANDSGW">    -1</i>
   <i type="int" name="NBANDSO">    -1</i>
   <i type="int" name="NBANDSV">    -1</i>
   <i type="int" name="NELM">   100</i>
   <i type="int" name="NELMHF">     1</i>
   <i type="int" name="DIM">     3</i>
   <i type="int" name="ANTIRES">     0</i>
   <i name="OMEGAMAX">    -30.00000000</i>
   <i name="OMEGAMIN">    -30.00000000</i>
   <i name="OMEGATL">   -200.00000000</i>
   <i type="int" name="OMEGAGRID">   140</i>
   <i name="CSHIFT">     -0.10000000</i>
   <i type="logical" name="SELFENERGY"> F  </i>
   <i type="logical" name="LSPECTRAL"> F  </i>
   <i type="logical" name="LSPECTRALGW"> F  </i>
   <i type="logical" name="LSINGLES"> F  </i>
   <i type="logical" name="LFERMIGW"> F  </i>
   <i type="logical" name="ODDONLYGW"> F  </i>
   <i type="logical" name="EVENONLYGW"> F  </i>
   <i type="int" name="NKREDLFX">     1</i>
   <i type="int" name="NKREDLFY">     1</i>
   <i type="int" name="NKREDLFZ">     1</i>
   <i type="int" name="MAXMEM">  2800</i>
   <i type="int" name="TELESCOPE">     0</i>
   <i type="int" name="TAUPAR">     1</i>
   <i type="int" name="OMEGAPAR">    -1</i>
   <i name="LAMBDA">      1.00000000</i>
  </separator>
  <separator name="External order field" >
   <i name="OFIELD_KAPPA">      0.00000000</i>
   <v name="OFIELD_K">      0.00000000      0.00000000      0.00000000</v>
   <i name="OFIELD_Q6_NEAR">      0.00000000</i>
   <i name="OFIELD_Q6_FAR">      0.00000000</i>
   <i name="OFIELD_A">      0.00000000</i>
  </separator>
 </parameters>
 <atominfo>
  <atoms>     288 </atoms>
  <types>       2 </types>
  <array name="atoms" >
   <dimension dim="1">ion</dimension>
   <field type="string">element</field>
   <field type="int">atomtype</field>
   <set>
    <rc><c>Fe</c><c>   1</c></rc>
    <rc><c>Fe</c><c>   1</c></rc>
    <rc><c>Fe</c><c>   1</c></rc>
    <rc><c>Fe</c><c>   1</c></rc>
    <rc><c>Fe</c><c>   1</c></rc>
    <rc><c>Fe</c><c>   1</c></rc>
    <rc><c>Fe</c><c>   1</c></rc>
    <rc><c>Fe</c><c>   1</c></rc>
    <rc><c>Fe</c><c>   1</c></rc>
    <rc><c>Fe</c><c>   1</c></rc>
    <rc><c>Fe</c><c>   1</c></rc>
    <rc><c>Fe</c><c>   1</c></rc>
    <rc><c>Fe</c><c>   1</c></rc>
    <rc><c>Fe</c><c>   1</c></rc>
    <rc><c>Fe</c><c>   1</c></rc>
    <rc><c>Fe</c><c>   1</c></rc>
    <rc><c>Fe</c><c>   1</c></rc>
    <rc><c>Fe</c><c>   1</c></rc>
    <rc><c>Fe</c><c>   1</c></rc>
    <rc><c>Fe</c><c>   1</c></rc>
    <rc><c>Fe</c><c>   1</c></rc>
    <rc><c>Fe</c><c>   1</c></rc>
    <rc><c>Fe</c><c>   1</c></rc>
    <rc><c>Fe</c><c>   1</c></rc>
    <rc><c>Fe</c><c>   1</c></rc>
    <rc><c>Fe</c><c>   1</c></rc>
    <rc><c>Fe</c><c>   1</c></rc>
    <rc><c>Fe</c><c>   1</c></rc>
    <rc><c>Fe</c><c>   1</c></rc>
    <rc><c>Fe</c><c>   1</c></rc>
    <rc><c>Fe</c><c>   1</c></rc>
    <rc><c>Fe</c><c>   1</c></rc>
    <rc><c>Fe</c><c>   1</c></rc>
    <rc><c>Fe</c><c>   1</c></rc>
    <rc><c>Fe</c><c>   1</c></rc>
    <rc><c>Fe</c><c>   1</c></rc>
    <rc><c>Fe</c><c>   1</c></rc>
    <rc><c>Fe</c><c>   1</c></rc>
    <rc><c>Fe</c><c>   1</c></rc>
    <rc><c>Fe</c><c>   1</c></rc>
    <rc><c>Fe</c><c>   1</c></rc>
    <rc><c>Fe</c><c>   1</c></rc>
    <rc><c>Fe</c><c>   1</c></rc>
    <rc><c>Fe</c><c>   1</c></rc>
    <rc><c>Fe</c><c>   1</c></rc>
    <rc><c>Fe</c><c>   1</c></rc>
    <rc><c>Fe</c><c>   1</c></rc>
    <rc><c>Fe</c><c>   1</c></rc>
    <rc><c>Fe</c><c>   1</c></rc>
    <rc><c>Fe</c><c>   1</c></rc>
    <rc><c>Fe</c><c>   1</c></rc>
    <rc><c>Fe</c><c>   1</c></rc>
    <rc><c>Fe</c><c>   1</c></rc>
    <rc><c>Fe</c><c>   1</c></rc>
    <rc><c>Fe</c><c>   1</c></rc>
    <rc><c>Fe</c><c>   1</c></rc>
    <rc><c>Fe</c><c>   1</c></rc>
    <rc><c>Fe</c><c>   1</c></rc>
    <rc><c>Fe</c><c>   1</c></rc>
    <rc><c>Fe</c><c>   1</c></rc>
    <rc><c>Fe</c><c>   1</c></rc>
    <rc><c>Fe</c><c>   1</c></rc>
    <rc><c>Fe</c><c>   1</c></rc>
    <rc><c>Fe</c><c>   1</c></rc>
    <rc><c>Fe</c><c>   1</c></rc>
    <rc><c>Fe</c><c>   1</c></rc>
    <rc><c>Fe</c><c>   1</c></rc>
    <rc><c>Fe</c><c>   1</c></rc>
    <rc><c>Fe</c><c>   1</c></rc>
    <rc><c>Fe</c><c>   1</c></rc>
    <rc><c>Fe</c><c>   1</c></rc>
    <rc><c>Fe</c><c>   1</c></rc>
    <rc><c>Fe</c><c>   1</c></rc>
    <rc><c>Fe</c><c>   1</c></rc>
    <rc><c>Fe</c><c>   1</c></rc>
    <rc><c>Fe</c><c>   1</c></rc>
    <rc><c>Fe</c><c>   1</c></rc>
    <rc><c>Fe</c><c>   1</c></rc>
    <rc><c>Fe</c><c>   1</c></rc>
    <rc><c>Fe</c><c>   1</c></rc>
    <rc><c>Fe</c><c>   1</c></rc>
    <rc><c>Fe</c><c>   1</c></rc>
    <rc><c>Fe</c><c>   1</c></rc>
    <rc><c>Fe</c><c>   1</c></rc>
    <rc><c>Fe</c><c>   1</c></rc>
    <rc><c>Fe</c><c>   1</c></rc>
    <rc><c>Fe</c><c>   1</c></rc>
    <rc><c>Fe</c><c>   1</c></rc>
    <rc><c>Fe</c><c>   1</c></rc>
    <rc><c>Fe</c><c>   1</c></rc>
    <rc><c>Fe</c><c>   1</c></rc>
    <rc><c>Fe</c><c>   1</c></rc>
    <rc><c>Fe</c><c>   1</c></rc>
    <rc><c>Fe</c><c>   1</c></rc>
    <rc><c>Fe</c><c>   1</c></rc>
    <rc><c>Fe</c><c>   1</c></rc>
    <rc><c>Fe</c><c>   1</c></rc>
    <rc><c>Fe</c><c>   1</c></rc>
    <rc><c>Fe</c><c>   1</c></rc>
    <rc><c>Fe</c><c>   1</c></rc>
    <rc><c>Fe</c><c>   1</c></rc>
    <rc><c>Fe</c><c>   1</c></rc>
    <rc><c>Fe</c><c>   1</c></rc>
    <rc><c>Fe</c><c>   1</c></rc>
    <rc><c>Fe</c><c>   1</c></rc>
    <rc><c>Fe</c><c>   1</c></rc>
    <rc><c>Fe</c><c>   1</c></rc>
    <rc><c>Fe</c><c>   1</c></rc>
    <rc><c>Fe</c><c>   1</c></rc>
    <rc><c>Fe</c><c>   1</c></rc>
    <rc><c>Fe</c><c>   1</c></rc>
    <rc><c>Fe</c><c>   1</c></rc>
    <rc><c>Fe</c><c>   1</c></rc>
    <rc><c>Fe</c><c>   1</c></rc>
    <rc><c>Fe</c><c>   1</c></rc>
    <rc><c>Fe</c><c>   1</c></rc>
    <rc><c>Fe</c><c>   1</c></rc>
    <rc><c>Fe</c><c>   1</c></rc>
    <rc><c>Fe</c><c>   1</c></rc>
    <rc><c>Fe</c><c>   1</c></rc>
    <rc><c>Fe</c><c>   1</c></rc>
    <rc><c>Fe</c><c>   1</c></rc>
    <rc><c>Fe</c><c>   1</c></rc>
    <rc><c>Fe</c><c>   1</c></rc>
    <rc><c>Fe</c><c>   1</c></rc>
    <rc><c>Fe</c><c>   1</c></rc>
    <rc><c>Fe</c><c>   1</c></rc>
    <rc><c>Fe</c><c>   1</c></rc>
    <rc><c>Fe</c><c>   1</c></rc>
    <rc><c>Fe</c><c>   1</c></rc>
    <rc><c>Fe</c><c>   1</c></rc>
    <rc><c>Fe</c><c>   1</c></rc>
    <rc><c>Fe</c><c>   1</c></rc>
    <rc><c>Fe</c><c>   1</c></rc>
    <rc><c>Fe</c><c>   1</c></rc>
    <rc><c>Fe</c><c>   1</c></rc>
    <rc><c>Fe</c><c>   1</c></rc>
    <rc><c>Fe</c><c>   1</c></rc>
    <rc><c>Fe</c><c>   1</c></rc>
    <rc><c>Fe</c><c>   1</c></rc>
    <rc><c>Fe</c><c>   1</c></rc>
    <rc><c>Fe</c><c>   1</c></rc>
    <rc><c>Fe</c><c>   1</c></rc>
    <rc><c>Fe</c><c>   1</c></rc>
    <rc><c>Fe</c><c>   1</c></rc>
    <rc><c>Fe</c><c>   1</c></rc>
    <rc><c>Fe</c><c>   1</c></rc>
    <rc><c>Fe</c><c>   1</c></rc>
    <rc><c>Fe</c><c>   1</c></rc>
    <rc><c>Fe</c><c>   1</c></rc>
    <rc><c>Fe</c><c>   1</c></rc>
    <rc><c>Fe</c><c>   1</c></rc>
    <rc><c>Fe</c><c>   1</c></rc>
    <rc><c>Fe</c><c>   1</c></rc>
    <rc><c>Fe</c><c>   1</c></rc>
    <rc><c>Fe</c><c>   1</c></rc>
    <rc><c>Fe</c><c>   1</c></rc>
    <rc><c>Fe</c><c>   1</c></rc>
    <rc><c>Fe</c><c>   1</c></rc>
    <rc><c>Fe</c><c>   1</c></rc>
    <rc><c>Fe</c><c>   1</c></rc>
    <rc><c>Fe</c><c>   1</c></rc>
    <rc><c>Fe</c><c>   1</c></rc>
    <rc><c>Fe</c><c>   1</c></rc>
    <rc><c>Fe</c><c>   1</c></rc>
    <rc><c>Fe</c><c>   1</c></rc>
    <rc><c>Fe</c><c>   1</c></rc>
    <rc><c>Fe</c><c>   1</c></rc>
    <rc><c>Fe</c><c>   1</c></rc>
    <rc><c>Fe</c><c>   1</c></rc>
    <rc><c>Fe</c><c>   1</c></rc>
    <rc><c>Fe</c><c>   1</c></rc>
    <rc><c>Fe</c><c>   1</c></rc>
    <rc><c>Fe</c><c>   1</c></rc>
    <rc><c>Fe</c><c>   1</c></rc>
    <rc><c>Fe</c><c>   1</c></rc>
    <rc><c>Fe</c><c>   1</c></rc>
    <rc><c>Fe</c><c>   1</c></rc>
    <rc><c>Fe</c><c>   1</c></rc>
    <rc><c>Fe</c><c>   1</c></rc>
    <rc><c>Fe</c><c>   1</c></rc>
    <rc><c>Fe</c><c>   1</c></rc>
    <rc><c>Fe</c><c>   1</c></rc>
    <rc><c>Fe</c><c>   1</c></rc>
    <rc><c>Fe</c><c>   1</c></rc>
    <rc><c>Fe</c><c>   1</c></rc>
    <rc><c>Fe</c><c>   1</c></rc>
    <rc><c>Fe</c><c>   1</c></rc>
    <rc><c>Fe</c><c>   1</c></rc>
    <rc><c>Fe</c><c>   1</c></rc>
    <rc><c>Fe</c><c>   1</c></rc>
    <rc><c>Fe</c><c>   1</c></rc>
    <rc><c>Fe</c><c>   1</c></rc>
    <rc><c>Fe</c><c>   1</c></rc>
    <rc><c>Fe</c><c>   1</c></rc>
    <rc><c>Fe</c><c>   1</c></rc>
    <rc><c>Fe</c><c>   1</c></rc>
    <rc><c>Fe</c><c>   1</c></rc>
    <rc><c>Fe</c><c>   1</c></rc>
    <rc><c>Fe</c><c>   1</c></rc>
    <rc><c>Fe</c><c>   1</c></rc>
    <rc><c>Fe</c><c>   1</c></rc>
    <rc><c>Fe</c><c>   1</c></rc>
    <rc><c>Fe</c><c>   1</c></rc>
    <rc><c>Fe</c><c>   1</c></rc>
    <rc><c>Fe</c><c>   1</c></rc>
    <rc><c>Fe</c><c>   1</c></rc>
    <rc><c>Fe</c><c>   1</c></rc>
    <rc><c>Fe</c><c>   1</c></rc>
    <rc><c>Fe</c><c>   1</c></rc>
    <rc><c>Fe</c><c>   1</c></rc>
    <rc><c>Fe</c><c>   1</c></rc>
    <rc><c>Fe</c><c>   1</c></rc>
    <rc><c>Fe</c><c>   1</c></rc>
    <rc><c>Fe</c><c>   1</c></rc>
    <rc><c>Fe</c><c>   1</c></rc>
    <rc><c>Fe</c><c>   1</c></rc>
    <rc><c>Fe</c><c>   1</c></rc>
    <rc><c>Fe</c><c>   1</c></rc>
    <rc><c>Fe</c><c>   1</c></rc>
    <rc><c>Fe</c><c>   1</c></rc>
    <rc><c>Fe</c><c>   1</c></rc>
    <rc><c>Fe</c><c>   1</c></rc>
    <rc><c>Fe</c><c>   1</c></rc>
    <rc><c>Fe</c><c>   1</c></rc>
    <rc><c>Fe</c><c>   1</c></rc>
    <rc><c>Fe</c><c>   1</c></rc>
    <rc><c>Fe</c><c>   1</c></rc>
    <rc><c>Fe</c><c>   1</c></rc>
    <rc><c>Fe</c><c>   1</c></rc>
    <rc><c>Fe</c><c>   1</c></rc>
    <rc><c>Fe</c><c>   1</c></rc>
    <rc><c>Fe</c><c>   1</c></rc>
    <rc><c>Fe</c><c>   1</c></rc>
    <rc><c>Fe</c><c>   1</c></rc>
    <rc><c>Fe</c><c>   1</c></rc>
    <rc><c>Fe</c><c>   1</c></rc>
    <rc><c>Fe</c><c>   1</c></rc>
    <rc><c>Fe</c><c>   1</c></rc>
    <rc><c>Fe</c><c>   1</c></rc>
    <rc><c>Fe</c><c>   1</c></rc>
    <rc><c>Fe</c><c>   1</c></rc>
    <rc><c>Fe</c><c>   1</c></rc>
    <rc><c>Fe</c><c>   1</c></rc>
    <rc><c>Fe</c><c>   1</c></rc>
    <rc><c>Fe</c><c>   1</c></rc>
    <rc><c>Fe</c><c>   1</c></rc>
    <rc><c>Fe</c><c>   1</c></rc>
    <rc><c>Fe</c><c>   1</c></rc>
    <rc><c>Fe</c><c>   1</c></rc>
    <rc><c>Fe</c><c>   1</c></rc>
    <rc><c>Fe</c><c>   1</c></rc>
    <rc><c>Fe</c><c>   1</c></rc>
    <rc><c>Fe</c><c>   1</c></rc>
    <rc><c>Fe</c><c>   1</c></rc>
    <rc><c>Fe</c><c>   1</c></rc>
    <rc><c>Fe</c><c>   1</c></rc>
    <rc><c>Fe</c><c>   1</c></rc>
    <rc><c>Fe</c><c>   1</c></rc>
    <rc><c>Fe</c><c>   1</c></rc>
    <rc><c>Fe</c><c>   1</c></rc>
    <rc><c>Fe</c><c>   1</c></rc>
    <rc><c>Fe</c><c>   1</c></rc>
    <rc><c>Fe</c><c>   1</c></rc>
    <rc><c>Fe</c><c>   1</c></rc>
    <rc><c>Fe</c><c>   1</c></rc>
    <rc><c>Fe</c><c>   1</c></rc>
    <rc><c>Fe</c><c>   1</c></rc>
    <rc><c>Fe</c><c>   1</c></rc>
    <rc><c>Fe</c><c>   1</c></rc>
    <rc><c>Fe</c><c>   1</c></rc>
    <rc><c>Fe</c><c>   1</c></rc>
    <rc><c>Fe</c><c>   1</c></rc>
    <rc><c>Fe</c><c>   1</c></rc>
    <rc><c>Mn</c><c>   2</c></rc>
    <rc><c>Mn</c><c>   2</c></rc>
    <rc><c>Mn</c><c>   2</c></rc>
    <rc><c>Mn</c><c>   2</c></rc>
    <rc><c>Mn</c><c>   2</c></rc>
    <rc><c>Mn</c><c>   2</c></rc>
    <rc><c>Mn</c><c>   2</c></rc>
    <rc><c>Mn</c><c>   2</c></rc>
    <rc><c>Mn</c><c>   2</c></rc>
    <rc><c>Mn</c><c>   2</c></rc>
    <rc><c>Mn</c><c>   2</c></rc>
    <rc><c>Mn</c><c>   2</c></rc>
    <rc><c>Mn</c><c>   2</c></rc>
    <rc><c>Mn</c><c>   2</c></rc>
   </set>
  </array>
  <array name="atomtypes" >
   <dimension dim="1">type</dimension>
   <field type="int">atomspertype</field>
   <field type="string">element</field>
   <field>mass</field>
   <field>valence</field>
   <field type="string">pseudopotential</field>
   <set>
    <rc><c> 274</c><c>Fe</c><c>     55.84700000</c><c>      8.00000000</c><c>  PAW_PBE Fe_GW 31Mar2010               </c></rc>
    <rc><c>  14</c><c>Mn</c><c>     54.93800000</c><c>      7.00000000</c><c>  PAW_PBE Mn_GW 31Mar2010               </c></rc>
   </set>
  </array>
 </atominfo>
 <structure name="initialpos" >
  <crystal>
   <varray name="basis" >
    <v>       9.72667804       0.00000000       0.00000000 </v>
    <v>       0.00000000       8.42355028       0.00000000 </v>
    <v>       0.00000000       0.00000000      45.00000000 </v>
   </varray>
   <i name="volume">   3686.99226691 </i>
   <varray name="rec_basis" >
    <v>       0.10281002       0.00000000       0.00000000 </v>
    <v>       0.00000000       0.11871479       0.00000000 </v>
    <v>       0.00000000       0.00000000       0.02222222 </v>
   </varray>
  </crystal>
  <varray name="positions" >
   <v>       0.06209388       0.02909054       0.12411941 </v>
   <v>       0.31629971       0.87445368       0.65507363 </v>
   <v>       0.18380440       0.12320885       0.78868092 </v>
   <v>       0.44168923       0.28751333       0.38911339 </v>
   <v>       0.31805191       0.71368670       0.83321552 </v>
   <v>       0.81816408       0.21488063       0.83361973 </v>
   <v>       0.19157659       0.96346178       0.83360347 </v>
   <v>       0.56221644       0.20691782       0.56553172 </v>
   <v>       0.06573390       0.04041233       0.74424606 </v>
   <v>       0.81163978       0.87151049       0.52139503 </v>
   <v>       0.19074879       0.29094534       0.74438745 </v>
   <v>       0.93383311       0.45278797       0.34483399 </v>
   <v>       0.94131996       0.28667592       0.38887665 </v>
   <v>       0.81279880       0.04058386       0.87578238 </v>
   <v>       0.18384939       0.78818071       0.61094812 </v>
   <v>       0.56639666       0.03785688       0.38906376 </v>
   <v>       0.94270528       0.96465838       0.83393251 </v>
   <v>       0.31333303       0.54050939       0.87605581 </v>
   <v>       0.69023495       0.29143522       0.74425778 </v>
   <v>       0.18203689       0.61365477       0.16666168 </v>
   <v>       0.81236572       0.20577682       0.47873343 </v>
   <v>       0.80906388       0.53856424       0.61108254 </v>
   <v>       0.31187138       0.87026736       0.43442192 </v>
   <v>       0.80943185       0.03776947       0.25583992 </v>
   <v>       0.68335409       0.95259681       0.34462738 </v>
   <v>       0.93063963       0.11467048       0.16684068 </v>
   <v>       0.06187521       0.87152018       0.52143022 </v>
   <v>       0.55811122       0.53840508       0.25517837 </v>
   <v>       0.68492171       0.79756625       0.87592532 </v>
   <v>       0.55598477       0.36541258       0.16653397 </v>
   <v>       0.43963651       0.79188667       0.74445127 </v>
   <v>       0.81146688       0.70649989       0.56548676 </v>
   <v>       0.55916658       0.87347408       0.78862785 </v>
   <v>       0.68671346       0.12174517       0.52136580 </v>
   <v>       0.81613561       0.37480223       0.65500876 </v>
   <v>       0.94208065       0.46391080       0.83371018 </v>
   <v>       0.06058183       0.20753811       0.69973513 </v>
   <v>       0.43553638       0.95756055       0.69973793 </v>
   <v>       0.31707036       0.21286384       0.83349207 </v>
   <v>       0.44111113       0.62484019       0.65503748 </v>
   <v>       0.30900734       0.53838949       0.61098071 </v>
   <v>       0.93638893       0.45642312       0.56560571 </v>
   <v>       0.69029047       0.79156975       0.74433917 </v>
   <v>       0.93459024       0.78888529       0.12440764 </v>
   <v>       0.69180833       0.78791797       0.38899582 </v>
   <v>       0.94043446       0.79080881       0.74451201 </v>
   <v>       0.05876106       0.20326628       0.34494588 </v>
   <v>       0.68363338       0.45269022       0.34498438 </v>
   <v>       0.43408291       0.12260604       0.78900584 </v>
   <v>       0.06570621       0.20562120       0.21111920 </v>
   <v>       0.05531171       0.36562989       0.16661327 </v>
   <v>       0.93300632       0.78674628       0.25552912 </v>
   <v>       0.56050092       0.20711770       0.69978221 </v>
   <v>       0.68508376       0.95703677       0.69977283 </v>
   <v>       0.80904339       0.87351464       0.78839149 </v>
   <v>       0.43667920       0.95707188       0.56540609 </v>
   <v>       0.80892812       0.37465477       0.78850736 </v>
   <v>       0.68426466       0.28790995       0.25603540 </v>
   <v>       0.18739614       0.45705090       0.56553840 </v>
   <v>       0.05598577       0.86513795       0.16660155 </v>
   <v>       0.18416639       0.28850102       0.61107637 </v>
   <v>       0.06222749       0.20729419       0.56539628 </v>
   <v>       0.31066730       0.20736526       0.69982017 </v>
   <v>       0.56257856       0.54055856       0.87598952 </v>
   <v>       0.06222312       0.70662319       0.56556811 </v>
   <v>       0.68319354       0.62246770       0.78860345 </v>
   <v>       0.31605169       0.53829562       0.38890451 </v>
   <v>       0.18681993       0.62156043       0.52149498 </v>
   <v>       0.56242696       0.86989603       0.43449151 </v>
   <v>       0.43666040       0.45684299       0.56556252 </v>
   <v>       0.43990566       0.29156240       0.74429961 </v>
   <v>       0.82089346       0.87322363       0.30019884 </v>
   <v>       0.80900378       0.70263623       0.34484509 </v>
   <v>       0.44242712       0.46275148       0.83336233 </v>
   <v>       0.68749191       0.95586834       0.47872733 </v>
   <v>       0.68483813       0.45753631       0.69977431 </v>
   <v>       0.56196009       0.87196945       0.52146641 </v>
   <v>       0.56604570       0.37433463       0.65496630 </v>
   <v>       0.81609443       0.87492528       0.65512234 </v>
   <v>       0.81175514       0.37135290       0.43423990 </v>
   <v>       0.80836785       0.53721964       0.25580261 </v>
   <v>       0.69220712       0.46210421       0.83333035 </v>
   <v>       0.18601184       0.78845652       0.12403547 </v>
   <v>       0.69126301       0.28737148       0.38900067 </v>
   <v>       0.31595544       0.37393711       0.65498904 </v>
   <v>       0.30911180       0.20281868       0.34462974 </v>
   <v>       0.81570809       0.54028338       0.74424664 </v>
   <v>       0.69204512       0.96209570       0.83347031 </v>
   <v>       0.56597233       0.87414659       0.65498985 </v>
   <v>       0.31130508       0.70714496       0.56553004 </v>
   <v>       0.31284253       0.52978155       0.12399206 </v>
   <v>       0.68932392       0.95391209       0.21176546 </v>
   <v>       0.31152784       0.20652679       0.56552318 </v>
   <v>       0.18745381       0.95586969       0.47871000 </v>
   <v>       0.68738664       0.95694824       0.56552527 </v>
   <v>       0.43391311       0.78842956       0.61102820 </v>
   <v>       0.68267902       0.61229290       0.16630172 </v>
   <v>       0.31908863       0.87436022       0.30017453 </v>
   <v>       0.31226606       0.70581603       0.47866370 </v>
   <v>       0.93371381       0.28775049       0.61090044 </v>
   <v>       0.44503399       0.62464967       0.29998646 </v>
   <v>       0.80704614       0.86360169       0.16682214 </v>
   <v>       0.56640617       0.20309966       0.21139505 </v>
   <v>       0.93242957       0.61314940       0.16674127 </v>
   <v>       0.43740001       0.95577389       0.47867930 </v>
   <v>       0.55923403       0.37317351       0.78872628 </v>
   <v>       0.06152612       0.37234475       0.52139751 </v>
   <v>       0.30711088       0.36388300       0.16658395 </v>
   <v>       0.69545298       0.12369621       0.30022867 </v>
   <v>       0.44288404       0.96309190       0.83335872 </v>
   <v>       0.18550092       0.28693320       0.12403541 </v>
   <v>       0.18355475       0.28701411       0.25583996 </v>
   <v>       0.31200008       0.37041334       0.43444384 </v>
   <v>       0.56290193       0.03205570       0.12424075 </v>
   <v>       0.43395223       0.28836243       0.61099080 </v>
   <v>       0.18367670       0.45274643       0.34487980 </v>
   <v>       0.43386041       0.28694401       0.12404948 </v>
   <v>       0.68294095       0.78760767       0.25570412 </v>
   <v>       0.43694326       0.12162252       0.52152612 </v>
   <v>       0.18857752       0.29658517       0.87614997 </v>
   <v>       0.19139990       0.12494232       0.65515039 </v>
   <v>       0.94110426       0.12506556       0.65504723 </v>
   <v>       0.81635930       0.53767172       0.38902561 </v>
   <v>       0.06651196       0.03819158       0.38914406 </v>
   <v>       0.18327482       0.11223088       0.16651614 </v>
   <v>       0.05893148       0.53824363       0.61104073 </v>
   <v>       0.93369446       0.28752649       0.25582006 </v>
   <v>       0.55900883       0.53832596       0.61101594 </v>
   <v>       0.93665712       0.95707055       0.56553983 </v>
   <v>       0.69423759       0.62481593       0.30023334 </v>
   <v>       0.93729120       0.62072179       0.43449057 </v>
   <v>       0.93348722       0.62424115       0.78837248 </v>
   <v>       0.56039749       0.70723081       0.69975452 </v>
   <v>       0.06621655       0.71654805       0.83390101 </v>
   <v>       0.94488550       0.12365026       0.30008266 </v>
   <v>       0.93367208       0.78767676       0.61092044 </v>
   <v>       0.43262446       0.78761482       0.25550552 </v>
   <v>       0.30921015       0.37372860       0.78873599 </v>
   <v>       0.43967601       0.45291416       0.21116337 </v>
   <v>       0.18683664       0.12182973       0.52141927 </v>
   <v>       0.81028491       0.70724905       0.69975628 </v>
   <v>       0.05880195       0.03796005       0.61090161 </v>
   <v>       0.56614708       0.21340333       0.83322877 </v>
   <v>       0.31178566       0.87180982       0.52139316 </v>
   <v>       0.68663805       0.28581148       0.12389016 </v>
   <v>       0.19032309       0.95447190       0.21186830 </v>
   <v>       0.68401864       0.28866562       0.61104704 </v>
   <v>       0.30890293       0.03849622       0.61107011 </v>
   <v>       0.93426831       0.12436547       0.78861607 </v>
   <v>       0.43658594       0.79748221       0.87618678 </v>
   <v>       0.81560907       0.04088690       0.74427664 </v>
   <v>       0.93540859       0.45789163       0.69966717 </v>
   <v>       0.19120294       0.62496911       0.65504333 </v>
   <v>       0.31030428       0.70681210       0.69976164 </v>
   <v>       0.93400127       0.28675873       0.12384678 </v>
   <v>       0.43748557       0.45601453       0.47860978 </v>
   <v>       0.06235067       0.70578626       0.47855086 </v>
   <v>       0.93690530       0.11922034       0.43461223 </v>
   <v>       0.44446469       0.12445181       0.30048009 </v>
   <v>       0.18747448       0.12051419       0.43436253 </v>
   <v>       0.56293447       0.04051953       0.87603613 </v>
   <v>       0.18688861       0.95705352       0.56555342 </v>
   <v>       0.68482926       0.78833647       0.12430090 </v>
   <v>       0.55905536       0.70249790       0.34486798 </v>
   <v>       0.31628552       0.03700521       0.38889885 </v>
   <v>       0.68237989       0.11373141       0.16676194 </v>
   <v>       0.81591674       0.20389169       0.21113386 </v>
   <v>       0.05857913       0.53721917       0.25573614 </v>
   <v>       0.56249788       0.70580460       0.47864356 </v>
   <v>       0.43489627       0.78736334       0.12409241 </v>
   <v>       0.56959533       0.37183586       0.30011571 </v>
   <v>       0.43366148       0.95347911       0.34491411 </v>
   <v>       0.18518666       0.95730605       0.69984307 </v>
   <v>       0.43162156       0.61307705       0.16615037 </v>
   <v>       0.94039210       0.45249966       0.21155853 </v>
   <v>       0.06197984       0.52922789       0.12400437 </v>
   <v>       0.81191262       0.37200105       0.52138735 </v>
   <v>       0.94430439       0.62443931       0.30000596 </v>
   <v>       0.30835541       0.03720835       0.25560276 </v>
   <v>       0.68391696       0.78815288       0.61096102 </v>
   <v>       0.19177587       0.46307035       0.83350528 </v>
   <v>       0.43203299       0.11158944       0.16664903 </v>
   <v>       0.31163921       0.37197298       0.52141532 </v>
   <v>       0.43327160       0.62286822       0.78892842 </v>
   <v>       0.05891987       0.03739665       0.25580703 </v>
   <v>       0.56235386       0.70694474       0.56554866 </v>
   <v>       0.93985335       0.29048084       0.74451144 </v>
   <v>       0.68259041       0.12272502       0.78860107 </v>
   <v>       0.18985548       0.45293992       0.21109288 </v>
   <v>       0.94134970       0.78774361       0.38898512 </v>
   <v>       0.68575794       0.29881707       0.87605828 </v>
   <v>       0.55660870       0.86304317       0.16617267 </v>
   <v>       0.43556085       0.45746811       0.69977419 </v>
   <v>       0.93408401       0.95138778       0.34475901 </v>
   <v>       0.68655100       0.62141027       0.52133164 </v>
   <v>       0.06630143       0.87477450       0.65498910 </v>
   <v>       0.05918768       0.87391960       0.78848136 </v>
   <v>       0.06615520       0.37461041       0.65502705 </v>
   <v>       0.68711708       0.45570348       0.47864718 </v>
   <v>       0.18318182       0.78682093       0.25554082 </v>
   <v>       0.43705013       0.12083679       0.43437765 </v>
   <v>       0.81400414       0.03077957       0.12406107 </v>
   <v>       0.93689860       0.62184346       0.52141336 </v>
   <v>       0.44125248       0.12463469       0.65492812 </v>
   <v>       0.81325514       0.52910112       0.12397042 </v>
   <v>       0.43429470       0.45275320       0.34500038 </v>
   <v>       0.80923361       0.20241504       0.34504091 </v>
   <v>       0.30917896       0.70216432       0.34477639 </v>
   <v>       0.69106268       0.12505181       0.65503482 </v>
   <v>       0.57016703       0.87340974       0.30030786 </v>
   <v>       0.06534610       0.54090274       0.74433508 </v>
   <v>       0.94063604       0.95365317       0.21129266 </v>
   <v>       0.81609689       0.70439281       0.21148703 </v>
   <v>       0.07008408       0.87345059       0.30034414 </v>
   <v>       0.19417313       0.12428820       0.30016355 </v>
   <v>       0.05888955       0.70181364       0.34488835 </v>
   <v>       0.80900591       0.03843185       0.61100859 </v>
   <v>       0.06313129       0.37134264       0.43431597 </v>
   <v>       0.30837103       0.53738499       0.25557947 </v>
   <v>       0.81964883       0.37271247       0.29995030 </v>
   <v>       0.55952792       0.03762561       0.25544546 </v>
   <v>       0.56653393       0.53743317       0.38900161 </v>
   <v>       0.06265219       0.20578145       0.47866749 </v>
   <v>       0.31026967       0.87293652       0.78845373 </v>
   <v>       0.93531189       0.95798704       0.69966925 </v>
   <v>       0.06927080       0.37429634       0.29995341 </v>
   <v>       0.69127953       0.62485636       0.65520195 </v>
   <v>       0.68657725       0.45696892       0.56544238 </v>
   <v>       0.44053579       0.95452489       0.21197350 </v>
   <v>       0.31268042       0.20584535       0.47877330 </v>
   <v>       0.81227622       0.54006272       0.87586106 </v>
   <v>       0.68791860       0.62024965       0.43449970 </v>
   <v>       0.81074562       0.20741488       0.69981014 </v>
   <v>       0.81237536       0.70553493       0.47866691 </v>
   <v>       0.81167613       0.87078708       0.43427739 </v>
   <v>       0.93735596       0.95517640       0.47873334 </v>
   <v>       0.56212986       0.20566899       0.47866323 </v>
   <v>       0.18745478       0.62004707       0.43446312 </v>
   <v>       0.31523836       0.04165504       0.74416136 </v>
   <v>       0.94126103       0.62519386       0.65493322 </v>
   <v>       0.56635008       0.71344280       0.83333765 </v>
   <v>       0.32033314       0.37249853       0.30009145 </v>
   <v>       0.31534846       0.54138030       0.74430729 </v>
   <v>       0.18740131       0.45560622       0.47865535 </v>
   <v>       0.31431931       0.04103455       0.87589108 </v>
   <v>       0.18535668       0.45781430       0.69969776 </v>
   <v>       0.56178066       0.37183860       0.52141273 </v>
   <v>       0.19102324       0.28736539       0.38884759 </v>
   <v>       0.31593071       0.20534924       0.21118710 </v>
   <v>       0.06747392       0.70511050       0.21129976 </v>
   <v>       0.56192049       0.37075744       0.43441138 </v>
   <v>       0.43677927       0.62200959       0.52138417 </v>
   <v>       0.81696966       0.71516602       0.83339591 </v>
   <v>       0.05910559       0.37480417       0.78846317 </v>
   <v>       0.43681592       0.29813083       0.87632932 </v>
   <v>       0.31148332       0.03092166       0.12408627 </v>
   <v>       0.68811789       0.12082218       0.43423177 </v>
   <v>       0.18386894       0.95238587       0.34491212 </v>
   <v>       0.06684259       0.21499686       0.83402342 </v>
   <v>       0.55923878       0.03849652       0.61112026 </v>
   <v>       0.68912307       0.45315273       0.21165172 </v>
   <v>       0.18982592       0.79163993       0.74443088 </v>
   <v>       0.19462195       0.62367418       0.30014978 </v>
   <v>       0.44144482       0.78761053       0.38917921 </v>
   <v>       0.43394500       0.28747208       0.25577558 </v>
   <v>       0.06340871       0.54064135       0.87588061 </v>
   <v>       0.56562079       0.04119135       0.74426443 </v>
   <v>       0.18780208       0.79714807       0.87605558 </v>
   <v>       0.93739821       0.45564757       0.47863311 </v>
   <v>       0.56539711       0.54136753       0.74413952 </v>
   <v>       0.81120668       0.20706355       0.56550616 </v>
   <v>       0.18452077       0.62256067       0.78851471 </v>
   <v>       0.06672622       0.53830145       0.38913492 </v>
   <v>       0.06075675       0.70741878       0.69968343 </v>
   <v>       0.55879007       0.20351036       0.34472126 </v>
   <v>       0.31506223       0.70485015       0.21213081 </v>
   <v>       0.30604616       0.86380235       0.16587116 </v>
   <v>       0.43638929       0.62136293       0.43442218 </v>
   <v>       0.81715965       0.03943496       0.38926251 </v>
   <v>       0.93499709       0.29774432       0.87559281 </v>
   <v>       0.93716815       0.79537153       0.87555140 </v>
   <v>       0.06546418       0.03888930       0.87576068 </v>
   <v>       0.56239154       0.52869859       0.12450141 </v>
   <v>       0.80565033       0.36545683       0.16588270 </v>
   <v>       0.06173375       0.87101420       0.43433402 </v>
   <v>       0.93661829       0.12173856       0.52155398 </v>
   <v>       0.19359545       0.78776967       0.38886576 </v>
   <v>       0.56749078       0.70429910       0.21205517 </v>
  </varray>
 </structure>
 <calculation>
  <scstep>
   <time name="dav">   54.42   54.43</time>
   <time name="total">   54.57   54.61</time>
   <energy>
    <i name="alphaZ">  16293.21160653 </i>
    <i name="ewald"> 727240.97317468 </i>
    <i name="hartreedc">-917756.39110570 </i>
    <i name="XCdc">  -6512.70598322 </i>
    <i name="pawpsdc"> 162273.92519768 </i>
    <i name="pawaedc">-159623.75899949 </i>
    <i name="eentropy">     -1.07215524 </i>
    <i name="bandstr">  38488.69454334 </i>
    <i name="atom"> 168671.76673737 </i>
    <i name="e_fr_energy">  29074.64301596 </i>
    <i name="e_wo_entrp">  29075.71517120 </i>
    <i name="e_0_energy">  29075.17909358 </i>
   </energy>
  </scstep>
  <scstep>
   <time name="dav">   53.99   54.01</time>
   <time name="total">   54.00   54.01</time>
   <energy>
    <i name="e_fr_energy">   1187.87980970 </i>
    <i name="e_wo_entrp">   1189.37944918 </i>
    <i name="e_0_energy">   1188.62962944 </i>
   </energy>
  </scstep>
  <scstep>
   <time name="dav">   70.93   70.97</time>
   <time name="total">   70.94   70.98</time>
   <energy>
    <i name="e_fr_energy">  -1949.05184423 </i>
    <i name="e_wo_entrp">  -1945.50685145 </i>
    <i name="e_0_energy">  -1947.27934784 </i>
   </energy>
  </scstep>
  <scstep>
   <time name="dav">   88.88   88.92</time>
   <time name="total">   88.89   88.93</time>
   <energy>
    <i name="e_fr_energy">  -2618.70679812 </i>
    <i name="e_wo_entrp">  -2615.16944942 </i>
    <i name="e_0_energy">  -2616.93812377 </i>
   </energy>
  </scstep>
  <scstep>
   <time name="dav">   84.85   84.89</time>
   <time name="total">   86.90   86.95</time>
   <energy>
    <i name="e_fr_energy">  -2738.46526299 </i>
    <i name="e_wo_entrp">  -2734.80100357 </i>
    <i name="e_0_energy">  -2736.63313328 </i>
   </energy>
  </scstep>
  <scstep>
   <time name="diag">    8.35    8.35</time>
   <time name="diis">   37.17   37.17</time>
   <time name="orth">    2.30    2.30</time>
   <time name="total">   49.97   50.01</time>
   <energy>
    <i name="e_fr_energy">  -5707.49007244 </i>
    <i name="e_wo_entrp">  -5704.92362525 </i>
    <i name="e_0_energy">  -5706.20684884 </i>
   </energy>
  </scstep>
  <scstep>
   <time name="diag">    8.25    8.25</time>
   <time name="diis">   23.46   23.46</time>
   <time name="orth">    2.30    2.30</time>
   <time name="total">   36.14   36.22</time>
[...]
       <r>     5.8726     0.0000  2772.0000 </r>
       <r>     5.9154     0.0000  2772.0000 </r>
       <r>     5.9583     0.0000  2772.0000 </r>
       <r>     6.0011     0.0000  2772.0000 </r>
       <r>     6.0439     0.0000  2772.0000 </r>
       <r>     6.0867     0.0000  2772.0000 </r>
       <r>     6.1296     0.0000  2772.0000 </r>
       <r>     6.1724     0.0000  2772.0000 </r>
       <r>     6.2152     0.0000  2772.0000 </r>
       <r>     6.2580     0.0000  2772.0000 </r>
       <r>     6.3009     0.0000  2772.0000 </r>
       <r>     6.3437     0.0000  2772.0000 </r>
       <r>     6.3865     0.0000  2772.0000 </r>
       <r>     6.4293     0.0000  2772.0000 </r>
       <r>     6.4721     0.0000  2772.0000 </r>
       <r>     6.5150     0.0000  2772.0000 </r>
       <r>     6.5578     0.0000  2772.0000 </r>
       <r>     6.6006     0.0000  2772.0000 </r>
       <r>     6.6434     0.0000  2772.0000 </r>
       <r>     6.6863     0.0000  2772.0000 </r>
       <r>     6.7291     0.0000  2772.0000 </r>
       <r>     6.7719     0.0000  2772.0000 </r>
       <r>     6.8147     0.0000  2772.0000 </r>
      </set>
     </set>
    </array>
   </total>
  </dos>
 </calculation>
 <structure name="finalpos" >
  <crystal>
   <varray name="basis" >
    <v>       9.72667804       0.00000000       0.00000000 </v>
    <v>       0.00000000       8.42355028       0.00000000 </v>
    <v>       0.00000000       0.00000000      45.00000000 </v>
   </varray>
   <i name="volume">   3686.99226691 </i>
   <varray name="rec_basis" >
    <v>       0.10281002       0.00000000       0.00000000 </v>
    <v>       0.00000000       0.11871479       0.00000000 </v>
    <v>       0.00000000       0.00000000       0.02222222 </v>
   </varray>
  </crystal>
  <varray name="positions" >
   <v>       0.06275737       0.03257792       0.12414972 </v>
   <v>       0.31441327       0.87484037       0.65506274 </v>
   <v>       0.18665130       0.12404567       0.78828333 </v>
   <v>       0.44091431       0.28779193       0.38905639 </v>
   <v>       0.31671928       0.71289810       0.83254481 </v>
   <v>       0.81575808       0.21295024       0.83265194 </v>
   <v>       0.19111147       0.96276433       0.83263368 </v>
   <v>       0.56137611       0.20676815       0.56586270 </v>
   <v>       0.06490659       0.04116395       0.74411326 </v>
   <v>       0.81048272       0.87155391       0.52241028 </v>
   <v>       0.19008066       0.29045359       0.74425372 </v>
   <v>       0.93538629       0.45297395       0.34483495 </v>
   <v>       0.94016404       0.28702099       0.38899712 </v>
   <v>       0.81196023       0.04461118       0.87502631 </v>
   <v>       0.18545404       0.78879585       0.61037020 </v>
   <v>       0.56535309       0.03812813       0.38909099 </v>
   <v>       0.94127169       0.96339243       0.83263142 </v>
   <v>       0.31436984       0.54409847       0.87521069 </v>
   <v>       0.68861418       0.29040916       0.74442382 </v>
   <v>       0.18388589       0.61511386       0.16619230 </v>
   <v>       0.81226202       0.20550629       0.47876362 </v>
   <v>       0.80980543       0.53868506       0.61035791 </v>
   <v>       0.31202087       0.87094539       0.43468422 </v>
   <v>       0.81100324       0.03751126       0.25609674 </v>
   <v>       0.68547916       0.95397799       0.34465840 </v>
   <v>       0.93318010       0.11542635       0.16637202 </v>
   <v>       0.06343245       0.87169652       0.52225767 </v>
   <v>       0.55919995       0.53794970       0.25572147 </v>
   <v>       0.68546776       0.79463680       0.87515467 </v>
   <v>       0.55676107       0.36660935       0.16606089 </v>
   <v>       0.43900220       0.79232911       0.74459706 </v>
   <v>       0.81123447       0.70607051       0.56588118 </v>
   <v>       0.55982163       0.87438063       0.78834554 </v>
   <v>       0.68526232       0.12230524       0.52236827 </v>
   <v>       0.81460025       0.37356100       0.65502402 </v>
   <v>       0.94077246       0.46296491       0.83275853 </v>
   <v>       0.06179365       0.20689159       0.69987380 </v>
   <v>       0.43561838       0.95795276       0.69992542 </v>
   <v>       0.31632883       0.21190543       0.83275684 </v>
   <v>       0.43931773       0.62405275       0.65491726 </v>
   <v>       0.31066059       0.53861024       0.61035780 </v>
   <v>       0.93676790       0.45624740       0.56600776 </v>
   <v>       0.68877420       0.79206324       0.74449706 </v>
   <v>       0.93576705       0.78453278       0.12449980 </v>
   <v>       0.69090173       0.78834454       0.38904212 </v>
   <v>       0.93933732       0.79185210       0.74429231 </v>
   <v>       0.06056251       0.20390084       0.34484410 </v>
   <v>       0.68577887       0.45282201       0.34477693 </v>
   <v>       0.43590214       0.12381696       0.78849191 </v>
   <v>       0.06488023       0.20326035       0.21183214 </v>
   <v>       0.05715740       0.36606611       0.16599696 </v>
   <v>       0.93549400       0.78757540       0.25607803 </v>
   <v>       0.56076529       0.20675350       0.69991903 </v>
   <v>       0.68615196       0.95800440       0.69998596 </v>
   <v>       0.80893105       0.87491558       0.78823573 </v>
   <v>       0.43687412       0.95667066       0.56580925 </v>
   <v>       0.80880915       0.37384042       0.78826487 </v>
   <v>       0.68544322       0.28742245       0.25626059 </v>
   <v>       0.18733512       0.45632883       0.56588200 </v>
   <v>       0.05862262       0.86648624       0.16618274 </v>
   <v>       0.18587055       0.28882466       0.61056700 </v>
   <v>       0.06210737       0.20683079       0.56589737 </v>
   <v>       0.31114089       0.20693375       0.69991239 </v>
   <v>       0.56292310       0.54440399       0.87515076 </v>
   <v>       0.06201927       0.70597180       0.56594271 </v>
   <v>       0.68342973       0.62419284       0.78835888 </v>
   <v>       0.31467874       0.53778922       0.38894450 </v>
   <v>       0.18873605       0.62235878       0.52221959 </v>
   <v>       0.56217393       0.87091956       0.43462743 </v>
   <v>       0.43699341       0.45653270       0.56581000 </v>
   <v>       0.43901679       0.29104594       0.74446413 </v>
   <v>       0.81798666       0.87330498       0.30046362 </v>
   <v>       0.81073376       0.70271477       0.34474099 </v>
   <v>       0.44148552       0.46140724       0.83264050 </v>
   <v>       0.68694446       0.95515211       0.47882535 </v>
   <v>       0.68577437       0.45666583       0.69990567 </v>
   <v>       0.56076308       0.87149797       0.52237859 </v>
   <v>       0.56416647       0.37351993       0.65488191 </v>
   <v>       0.81484455       0.87495873       0.65506683 </v>
   <v>       0.81251758       0.37084899       0.43432463 </v>
   <v>       0.80987102       0.53675464       0.25622537 </v>
   <v>       0.69050436       0.46148849       0.83260238 </v>
   <v>       0.18600344       0.78471295       0.12406806 </v>
   <v>       0.69091377       0.28746225       0.38894590 </v>
   <v>       0.31449144       0.37321826       0.65496344 </v>
   <v>       0.31074410       0.20383646       0.34462459 </v>
   <v>       0.81400069       0.54074526       0.74425636 </v>
   <v>       0.69054458       0.96204302       0.83262941 </v>
   <v>       0.56434100       0.87487846       0.65497073 </v>
   <v>       0.31229814       0.70653716       0.56577954 </v>
   <v>       0.31115855       0.53317955       0.12400971 </v>
   <v>       0.68828187       0.95418634       0.21214963 </v>
   <v>       0.31227640       0.20665889       0.56587292 </v>
   <v>       0.18815528       0.95490693       0.47879459 </v>
   <v>       0.68636479       0.95636013       0.56597147 </v>
   <v>       0.43506459       0.78885970       0.61030316 </v>
   <v>       0.68212328       0.61349620       0.16610902 </v>
   <v>       0.31701634       0.87331826       0.30042079 </v>
   <v>       0.31237169       0.70486541       0.47888203 </v>
   <v>       0.93527193       0.28857535       0.61032027 </v>
   <v>       0.44207855       0.62311307       0.30039204 </v>
   <v>       0.80753643       0.86489809       0.16641793 </v>
   <v>       0.56468628       0.20259150       0.21200915 </v>
   <v>       0.93392986       0.61346941       0.16626141 </v>
   <v>       0.43669768       0.95463440       0.47890719 </v>
   <v>       0.55969122       0.37293890       0.78838189 </v>
   <v>       0.06290516       0.37302176       0.52226984 </v>
   <v>       0.30755359       0.36526085       0.16598961 </v>
   <v>       0.69304887       0.12251460       0.30065846 </v>
   <v>       0.44198481       0.96199785       0.83258524 </v>
   <v>       0.18499513       0.28321829       0.12423627 </v>
   <v>       0.18548350       0.28647159       0.25611945 </v>
   <v>       0.31179219       0.37092203       0.43473177 </v>
   <v>       0.56077802       0.03361683       0.12421987 </v>
   <v>       0.43509742       0.28899980       0.61035702 </v>
   <v>       0.18605165       0.45376987       0.34473696 </v>
   <v>       0.43366209       0.28325283       0.12424549 </v>
   <v>       0.68453970       0.78781787       0.25627485 </v>
   <v>       0.43674760       0.12266443       0.52235973 </v>
   <v>       0.18948999       0.29363051       0.87542318 </v>
   <v>       0.19009068       0.12435542       0.65522288 </v>
   <v>       0.94008590       0.12426336       0.65514923 </v>
   <v>       0.81567149       0.53680797       0.38906142 </v>
   <v>       0.06535547       0.03859242       0.38920002 </v>
   <v>       0.18376795       0.11325933       0.16622852 </v>
   <v>       0.06050826       0.53851418       0.61038695 </v>
   <v>       0.93580810       0.28676315       0.25608074 </v>
   <v>       0.55957189       0.53879859       0.61026602 </v>
   <v>       0.93670008       0.95632646       0.56597945 </v>
   <v>       0.69204784       0.62305514       0.30063420 </v>
   <v>       0.93821730       0.62108402       0.43448042 </v>
   <v>       0.93428249       0.62547888       0.78822631 </v>
   <v>       0.56073218       0.70735662       0.69994375 </v>
   <v>       0.06553922       0.71484689       0.83282527 </v>
   <v>       0.94278748       0.12254991       0.30045318 </v>
   <v>       0.93514683       0.78851740       0.61040975 </v>
   <v>       0.43452397       0.78787866       0.25606865 </v>
   <v>       0.31188959       0.37321495       0.78826743 </v>
   <v>       0.43846876       0.45431126       0.21178646 </v>
   <v>       0.18839047       0.12229149       0.52227474 </v>
   <v>       0.81140438       0.70799093       0.69991668 </v>
   <v>       0.06052278       0.03897881       0.61041824 </v>
   <v>       0.56511441       0.21200196       0.83242158 </v>
   <v>       0.31278903       0.87136630       0.52226864 </v>
   <v>       0.68568552       0.28275427       0.12398894 </v>
   <v>       0.18970491       0.95475945       0.21211393 </v>
   <v>       0.68424136       0.28907817       0.61043376 </v>
   <v>       0.31040385       0.03914062       0.61046089 </v>
   <v>       0.93477462       0.12464084       0.78833189 </v>
   <v>       0.43770155       0.79437484       0.87528066 </v>
   <v>       0.81413429       0.04134216       0.74423146 </v>
   <v>       0.93664797       0.45680058       0.69980675 </v>
   <v>       0.18990099       0.62429408       0.65502850 </v>
   <v>       0.31095823       0.70748266       0.69993110 </v>
   <v>       0.93537458       0.28335249       0.12395572 </v>
   <v>       0.43680501       0.45574164       0.47903285 </v>
   <v>       0.06377552       0.70448931       0.47864540 </v>
   <v>       0.93783040       0.12091832       0.43463640 </v>
   <v>       0.44218293       0.12268937       0.30063972 </v>
   <v>       0.18735233       0.12080862       0.43443140 </v>
   <v>       0.56325121       0.04457309       0.87515356 </v>
   <v>       0.18729783       0.95655294       0.56594067 </v>
   <v>       0.68438404       0.78471511       0.12441010 </v>
   <v>       0.56051826       0.70298752       0.34469122 </v>
   <v>       0.31518556       0.03736736       0.38909771 </v>
   <v>       0.68326683       0.11446425       0.16633657 </v>
   <v>       0.81518806       0.20329651       0.21184965 </v>
   <v>       0.06077830       0.53707511       0.25595066 </v>
   <v>       0.56128951       0.70474005       0.47900899 </v>
   <v>       0.43388668       0.78440699       0.12401326 </v>
   <v>       0.56724083       0.37243744       0.30057606 </v>
   <v>       0.43563173       0.95364815       0.34476381 </v>
   <v>       0.18626348       0.95816978       0.69993467 </v>
   <v>       0.43277635       0.61453554       0.16603170 </v>
   <v>       0.93953888       0.45267699       0.21203022 </v>
   <v>       0.06202554       0.53202516       0.12410338 </v>
   <v>       0.81088863       0.37311216       0.52231498 </v>
   <v>       0.94282288       0.62336013       0.30036072 </v>
   <v>       0.31006149       0.03667383       0.25593085 </v>
   <v>       0.68460240       0.78868716       0.61026303 </v>
   <v>       0.19136708       0.46234102       0.83286282 </v>
   <v>       0.43291732       0.11266073       0.16635152 </v>
   <v>       0.31295633       0.37312259       0.52224262 </v>
   <v>       0.43561609       0.62401094       0.78851964 </v>
   <v>       0.06105196       0.03725243       0.25606746 </v>
   <v>       0.56146533       0.70625607       0.56581837 </v>
   <v>       0.93921952       0.29004518       0.74425484 </v>
   <v>       0.68335957       0.12393371       0.78832496 </v>
   <v>       0.18889698       0.45356557       0.21173535 </v>
   <v>       0.94048199       0.78789468       0.38918948 </v>
   <v>       0.68543064       0.29443915       0.87524509 </v>
   <v>       0.55620547       0.86453214       0.16613577 </v>
   <v>       0.43571575       0.45638337       0.69994345 </v>
   <v>       0.93594943       0.95315363       0.34473071 </v>
   <v>       0.68504425       0.62213933       0.52230082 </v>
   <v>       0.06512227       0.87477942       0.65508894 </v>
   <v>       0.06098734       0.87517527       0.78827576 </v>
   <v>       0.06532787       0.37360124       0.65505504 </v>
   <v>       0.68616340       0.45506382       0.47877143 </v>
   <v>       0.18535202       0.78766562       0.25613860 </v>
   <v>       0.43683899       0.12063195       0.43458256 </v>
   <v>       0.81271502       0.03406413       0.12412132 </v>
   <v>       0.93688067       0.62232534       0.52232578 </v>
   <v>       0.43925895       0.12440880       0.65501531 </v>
   <v>       0.81298309       0.53277204       0.12389573 </v>
   <v>       0.43612116       0.45376282       0.34473205 </v>
   <v>       0.81103899       0.20339065       0.34496000 </v>
   <v>       0.31100030       0.70292330       0.34463959 </v>
   <v>       0.68938334       0.12453487       0.65508589 </v>
   <v>       0.56721782       0.87288515       0.30053293 </v>
   <v>       0.06475805       0.54079371       0.74413480 </v>
   <v>       0.94029234       0.95496726       0.21195855 </v>
   <v>       0.81468517       0.70299023       0.21195085 </v>
   <v>       0.06779435       0.87289136       0.30052096 </v>
   <v>       0.19227760       0.12316101       0.30033399 </v>
   <v>       0.06138974       0.70272086       0.34470287 </v>
   <v>       0.80992124       0.03888714       0.61041043 </v>
   <v>       0.06292198       0.37106049       0.43437404 </v>
   <v>       0.31019493       0.53732154       0.25588514 </v>
   <v>       0.81716719       0.37267117       0.30053598 </v>
   <v>       0.56021912       0.03715133       0.25600040 </v>
   <v>       0.56524988       0.53682130       0.38884140 </v>
   <v>       0.06302012       0.20533740       0.47865942 </v>
   <v>       0.31230654       0.87423244       0.78817643 </v>
   <v>       0.93665661       0.95833394       0.69985474 </v>
   <v>       0.06776362       0.37320400       0.30044110 </v>
   <v>       0.68935202       0.62433513       0.65499990 </v>
   <v>       0.68585996       0.45655454       0.56584019 </v>
   <v>       0.43834407       0.95384513       0.21214229 </v>
   <v>       0.31266720       0.20568027       0.47892288 </v>
   <v>       0.81211959       0.54426158       0.87505380 </v>
   <v>       0.68840946       0.62069749       0.43458652 </v>
   <v>       0.81151873       0.20683772       0.69992177 </v>
   <v>       0.81218245       0.70482783       0.47873582 </v>
   <v>       0.81198407       0.87094763       0.43441252 </v>
   <v>       0.93788161       0.95495995       0.47875262 </v>
   <v>       0.56169045       0.20574929       0.47891913 </v>
   <v>       0.18689488       0.62072398       0.43469844 </v>
   <v>       0.31448604       0.04190162       0.74430522 </v>
   <v>       0.94018295       0.62471750       0.65493671 </v>
   <v>       0.56517545       0.71258748       0.83247727 </v>
   <v>       0.31774520       0.37243888       0.30051996 </v>
   <v>       0.31478441       0.54090098       0.74441166 </v>
   <v>       0.18862573       0.45573199       0.47870062 </v>
   <v>       0.31629491       0.04536672       0.87513174 </v>
   <v>       0.18646414       0.45686175       0.69983730 </v>
   <v>       0.56052730       0.37304182       0.52230694 </v>
   <v>       0.18947414       0.28761398       0.38906389 </v>
   <v>       0.31412211       0.20284062       0.21177169 </v>
   <v>       0.06667580       0.70371781       0.21179971 </v>
   <v>       0.56210931       0.37062107       0.43463259 </v>
   <v>       0.43668788       0.62222741       0.52209825 </v>
   <v>       0.81519690       0.71396088       0.83251383 </v>
   <v>       0.06107255       0.37408180       0.78823722 </v>
   <v>       0.43775769       0.29414312       0.87542920 </v>
   <v>       0.31079914       0.03310833       0.12393188 </v>
   <v>       0.68791711       0.12140932       0.43437265 </v>
   <v>       0.18602407       0.95290063       0.34476252 </v>
   <v>       0.06576624       0.21284558       0.83276668 </v>
   <v>       0.55977282       0.03929629       0.61039262 </v>
   <v>       0.68841944       0.45307640       0.21196551 </v>
   <v>       0.18962527       0.79219718       0.74428925 </v>
   <v>       0.19258419       0.62320946       0.30043407 </v>
   <v>       0.44034468       0.78787321       0.38907130 </v>
   <v>       0.43491720       0.28725836       0.25608492 </v>
   <v>       0.06471636       0.54394465       0.87521500 </v>
   <v>       0.56412083       0.04159664       0.74451287 </v>
   <v>       0.18907137       0.79343194       0.87534805 </v>
   <v>       0.93780506       0.45489667       0.47856471 </v>
   <v>       0.56372383       0.54112802       0.74441695 </v>
   <v>       0.81117772       0.20675677       0.56596739 </v>
   <v>       0.18709795       0.62440485       0.78825732 </v>
   <v>       0.06592983       0.53800320       0.38928432 </v>
   <v>       0.06177274       0.70820103       0.69981704 </v>
   <v>       0.56092101       0.20390583       0.34469092 </v>
   <v>       0.31410992       0.70399192       0.21237686 </v>
   <v>       0.30690517       0.86509020       0.16578325 </v>
   <v>       0.43572370       0.62144208       0.43481441 </v>
   <v>       0.81638432       0.03932281       0.38904351 </v>
   <v>       0.93593655       0.29461034       0.87542498 </v>
   <v>       0.93632700       0.79208600       0.87533756 </v>
   <v>       0.06545754       0.04408519       0.87535077 </v>
   <v>       0.56102309       0.53188785       0.12419054 </v>
   <v>       0.80693580       0.36580790       0.16571668 </v>
   <v>       0.06257756       0.87082923       0.43444568 </v>
   <v>       0.93707412       0.12261591       0.52234312 </v>
   <v>       0.19163682       0.78721235       0.38892836 </v>
   <v>       0.56487389       0.70386922       0.21229947 </v>
  </varray>
 </structure>
</modeling>
