 288 288   0   0
  0.1280206E+02  0.9726678E-09  0.8423550E-09  0.4500000E-08  0.2500000E-15
   1.0000000000000000E-004
  CAR 
 unknown system                          
      6.74643913     -6.07728005  301      4.31228800      1.00000000
     -6.077  0.0000E+00  0.0000E+00
     -6.035  0.0000E+00  0.0000E+00
     -5.992  0.0000E+00  0.0000E+00
     -5.949  0.0000E+00  0.0000E+00
     -5.906  0.0000E+00  0.0000E+00
     -5.864  0.0000E+00  0.0000E+00
     -5.821  0.0000E+00  0.0000E+00
     -5.778  0.0000E+00  0.0000E+00
     -5.735  0.0000E+00  0.0000E+00
     -5.693  0.0000E+00  0.0000E+00
     -5.650  0.0000E+00  0.0000E+00
     -5.607  0.0000E+00  0.0000E+00
     -5.564  0.0000E+00  0.0000E+00
     -5.522  0.0000E+00  0.0000E+00
     -5.479  0.0000E+00  0.0000E+00
     -5.436  0.1623E-17  0.6939E-19
     -5.393  0.3993E-16  0.1776E-17
     -5.351  0.8590E-15  0.3850E-16
     -5.308  0.1566E-13  0.7081E-15
     -5.265  0.2433E-12  0.1111E-13
     -5.222  0.3219E-11  0.1487E-12
     -5.180  0.3627E-10  0.1699E-11
     -5.137  0.3482E-09  0.1658E-10
     -5.094  0.2849E-08  0.1384E-09
     -5.051  0.1988E-07  0.9882E-09
     -5.009  0.1184E-06  0.6049E-08
     -4.966  0.6024E-06  0.3180E-07
     -4.923  0.2624E-05  0.1440E-06
     -4.880  0.9816E-05  0.5636E-06
     -4.838  0.3166E-04  0.1917E-05
     -4.795  0.8860E-04  0.5704E-05
     -4.752  0.2171E-03  0.1498E-04
     -4.709  0.4709E-03  0.3511E-04
     -4.667  0.9171E-03  0.7432E-04
     -4.624  0.1626E-02  0.1438E-03
     -4.581  0.2655E-02  0.2573E-03
     -4.538  0.4032E-02  0.4296E-03
     -4.496  0.5729E-02  0.6745E-03
     -4.453  0.7660E-02  0.1002E-02
     -4.410  0.9696E-02  0.1416E-02
     -4.367  0.1168E-01  0.1916E-02
     -4.325  0.1348E-01  0.2492E-02
     -4.282  0.1499E-01  0.3133E-02
     -4.239  0.1624E-01  0.3827E-02
     -4.196  0.1732E-01  0.4567E-02
     -4.154  0.1840E-01  0.5354E-02
     -4.111  0.1963E-01  0.6193E-02
     -4.068  0.2111E-01  0.7095E-02
     -4.025  0.2287E-01  0.8073E-02
     -3.983  0.2478E-01  0.9132E-02
     -3.940  0.2667E-01  0.1027E-01
     -3.897  0.2834E-01  0.1148E-01
     -3.855  0.2963E-01  0.1275E-01
     -3.812  0.3047E-01  0.1405E-01
     -3.769  0.3090E-01  0.1537E-01
     -3.726  0.3108E-01  0.1670E-01
     -3.684  0.3125E-01  0.1804E-01
     -3.641  0.3160E-01  0.1939E-01
     -3.598  0.3226E-01  0.2077E-01
     -3.555  0.3329E-01  0.2219E-01
     -3.513  0.3468E-01  0.2367E-01
     -3.470  0.3635E-01  0.2523E-01
     -3.427  0.3812E-01  0.2686E-01
     -3.384  0.3979E-01  0.2856E-01
     -3.342  0.4112E-01  0.3032E-01
     -3.299  0.4193E-01  0.3211E-01
     -3.256  0.4222E-01  0.3391E-01
     -3.213  0.4221E-01  0.3572E-01
     -3.171  0.4231E-01  0.3753E-01
     -3.128  0.4298E-01  0.3936E-01
     -3.085  0.4447E-01  0.4126E-01
     -3.042  0.4674E-01  0.4326E-01
     -3.000  0.4943E-01  0.4537E-01
     -2.957  0.5193E-01  0.4759E-01
     -2.914  0.5359E-01  0.4988E-01
     -2.871  0.5408E-01  0.5220E-01
     -2.829  0.5362E-01  0.5449E-01
     -2.786  0.5291E-01  0.5675E-01
     -2.743  0.5275E-01  0.5900E-01
     -2.700  0.5354E-01  0.6129E-01
     -2.658  0.5508E-01  0.6365E-01
     -2.615  0.5668E-01  0.6607E-01
     -2.572  0.5763E-01  0.6853E-01
     -2.529  0.5770E-01  0.7100E-01
     -2.487  0.5735E-01  0.7345E-01
     -2.444  0.5752E-01  0.7591E-01
     -2.401  0.5916E-01  0.7844E-01
     -2.358  0.6269E-01  0.8112E-01
     -2.316  0.6748E-01  0.8400E-01
     -2.273  0.7199E-01  0.8708E-01
     -2.230  0.7459E-01  0.9027E-01
     -2.187  0.7453E-01  0.9346E-01
     -2.145  0.7249E-01  0.9655E-01
     -2.102  0.7020E-01  0.9956E-01
     -2.059  0.6948E-01  0.1025E+00
     -2.016  0.7135E-01  0.1056E+00
     -1.974  0.7559E-01  0.1088E+00
     -1.931  0.8088E-01  0.1123E+00
     -1.888  0.8543E-01  0.1159E+00
     -1.845  0.8797E-01  0.1197E+00
     -1.803  0.8840E-01  0.1235E+00
     -1.760  0.8768E-01  0.1272E+00
     -1.717  0.8711E-01  0.1309E+00
     -1.674  0.8752E-01  0.1347E+00
     -1.632  0.8901E-01  0.1385E+00
     -1.589  0.9122E-01  0.1424E+00
     -1.546  0.9383E-01  0.1464E+00
     -1.503  0.9667E-01  0.1505E+00
     -1.461  0.9970E-01  0.1548E+00
     -1.418  0.1027E+00  0.1592E+00
     -1.375  0.1054E+00  0.1637E+00
     -1.333  0.1075E+00  0.1683E+00
     -1.290  0.1097E+00  0.1730E+00
     -1.247  0.1130E+00  0.1778E+00
     -1.204  0.1190E+00  0.1829E+00
     -1.162  0.1279E+00  0.1883E+00
     -1.119  0.1383E+00  0.1943E+00
     -1.076  0.1475E+00  0.2006E+00
     -1.033  0.1534E+00  0.2071E+00
     -0.991  0.1561E+00  0.2138E+00
     -0.948  0.1579E+00  0.2205E+00
     -0.905  0.1627E+00  0.2275E+00
     -0.862  0.1731E+00  0.2349E+00
     -0.820  0.1900E+00  0.2430E+00
     -0.777  0.2126E+00  0.2521E+00
     -0.734  0.2400E+00  0.2624E+00
     -0.691  0.2723E+00  0.2740E+00
     -0.649  0.3099E+00  0.2872E+00
     -0.606  0.3521E+00  0.3023E+00
     -0.563  0.3959E+00  0.3192E+00
     -0.520  0.4371E+00  0.3379E+00
     -0.478  0.4718E+00  0.3581E+00
     -0.435  0.4986E+00  0.3794E+00
     -0.392  0.5183E+00  0.4015E+00
     -0.349  0.5335E+00  0.4243E+00
     -0.307  0.5466E+00  0.4477E+00
     -0.264  0.5584E+00  0.4716E+00
     -0.221  0.5679E+00  0.4958E+00
     -0.178  0.5739E+00  0.5204E+00
     -0.136  0.5764E+00  0.5450E+00
     -0.093  0.5769E+00  0.5697E+00
     -0.050  0.5783E+00  0.5944E+00
     -0.007  0.5833E+00  0.6193E+00
      0.035  0.5941E+00  0.6447E+00
      0.078  0.6120E+00  0.6709E+00
      0.121  0.6376E+00  0.6981E+00
      0.164  0.6694E+00  0.7268E+00
      0.206  0.7042E+00  0.7569E+00
      0.249  0.7382E+00  0.7884E+00
      0.292  0.7686E+00  0.8213E+00
      0.335  0.7943E+00  0.8552E+00
      0.377  0.8154E+00  0.8901E+00
      0.420  0.8327E+00  0.9257E+00
      0.463  0.8464E+00  0.9619E+00
      0.506  0.8559E+00  0.9984E+00
      0.548  0.8606E+00  0.1035E+01
      0.591  0.8602E+00  0.1072E+01
      0.634  0.8554E+00  0.1109E+01
      0.677  0.8468E+00  0.1145E+01
      0.719  0.8344E+00  0.1180E+01
      0.762  0.8183E+00  0.1215E+01
      0.805  0.8001E+00  0.1250E+01
      0.848  0.7828E+00  0.1283E+01
      0.890  0.7696E+00  0.1316E+01
      0.933  0.7618E+00  0.1349E+01
      0.976  0.7584E+00  0.1381E+01
      1.019  0.7563E+00  0.1413E+01
      1.061  0.7520E+00  0.1445E+01
      1.104  0.7439E+00  0.1477E+01
      1.147  0.7335E+00  0.1509E+01
      1.189  0.7250E+00  0.1540E+01
      1.232  0.7225E+00  0.1570E+01
      1.275  0.7265E+00  0.1602E+01
      1.318  0.7326E+00  0.1633E+01
      1.360  0.7342E+00  0.1664E+01
      1.403  0.7268E+00  0.1695E+01
      1.446  0.7112E+00  0.1726E+01
      1.489  0.6930E+00  0.1755E+01
      1.531  0.6790E+00  0.1784E+01
      1.574  0.6743E+00  0.1813E+01
      1.617  0.6802E+00  0.1842E+01
      1.660  0.6954E+00  0.1872E+01
      1.702  0.7168E+00  0.1903E+01
      1.745  0.7411E+00  0.1934E+01
      1.788  0.7657E+00  0.1967E+01
      1.831  0.7887E+00  0.2001E+01
      1.873  0.8088E+00  0.2035E+01
      1.916  0.8258E+00  0.2071E+01
      1.959  0.8404E+00  0.2107E+01
      2.002  0.8546E+00  0.2143E+01
      2.044  0.8697E+00  0.2180E+01
      2.087  0.8862E+00  0.2218E+01
      2.130  0.9037E+00  0.2257E+01
      2.173  0.9214E+00  0.2296E+01
      2.215  0.9390E+00  0.2336E+01
      2.258  0.9573E+00  0.2377E+01
      2.301  0.9787E+00  0.2419E+01
      2.344  0.1006E+01  0.2462E+01
      2.386  0.1041E+01  0.2506E+01
      2.429  0.1082E+01  0.2553E+01
      2.472  0.1127E+01  0.2601E+01
      2.515  0.1172E+01  0.2651E+01
      2.557  0.1212E+01  0.2703E+01
      2.600  0.1245E+01  0.2756E+01
      2.643  0.1269E+01  0.2810E+01
      2.686  0.1283E+01  0.2865E+01
      2.728  0.1291E+01  0.2920E+01
      2.771  0.1297E+01  0.2976E+01
      2.814  0.1309E+01  0.3032E+01
      2.857  0.1331E+01  0.3089E+01
      2.899  0.1364E+01  0.3147E+01
      2.942  0.1399E+01  0.3207E+01
      2.985  0.1421E+01  0.3268E+01
      3.028  0.1410E+01  0.3328E+01
      3.070  0.1360E+01  0.3386E+01
      3.113  0.1277E+01  0.3441E+01
      3.156  0.1177E+01  0.3491E+01
      3.199  0.1082E+01  0.3537E+01
      3.241  0.1005E+01  0.3580E+01
      3.284  0.9500E+00  0.3621E+01
      3.327  0.9168E+00  0.3660E+01
      3.370  0.9005E+00  0.3698E+01
      3.412  0.8952E+00  0.3737E+01
      3.455  0.8938E+00  0.3775E+01
      3.498  0.8897E+00  0.3813E+01
      3.541  0.8785E+00  0.3850E+01
      3.583  0.8609E+00  0.3887E+01
      3.626  0.8430E+00  0.3923E+01
      3.669  0.8328E+00  0.3959E+01
      3.711  0.8357E+00  0.3995E+01
      3.754  0.8515E+00  0.4031E+01
      3.797  0.8757E+00  0.4068E+01
      3.840  0.9027E+00  0.4107E+01
      3.882  0.9289E+00  0.4147E+01
      3.925  0.9533E+00  0.4187E+01
      3.968  0.9761E+00  0.4229E+01
      4.011  0.9973E+00  0.4272E+01
      4.053  0.1015E+01  0.4315E+01
      4.096  0.1028E+01  0.4359E+01
      4.139  0.1033E+01  0.4403E+01
      4.182  0.1029E+01  0.4447E+01
      4.224  0.1017E+01  0.4491E+01
      4.267  0.1001E+01  0.4534E+01
      4.310  0.9869E+00  0.4576E+01
      4.353  0.9778E+00  0.4617E+01
      4.395  0.9760E+00  0.4659E+01
      4.438  0.9805E+00  0.4701E+01
      4.481  0.9877E+00  0.4743E+01
      4.524  0.9933E+00  0.4786E+01
      4.566  0.9940E+00  0.4828E+01
      4.609  0.9896E+00  0.4871E+01
      4.652  0.9832E+00  0.4913E+01
      4.695  0.9799E+00  0.4955E+01
      4.737  0.9841E+00  0.4997E+01
      4.780  0.9978E+00  0.5039E+01
      4.823  0.1020E+01  0.5083E+01
      4.866  0.1047E+01  0.5128E+01
      4.908  0.1076E+01  0.5174E+01
      4.951  0.1104E+01  0.5221E+01
      4.994  0.1123E+01  0.5269E+01
      5.037  0.1121E+01  0.5317E+01
      5.079  0.1082E+01  0.5363E+01
      5.122  0.9948E+00  0.5405E+01
      5.165  0.8556E+00  0.5442E+01
      5.208  0.6781E+00  0.5471E+01
      5.250  0.4886E+00  0.5492E+01
      5.293  0.3165E+00  0.5505E+01
      5.336  0.1827E+00  0.5513E+01
      5.379  0.9336E-01  0.5517E+01
      5.421  0.4198E-01  0.5519E+01
      5.464  0.1654E-01  0.5520E+01
      5.507  0.5689E-02  0.5520E+01
      5.550  0.1704E-02  0.5520E+01
      5.592  0.4431E-03  0.5520E+01
      5.635  0.9988E-04  0.5520E+01
      5.678  0.1948E-04  0.5520E+01
      5.721  0.3281E-05  0.5520E+01
      5.763  0.4768E-06  0.5520E+01
      5.806  0.5970E-07  0.5520E+01
      5.849  0.6432E-08  0.5520E+01
      5.892  0.5957E-09  0.5520E+01
      5.934  0.4739E-10  0.5520E+01
      5.977  0.3235E-11  0.5520E+01
      6.020  0.1893E-12  0.5520E+01
      6.063  0.9489E-14  0.5520E+01
      6.105  0.3967E-15  0.5520E+01
      6.148  0.9090E-17  0.5520E+01
      6.191  0.0000E+00  0.5520E+01
      6.233  0.0000E+00  0.5520E+01
      6.276  0.0000E+00  0.5520E+01
      6.319  0.0000E+00  0.5520E+01
      6.362  0.0000E+00  0.5520E+01
      6.404  0.0000E+00  0.5520E+01
      6.447  0.0000E+00  0.5520E+01
      6.490  0.0000E+00  0.5520E+01
      6.533  0.0000E+00  0.5520E+01
      6.575  0.0000E+00  0.5520E+01
      6.618  0.0000E+00  0.5520E+01
      6.661  0.0000E+00  0.5520E+01
      6.704  0.0000E+00  0.5520E+01
      6.746  0.0000E+00  0.5520E+01
