unknown system                          
            1
     9.726678    0.000000    0.000000
     0.000000    8.423550    0.000000
     0.000000    0.000000   45.000000
   Fe   Mn
 273  15
Direct configuration=     1
   0.43737135  0.28784974  0.39030330
   0.06282617  0.54196737  0.87339496
   0.93740687  0.79168834  0.87337014
   0.31247828  0.70629112  0.56507189
   0.06237249  0.20902146  0.83134275
   0.43747351  0.95409263  0.34644069
   0.68753403  0.45332048  0.34641350
   0.31236500  0.20535060  0.47862341
   0.18780645  0.95366793  0.34638785
   0.81231153  0.03760410  0.39035507
   0.56253357  0.53766259  0.39023097
   0.81279987  0.70545244  0.47868237
   0.06247378  0.37245293  0.52135004
   0.31260885  0.37150358  0.43488010
   0.81252894  0.20342858  0.34642390
   0.43700686  0.61974914  0.30190447
   0.06261592  0.87158775  0.43490581
   0.31315757  0.53657476  0.12647698
   0.56214998  0.37237519  0.52138221
   0.31256953  0.70896779  0.83127738
   0.06227033  0.70282391  0.21355763
   0.68756177  0.45840503  0.69814630
   0.18752842  0.62155808  0.43492449
   0.56216187  0.70619810  0.56512200
   0.18743181  0.95536462  0.47861119
   0.93804447  0.29207949  0.74226970
   0.56240284  0.03605778  0.25773959
   0.68753074  0.12242234  0.52136741
   0.06240265  0.03625351  0.25778664
   0.81203735  0.86981435  0.30198637
   0.68750885  0.95507002  0.47865917
   0.81203864  0.53599643  0.25772107
   0.93756197  0.95616009  0.56507566
   0.31212377  0.70269132  0.21354189
   0.43761722  0.12550158  0.78641696
   0.56235298  0.54162956  0.87335094
   0.18755189  0.12152848  0.43495079
   0.43695958  0.78591781  0.12655751
   0.81312536  0.04085221  0.87338302
   0.06317683  0.20755439  0.69804129
   0.56297317  0.70314217  0.21366401
   0.31260085  0.86853779  0.16886144
   0.18759955  0.95812165  0.83118675
   0.56236678  0.04021114  0.60970214
   0.93773856  0.45350376  0.34642647
   0.06234703  0.70530064  0.47861480
   0.93775601  0.11981581  0.30198506
   0.06264352  0.70354800  0.34641590
   0.56271301  0.53993529  0.60970237
   0.31266235  0.87245291  0.52134775
   0.18747857  0.62535882  0.78640622
   0.43768255  0.45529041  0.47863495
   0.81252847  0.54138621  0.74219721
   0.93748495  0.95523077  0.47864444
   0.93774520  0.95292617  0.21346894
   0.93747954  0.78745883  0.39033528
   0.68731774  0.12487617  0.78639492
   0.06259776  0.04017529  0.60968906
   0.31247568  0.20812749  0.69804908
   0.81266417  0.70375456  0.34639106
   0.93768273  0.28664116  0.25777783
   0.31235075  0.87162132  0.43485110
   0.68747353  0.95813102  0.83126593
   0.18751005  0.11999963  0.16877215
   0.81253059  0.20617428  0.56513376
   0.31247436  0.53993113  0.60981176
   0.56222992  0.87494820  0.78634814
   0.56222559  0.37508380  0.78652522
   0.18755420  0.28750856  0.39028261
   0.68746438  0.62171409  0.43510472
   0.43766973  0.62560564  0.78642020
   0.81257039  0.20525265  0.47866443
   0.93762404  0.79152142  0.74219528
   0.68765390  0.28589762  0.25766448
   0.18749610  0.11945693  0.30191753
   0.56207693  0.20825025  0.83132555
   0.81272500  0.37028243  0.30187653
   0.18732816  0.45373119  0.34635598
   0.93793266  0.62216214  0.52136149
   0.31274859  0.37008164  0.30189892
   0.18760231  0.95281548  0.21357087
   0.81268619  0.70613581  0.56509488
   0.81265055  0.37155552  0.43482634
   0.31245234  0.20637090  0.56512538
   0.31266432  0.87418198  0.65360296
   0.18829927  0.78640138  0.12663164
   0.18748104  0.12488920  0.78639418
   0.06241633  0.37162148  0.43489115
   0.18785265  0.62009142  0.30195596
   0.18747338  0.12252348  0.52137953
   0.18755548  0.62251186  0.52132282
   0.43720391  0.12240298  0.52137007
   0.43755707  0.95217419  0.21349881
   0.43706037  0.12041636  0.30191303
   0.06217668  0.54136388  0.74225905
   0.06255529  0.20337423  0.34640510
   0.56294194  0.54182793  0.74229405
   0.18723003  0.62407027  0.65363738
   0.56276869  0.86930051  0.16873934
   0.31213253  0.03647429  0.12667655
   0.81248267  0.87465005  0.78649758
   0.06261494  0.70632571  0.56508300
   0.18803646  0.28519158  0.12662294
   0.81233646  0.87288257  0.52134423
   0.81260369  0.70240347  0.21352279
   0.56256299  0.70377754  0.34633698
   0.31247057  0.20395093  0.34638328
   0.43747451  0.79231082  0.87356093
   0.18754916  0.45626568  0.56505881
   0.93777383  0.78579153  0.25765264
   0.31309606  0.20844407  0.83112657
   0.93722417  0.45645086  0.56517868
   0.81261766  0.04197109  0.74236519
   0.68736308  0.78728547  0.39035724
   0.81221032  0.20272665  0.21355182
   0.31234500  0.20227359  0.21351523
   0.18747736  0.79168628  0.74225551
   0.93748021  0.12499726  0.78651119
   0.93750698  0.12382580  0.65361412
   0.81260182  0.20891278  0.83128206
   0.18765447  0.61966048  0.16867357
   0.31206399  0.87501501  0.78631520
   0.68763735  0.78648423  0.12648004
   0.43721674  0.79029607  0.60979088
   0.56204826  0.04134176  0.87353973
   0.56251216  0.87274982  0.52139668
   0.68748918  0.45482264  0.47871460
   0.31302393  0.53578659  0.25775478
   0.06253296  0.20644538  0.56511610
   0.31245725  0.37436673  0.65366460
   0.56165849  0.36990008  0.16879432
   0.06298216  0.87513338  0.78643965
   0.68721925  0.79007719  0.60976242
   0.81248025  0.70832770  0.69802403
   0.56240930  0.20610260  0.56508784
   0.56292202  0.03634007  0.12666261
   0.68721489  0.95804283  0.69816177
   0.18692022  0.45844760  0.83115459
   0.06228775  0.03598224  0.12659556
   0.56268365  0.20243549  0.21353295
   0.18734872  0.45835959  0.69810461
   0.06237027  0.87387383  0.65360022
   0.31230074  0.70807689  0.69810716
   0.43746363  0.78755646  0.39025118
   0.93727688  0.45533538  0.47865144
   0.68695626  0.28570811  0.12671360
   0.06245561  0.87256370  0.52134813
   0.43736524  0.12153821  0.43486990
   0.56248578  0.36959376  0.30190017
   0.68735762  0.12441315  0.65356508
   0.43737532  0.62413581  0.65358883
   0.93762693  0.62144455  0.43482127
   0.31244528  0.37496628  0.78638409
   0.56249433  0.70911629  0.83123737
   0.31212185  0.54180058  0.87331570
   0.31253899  0.70394648  0.34639153
   0.81245890  0.87409168  0.65376310
   0.06275243  0.36940510  0.16867198
   0.18728224  0.95626955  0.56515587
   0.68666937  0.45305729  0.21346238
   0.68748532  0.12143614  0.43489998
   0.56254329  0.87049023  0.30196736
   0.68755787  0.62415138  0.65360797
   0.18828329  0.45260716  0.21358753
   0.56230370  0.37151699  0.43479902
   0.56218545  0.70545539  0.47868603
   0.06245761  0.54048127  0.60978830
   0.68688850  0.62006246  0.30195205
   0.06254652  0.70821107  0.83114533
   0.43759801  0.45377520  0.34635672
   0.93753073  0.28733662  0.39043121
   0.43738279  0.45214647  0.21362408
   0.56285844  0.04164630  0.74214090
   0.31240240  0.04047924  0.60973953
   0.93762921  0.62390118  0.65360175
   0.43778108  0.95778155  0.69806560
   0.31291809  0.04152281  0.87345854
   0.93772981  0.12249577  0.52131481
   0.43756165  0.29012057  0.60978895
   0.68753333  0.28773343  0.39025511
   0.93751063  0.45762430  0.69814069
   0.43712496  0.29172734  0.74222130
   0.18757867  0.29251229  0.87329134
   0.68787256  0.11913961  0.16866730
   0.93752887  0.29169963  0.87344459
   0.68738487  0.45603342  0.56508001
   0.06181407  0.04126959  0.87328359
   0.31325573  0.36949840  0.16879445
   0.06246845  0.37013844  0.30196912
   0.18759634  0.78780998  0.39034198
   0.06177161  0.53590909  0.12660444
   0.81239342  0.87180299  0.43485649
   0.93747449  0.61897321  0.16855282
   0.31273239  0.03780939  0.39029738
   0.56197108  0.53577263  0.12650767
   0.68719558  0.28980419  0.60982836
   0.43709301  0.62214049  0.52138214
   0.93747413  0.62511987  0.78645487
   0.81265680  0.04022856  0.60972783
   0.93700782  0.78716404  0.12638570
   0.43751851  0.95525366  0.47863873
   0.93749030  0.12172374  0.43489322
   0.56239692  0.53621471  0.25775850
   0.56249808  0.37422046  0.65368465
   0.81232188  0.03586862  0.25781896
   0.06244510  0.37382504  0.65366423
   0.43743565  0.11939509  0.16881547
   0.68752736  0.29250730  0.87339099
   0.68760887  0.79189535  0.87336217
   0.31254031  0.53768022  0.39026310
   0.93722984  0.45832707  0.83124962
   0.68834375  0.61989420  0.16878052
   0.93779659  0.28681053  0.12654578
   0.68682835  0.95310605  0.21360239
   0.43747996  0.45838864  0.69811224
   0.31252687  0.54153427  0.74223571
   0.06255967  0.20318818  0.21355692
   0.18780100  0.29032087  0.60975030
   0.18752376  0.12399552  0.65369406
   0.93730272  0.95813915  0.69814111
   0.43731404  0.28579571  0.25775870
   0.81261297  0.54149514  0.87346157
   0.43731065  0.28650463  0.12659854
   0.68736004  0.29201007  0.74230305
   0.06206684  0.04204949  0.74223612
   0.43732090  0.62135113  0.43478965
   0.18760750  0.79200581  0.87337819
   0.31261022  0.37235379  0.52136011
   0.56245789  0.03768220  0.39033052
   0.06235813  0.87050583  0.16871971
   0.18754604  0.29170773  0.74224741
   0.18771801  0.79020631  0.60974284
   0.81306933  0.36929962  0.16866099
   0.43780674  0.45883782  0.83114260
   0.06247310  0.53740986  0.39036377
   0.56242897  0.87403830  0.65358741
   0.43751796  0.95619449  0.56515300
   0.43712593  0.79187328  0.74219445
   0.93746426  0.11891413  0.16883575
   0.31274723  0.87006903  0.30195166
   0.06271457  0.70802858  0.69808764
   0.31263533  0.70530497  0.47862595
   0.18752773  0.45524121  0.47869295
   0.81229250  0.54063583  0.60965486
   0.18756119  0.78612204  0.25774283
   0.68756642  0.95369990  0.34640453
   0.81252876  0.37391019  0.65370694
   0.06286443  0.37530588  0.78646652
   0.93752335  0.95388086  0.34641009
   0.56240864  0.20384717  0.34638096
   0.68819970  0.45819032  0.83141028
   0.56183097  0.20806259  0.69804291
   0.06243161  0.03744540  0.39022130
   0.81324627  0.53651867  0.12657841
   0.56241418  0.20525675  0.47867315
   0.68758743  0.95588056  0.56510602
   0.68721511  0.62496195  0.78648290
   0.06259370  0.20529296  0.47866727
   0.81267334  0.03595480  0.12637104
   0.18759859  0.28621907  0.25776992
   0.56235948  0.70803069  0.69804923
   0.81265525  0.70835888  0.83111206
   0.93741551  0.29022425  0.60975761
   0.31271596  0.03616306  0.25780087
   0.18756960  0.95793782  0.69820570
   0.81279182  0.37238733  0.52137383
   0.43739385  0.29150895  0.87334546
   0.43750095  0.12414389  0.65367844
   0.43725861  0.78601715  0.25781769
   0.56263367  0.87163856  0.43478457
   0.43774063  0.45629096  0.56516258
   0.93769625  0.95889463  0.83128608
   0.81248941  0.53750114  0.39031445
   0.06307233  0.86979241  0.30179200
   0.81249630  0.37478047  0.78622377
   0.68788173  0.78662289  0.25786330
   0.68741398  0.62248709  0.52121842
   0.93646565  0.61930917  0.30199652
   0.81239547  0.20820963  0.69812055
   0.06312020  0.53627957  0.25763736
   0.43737170  0.95875640  0.83190033
   0.93769558  0.79045576  0.60992109
   0.43730890  0.61900031  0.16818290
   0.31249168  0.04172150  0.74225162
   0.93721889  0.45294438  0.21353808
   0.81268743  0.86991770  0.16809289
   0.68742429  0.79138719  0.74232859
   0.68703537  0.11954473  0.30186269
Direct configuration=     2
   0.43736889  0.28785017  0.39030294
   0.06283524  0.54196572  0.87339804
   0.93739855  0.79167268  0.87337368
   0.31248558  0.70627755  0.56507510
   0.06237540  0.20903266  0.83133990
   0.43747291  0.95411107  0.34644058
   0.68753335  0.45332638  0.34641336
   0.31238400  0.20535069  0.47862932
   0.18780016  0.95367449  0.34638679
   0.81231368  0.03759955  0.39035646
   0.56253820  0.53766326  0.39022995
   0.81281564  0.70545925  0.47868715
   0.06244226  0.37244236  0.52135237
   0.31260398  0.37150264  0.43487793
   0.81252595  0.20344025  0.34642030
   0.43700772  0.61976299  0.30190176
   0.06260924  0.87158548  0.43490695
   0.31317050  0.53656820  0.12647642
   0.56215474  0.37236577  0.52138101
   0.31255679  0.70894228  0.83127702
   0.06227166  0.70281931  0.21356046
   0.68755296  0.45838621  0.69814670
   0.18752624  0.62154732  0.43492513
   0.56218113  0.70619132  0.56512215
   0.18744885  0.95531665  0.47862007
   0.93804061  0.29205871  0.74227022
   0.56239402  0.03605751  0.25773980
   0.68751949  0.12243774  0.52136574
   0.06239097  0.03627460  0.25778648
   0.81205608  0.86980086  0.30199047
   0.68748656  0.95509268  0.47865673
   0.81204775  0.53600916  0.25772126
   0.93756196  0.95615574  0.56507609
   0.31212505  0.70269435  0.21354521
   0.43761686  0.12550319  0.78641504
   0.56235436  0.54162419  0.87335642
   0.18754344  0.12153215  0.43494704
   0.43694794  0.78589542  0.12655373
   0.81312485  0.04085545  0.87338587
   0.06315374  0.20754198  0.69804196
   0.56297665  0.70315337  0.21366370
   0.31260395  0.86855262  0.16886193
   0.18760341  0.95813377  0.83118365
   0.56236982  0.04021365  0.60970232
   0.93773483  0.45351098  0.34642468
   0.06238556  0.70531963  0.47861994
   0.93775022  0.11981596  0.30198548
   0.06263925  0.70357126  0.34641315
   0.56271324  0.53994082  0.60970090
   0.31264224  0.87246927  0.52134063
   0.18748112  0.62535233  0.78640878
   0.43767476  0.45532805  0.47863773
   0.81254024  0.54135934  0.74219892
   0.93749076  0.95520913  0.47864622
   0.93774168  0.95295191  0.21346951
   0.93747377  0.78745391  0.39033411
   0.68733264  0.12486743  0.78639111
   0.06259562  0.04018978  0.60968779
   0.31248048  0.20811713  0.69805117
   0.81266301  0.70375953  0.34638702
   0.93768939  0.28666348  0.25777778
   0.31235161  0.87160226  0.43485098
   0.68748089  0.95812983  0.83126209
   0.18750541  0.12001682  0.16877340
   0.81253352  0.20617631  0.56513252
   0.31247365  0.53993092  0.60981230
   0.56223884  0.87493844  0.78634618
   0.56223557  0.37509243  0.78652515
   0.18754866  0.28751268  0.39028458
   0.68746192  0.62170788  0.43510159
   0.43767001  0.62559437  0.78642215
   0.81253472  0.20527225  0.47866349
   0.93760955  0.79151153  0.74219546
   0.68764818  0.28591997  0.25766692
   0.18747976  0.11946531  0.30191641
   0.56207113  0.20826471  0.83132047
   0.81271521  0.37028577  0.30187531
   0.18732560  0.45374530  0.34635377
   0.93790040  0.62215276  0.52136022
   0.31274575  0.37009007  0.30189967
   0.18759908  0.95282072  0.21356798
   0.81267068  0.70613567  0.56509219
   0.81265531  0.37152964  0.43482541
   0.31244828  0.20637896  0.56512667
   0.31266431  0.87416849  0.65360426
   0.18830337  0.78640331  0.12662814
   0.18748189  0.12489694  0.78639488
   0.06241132  0.37160836  0.43488855
   0.18784619  0.62008611  0.30195783
   0.18749391  0.12251741  0.52137898
   0.18754272  0.62252301  0.52131690
   0.43719235  0.12240116  0.52136862
   0.43755169  0.95217760  0.21349354
   0.43708387  0.12040801  0.30191037
   0.06217961  0.54135223  0.74225749
   0.06255296  0.20339766  0.34640165
   0.56292176  0.54181326  0.74229228
   0.18723640  0.62407531  0.65363881
   0.56277344  0.86932042  0.16874281
   0.31212938  0.03647828  0.12667541
   0.81248186  0.87464306  0.78649436
   0.06260757  0.70632582  0.56508447
   0.18804350  0.28519078  0.12661983
   0.81236298  0.87285544  0.52134408
   0.81261028  0.70242370  0.21352499
   0.56256690  0.70378584  0.34633500
   0.31247667  0.20396714  0.34638315
   0.43747144  0.79229899  0.87356473
   0.18755387  0.45626203  0.56506096
   0.93775297  0.78583031  0.25765264
   0.31308511  0.20846196  0.83112458
   0.93722036  0.45646637  0.56517706
   0.81260942  0.04195502  0.74236436
   0.68736745  0.78728395  0.39035829
   0.81220502  0.20273415  0.21354983
   0.31234739  0.20228101  0.21350833
   0.18747294  0.79169589  0.74225394
   0.93747098  0.12500599  0.78650829
   0.93750247  0.12381318  0.65361249
   0.81261063  0.20891496  0.83128050
   0.18766368  0.61963909  0.16867322
   0.31205806  0.87502243  0.78631281
   0.68764626  0.78648495  0.12647367
   0.43722852  0.79028802  0.60979086
   0.56203774  0.04134549  0.87354347
   0.56250971  0.87274558  0.52139381
   0.68747660  0.45482438  0.47871637
   0.31302441  0.53582486  0.25775624
   0.06253149  0.20644592  0.56511744
   0.31246112  0.37435887  0.65366367
   0.56166228  0.36987480  0.16879590
   0.06297172  0.87513697  0.78643805
   0.68721787  0.79007472  0.60976098
   0.81248233  0.70831921  0.69802147
   0.56241210  0.20610498  0.56508714
   0.56291981  0.03635069  0.12665871
   0.68721803  0.95804172  0.69816390
   0.18692695  0.45844077  0.83115513
   0.06229340  0.03598808  0.12659640
   0.56268078  0.20242517  0.21352841
   0.18735043  0.45834022  0.69810712
   0.06237698  0.87386724  0.65360125
   0.31230622  0.70807057  0.69811240
   0.43747235  0.78756859  0.39025521
   0.93729374  0.45537023  0.47865506
   0.68694877  0.28570291  0.12670932
   0.06245278  0.87255393  0.52134209
   0.43737435  0.12153146  0.43486795
   0.56248996  0.36959659  0.30189859
   0.68736700  0.12440751  0.65356736
   0.43737667  0.62413047  0.65359131
   0.93762349  0.62142841  0.43481994
   0.31244391  0.37496151  0.78638759
   0.56249919  0.70909741  0.83123312
   0.31211750  0.54181205  0.87331939
   0.31253463  0.70396506  0.34639086
   0.81245348  0.87410180  0.65376544
   0.06275108  0.36938485  0.16867180
   0.18728486  0.95627958  0.56515593
   0.68668817  0.45305197  0.21345897
   0.68749974  0.12142602  0.43490247
   0.56254328  0.87048690  0.30196927
   0.68754712  0.62414256  0.65361041
   0.18824776  0.45260245  0.21358646
   0.56230719  0.37150939  0.43480168
   0.56215695  0.70546002  0.47868815
   0.06245832  0.54047023  0.60978861
   0.68690713  0.62005688  0.30195237
   0.06254768  0.70819898  0.83114440
   0.43759705  0.45377854  0.34635747
   0.93753435  0.28733731  0.39043009
   0.43738229  0.45214880  0.21362361
   0.56285619  0.04163371  0.74214149
   0.31240312  0.04047485  0.60973916
   0.93763023  0.62388668  0.65360273
   0.43778355  0.95776789  0.69806681
   0.31293681  0.04152359  0.87346496
   0.93773883  0.12249665  0.52131721
   0.43755273  0.29011552  0.60978734
   0.68753264  0.28773346  0.39025593
   0.93751908  0.45761364  0.69814189
   0.43711455  0.29171778  0.74221970
   0.18757375  0.29253116  0.87329402
   0.68786296  0.11914163  0.16867184
   0.93752665  0.29171248  0.87344874
   0.68738786  0.45605492  0.56507643
   0.06180655  0.04127606  0.87328901
   0.31325027  0.36947581  0.16879324
   0.06246815  0.37012616  0.30197141
   0.18758587  0.78780285  0.39033942
   0.06177539  0.53591139  0.12660067
   0.81239034  0.87179551  0.43485572
   0.93746483  0.61896058  0.16855553
   0.31271721  0.03781272  0.39029763
   0.56195919  0.53577817  0.12650619
   0.68719488  0.28980847  0.60982771
   0.43711874  0.62212835  0.52137735
   0.93747499  0.62510062  0.78645420
   0.81264780  0.04023283  0.60972799
   0.93700595  0.78718111  0.12638080
   0.43751923  0.95524867  0.47864353
   0.93748647  0.12171786  0.43488921
   0.56239465  0.53622009  0.25776092
   0.56249761  0.37422002  0.65368646
   0.81233849  0.03589780  0.25781785
   0.06244598  0.37381336  0.65366357
   0.43744643  0.11942054  0.16881673
   0.68753659  0.29250516  0.87339098
   0.68761495  0.79187889  0.87337036
   0.31253913  0.53768352  0.39026415
   0.93723277  0.45832177  0.83124572
   0.68833129  0.61987929  0.16878552
   0.93781533  0.28681183  0.12654526
   0.68682937  0.95310413  0.21360464
   0.43747697  0.45837411  0.69811514
   0.31252861  0.54152337  0.74223642
   0.06256048  0.20319882  0.21355426
   0.18780542  0.29030698  0.60974984
   0.18752816  0.12398633  0.65369461
   0.93730236  0.95812014  0.69814362
   0.43731191  0.28581454  0.25775905
   0.81262621  0.54148748  0.87346596
   0.43730332  0.28649881  0.12659401
   0.68735331  0.29199188  0.74230281
   0.06207843  0.04202818  0.74223591
   0.43732905  0.62134135  0.43479045
   0.18760756  0.79197677  0.87338250
   0.31262758  0.37233740  0.52136079
   0.56246420  0.03768453  0.39033130
   0.06234440  0.87052259  0.16872468
   0.18756569  0.29170646  0.74224367
   0.18771234  0.79020043  0.60974483
   0.81306791  0.36929420  0.16866424
   0.43779536  0.45881606  0.83114160
   0.06247671  0.53741391  0.39036412
   0.56242857  0.87404287  0.65358895
   0.43752190  0.95619982  0.56515405
   0.43714169  0.79185295  0.74219494
   0.93747100  0.11892937  0.16883606
   0.31273489  0.87007021  0.30194806
   0.06271226  0.70802134  0.69809022
   0.31261517  0.70531933  0.47862930
   0.18752912  0.45528636  0.47869286
   0.81229215  0.54063078  0.60965560
   0.18757903  0.78612470  0.25774322
   0.68755889  0.95371907  0.34639951
   0.81252762  0.37390618  0.65370692
   0.06285034  0.37530709  0.78646852
   0.93752713  0.95387761  0.34640521
   0.56241702  0.20386269  0.34637863
   0.68819818  0.45818514  0.83140663
   0.56184906  0.20804959  0.69804426
   0.06244154  0.03745034  0.39022185
   0.81324890  0.53653029  0.12657490
   0.56243862  0.20526953  0.47867484
   0.68758527  0.95587075  0.56510865
   0.68721401  0.62496739  0.78648259
   0.06258620  0.20530849  0.47866629
   0.81268421  0.03596368  0.12637402
   0.18759013  0.28623641  0.25777033
   0.56235453  0.70802976  0.69804915
   0.81264782  0.70834857  0.83111270
   0.93741468  0.29022308  0.60975760
   0.31272592  0.03617539  0.25780202
   0.18756247  0.95791957  0.69820250
   0.81279666  0.37239893  0.52137543
   0.43739006  0.29151837  0.87334788
   0.43750255  0.12413323  0.65368077
   0.43726755  0.78604197  0.25781624
   0.56264469  0.87162816  0.43478642
   0.43773441  0.45630055  0.56516269
   0.93769346  0.95889785  0.83128252
   0.81248495  0.53750707  0.39031406
   0.06306424  0.86980289  0.30179338
   0.81249978  0.37477927  0.78622186
   0.68787432  0.78663920  0.25786118
   0.68743155  0.62246662  0.52122460
   0.93645884  0.61931475  0.30199981
   0.81239876  0.20819105  0.69811931
   0.06311589  0.53629081  0.25763853
   0.43736388  0.95876788  0.83189479
   0.93768644  0.79045145  0.60991864
   0.43730777  0.61899514  0.16818329
   0.31249611  0.04171132  0.74225174
   0.93722449  0.45294643  0.21353858
   0.81269383  0.86992463  0.16809245
   0.68742711  0.79138815  0.74232898
   0.68704995  0.11954988  0.30186284
Direct configuration=     3
   0.43736295  0.28785122  0.39030207
   0.06285723  0.54196172  0.87340550
   0.93737841  0.79163473  0.87338227
   0.31250329  0.70624465  0.56508286
   0.06238245  0.20905982  0.83133299
   0.43747145  0.95415575  0.34644031
   0.68753172  0.45334069  0.34641302
   0.31243005  0.20535091  0.47864363
   0.18778493  0.95369038  0.34638422
   0.81231892  0.03758853  0.39035984
   0.56254941  0.53766487  0.39022749
   0.81285383  0.70547576  0.47869875
   0.06236586  0.37241675  0.52135802
   0.31259220  0.37150038  0.43487267
   0.81251871  0.20346852  0.34641157
   0.43700979  0.61979656  0.30189520
   0.06259306  0.87157998  0.43490971
   0.31320182  0.53655231  0.12647506
   0.56216627  0.37234295  0.52137812
   0.31252592  0.70888045  0.83127615
   0.06227488  0.70280815  0.21356732
   0.68753159  0.45834060  0.69814769
   0.18752097  0.62152124  0.43492670
   0.56222779  0.70617490  0.56512249
   0.18749015  0.95520041  0.47864161
   0.93803128  0.29200836  0.74227149
   0.56237264  0.03605685  0.25774030
   0.68749224  0.12247505  0.52136169
   0.06236269  0.03632569  0.25778608
   0.81210148  0.86976816  0.30200040
   0.68743255  0.95514758  0.47865082
   0.81206983  0.53604001  0.25772171
   0.93756194  0.95614522  0.56507714
   0.31212817  0.70270167  0.21355326
   0.43761599  0.12550707  0.78641039
   0.56235771  0.54161118  0.87336970
   0.18752295  0.12154106  0.43493796
   0.43691974  0.78584118  0.12654457
   0.81312361  0.04086331  0.87339278
   0.06309780  0.20751191  0.69804359
   0.56298510  0.70318049  0.21366296
   0.31261148  0.86858856  0.16886312
   0.18761274  0.95816314  0.83117615
   0.56237716  0.04021974  0.60970276
   0.93772580  0.45352847  0.34642033
   0.06247892  0.70536565  0.47863241
   0.93773618  0.11981633  0.30198650
   0.06262890  0.70362764  0.34640647
   0.56271381  0.53995422  0.60969734
   0.31259353  0.87250892  0.52132335
   0.18748730  0.62533660  0.78641500
   0.43765589  0.45541928  0.47864447
   0.81256878  0.54129422  0.74220305
   0.93750485  0.95515668  0.47865053
   0.93773317  0.95301427  0.21347089
   0.93745980  0.78744198  0.39033128
   0.68736875  0.12484627  0.78638187
   0.06259045  0.04022489  0.60968473
   0.31249213  0.20809204  0.69805624
   0.81266019  0.70377158  0.34637722
   0.93770554  0.28671759  0.25777766
   0.31235369  0.87155605  0.43485070
   0.68749874  0.95812693  0.83125277
   0.18749415  0.12005848  0.16877641
   0.81254062  0.20618122  0.56512953
   0.31247192  0.53993041  0.60981361
   0.56226045  0.87491478  0.78634143
   0.56225976  0.37511333  0.78652499
   0.18753523  0.28752267  0.39028936
   0.68745595  0.62169282  0.43509401
   0.43767068  0.62556707  0.78642689
   0.81244829  0.20531974  0.47866122
   0.93757443  0.79148757  0.74219591
   0.68763433  0.28597414  0.25767283
   0.18744017  0.11948564  0.30191371
   0.56205708  0.20829975  0.83130816
   0.81269148  0.37029386  0.30187236
   0.18731939  0.45377947  0.34634842
   0.93782224  0.62213002  0.52135716
   0.31273887  0.37011052  0.30190150
   0.18759125  0.95283341  0.21356098
   0.81263311  0.70613534  0.56508568
   0.81266685  0.37146692  0.43482317
   0.31243842  0.20639851  0.56512980
   0.31266430  0.87413581  0.65360741
   0.18831331  0.78640799  0.12661967
   0.18748393  0.12491571  0.78639660
   0.06239917  0.37157656  0.43488223
   0.18783054  0.62007324  0.30196236
   0.18754367  0.12250269  0.52137766
   0.18751179  0.62255000  0.52130257
   0.43716433  0.12239677  0.52136510
   0.43753865  0.95218587  0.21348076
   0.43714082  0.12038779  0.30190391
   0.06218669  0.54132400  0.74225370
   0.06254732  0.20345445  0.34639330
   0.56287286  0.54177771  0.74228797
   0.18725184  0.62408752  0.65364229
   0.56278494  0.86936867  0.16875121
   0.31212174  0.03648795  0.12667265
   0.81247987  0.87462612  0.78648654
   0.06258973  0.70632606  0.56508805
   0.18806057  0.28518883  0.12661231
   0.81242726  0.87278968  0.52134370
   0.81262626  0.70247272  0.21353033
   0.56257638  0.70380594  0.34633017
   0.31249146  0.20400640  0.34638283
   0.43746400  0.79227033  0.87357394
   0.18756527  0.45625321  0.56506617
   0.93770240  0.78592427  0.25765262
   0.31305858  0.20850533  0.83111977
   0.93721115  0.45650396  0.56517312
   0.81258946  0.04191606  0.74236236
   0.68737805  0.78728027  0.39036083
   0.81219220  0.20275234  0.21354502
   0.31235318  0.20229902  0.21349162
   0.18746223  0.79171918  0.74225014
   0.93744863  0.12502713  0.78650126
   0.93749154  0.12378261  0.65360853
   0.81263198  0.20892025  0.83127671
   0.18768600  0.61958728  0.16867235
   0.31204370  0.87504040  0.78630704
   0.68766786  0.78648667  0.12645822
   0.43725705  0.79026849  0.60979081
   0.56201224  0.04135452  0.87355252
   0.56250376  0.87273531  0.52138687
   0.68744610  0.45482860  0.47872065
   0.31302559  0.53591761  0.25775978
   0.06252793  0.20644722  0.56512069
   0.31247047  0.37433981  0.65366141
   0.56167146  0.36981355  0.16879972
   0.06294642  0.87514566  0.78643419
   0.68721452  0.79006872  0.60975749
   0.81248735  0.70829865  0.69801528
   0.56241890  0.20611077  0.56508545
   0.56291444  0.03637640  0.12664926
   0.68722566  0.95803905  0.69816905
   0.18694327  0.45842421  0.83115645
   0.06230707  0.03600224  0.12659843
   0.56267383  0.20240018  0.21351742
   0.18735457  0.45829328  0.69811320
   0.06239324  0.87385129  0.65360374
   0.31231949  0.70805525  0.69812509
   0.43749347  0.78759797  0.39026498
   0.93733459  0.45545470  0.47866384
   0.68693061  0.28569033  0.12669897
   0.06244593  0.87253026  0.52132744
   0.43739643  0.12151511  0.43486322
   0.56250010  0.36960346  0.30189477
   0.68738974  0.12439386  0.65357289
   0.43737995  0.62411752  0.65359733
   0.93761516  0.62138929  0.43481672
   0.31244059  0.37494996  0.78639609
   0.56251097  0.70905168  0.83122282
   0.31210696  0.54183986  0.87332834
   0.31252405  0.70401009  0.34638924
   0.81244036  0.87412633  0.65377112
   0.06274783  0.36933579  0.16867138
   0.18729123  0.95630389  0.56515609
   0.68673374  0.45303909  0.21345070
   0.68753470  0.12140148  0.43490850
   0.56254326  0.87047884  0.30197389
   0.68752109  0.62412120  0.65361633
   0.18816166  0.45259103  0.21358384
   0.56231566  0.37149097  0.43480814
   0.56208787  0.70547123  0.47869327
   0.06246003  0.54044347  0.60978936
   0.68695225  0.62004336  0.30195314
   0.06255046  0.70816970  0.83114215
   0.43759473  0.45378662  0.34635930
   0.93754312  0.28733898  0.39042739
   0.43738109  0.45215443  0.21362245
   0.56285075  0.04160321  0.74214290
   0.31240487  0.04046420  0.60973824
   0.93763270  0.62385155  0.65360511
   0.43778955  0.95773479  0.69806974
   0.31298217  0.04152547  0.87348049
   0.93776069  0.12249877  0.52132304
   0.43753113  0.29010329  0.60978344
   0.68753098  0.28773351  0.39025790
   0.93753954  0.45758781  0.69814480
   0.43708933  0.29169461  0.74221581
   0.18756181  0.29257688  0.87330053
   0.68783969  0.11914654  0.16868285
   0.93752127  0.29174363  0.87345881
   0.68739510  0.45610699  0.56506775
   0.06178833  0.04129175  0.87330214
   0.31323703  0.36942109  0.16879030
   0.06246744  0.37009639  0.30197695
   0.18756051  0.78778559  0.39033323
   0.06178457  0.53591697  0.12659156
   0.81238288  0.87177740  0.43485385
   0.93744144  0.61892997  0.16856207
   0.31268042  0.03782077  0.39029823
   0.56193039  0.53579160  0.12650260
   0.68719319  0.28981885  0.60982611
   0.43718109  0.62209893  0.52136573
   0.93747709  0.62505398  0.78645259
   0.81262598  0.04024317  0.60972839
   0.93700140  0.78722249  0.12636892
   0.43752096  0.95523659  0.47865514
   0.93747721  0.12170362  0.43487949
   0.56238917  0.53623312  0.25776678
   0.56249645  0.37421894  0.65369084
   0.81237874  0.03596849  0.25781514
   0.06244812  0.37378505  0.65366196