<?xml version="1.0" encoding="ISO-8859-1"?>
<modeling>
 <generator>
  <i name="program" type="string">vasp </i>
  <i name="version" type="string">5.4.4.18Apr17-6-g9f103f2a35  </i>
  <i name="subversion" type="string">(build Sep 27 2018 12:46:37) complex + VL-xray_ parallel </i>
  <i name="platform" type="string">LLNL_Quartz_ifc </i>
  <i name="date" type="string">2021 09 26 </i>
  <i name="time" type="string">22:03:35 </i>
 </generator>
 <incar>
  <i type="int" name="ISTART">     2</i>
  <i type="string" name="PREC">accurate</i>
  <i type="string" name="ALGO"> Fast</i>
  <i type="int" name="ICHARG">     2</i>
  <i type="int" name="INIWAV">     1</i>
  <i type="int" name="NELM">   100</i>
  <i type="int" name="NELMIN">     4</i>
  <i type="int" name="IBRION">     2</i>
  <i name="EDIFF">      0.00000100</i>
  <i type="int" name="NSW">     5</i>
  <i type="int" name="ISIF">     2</i>
  <i type="int" name="ISYM">     2</i>
  <i name="ENCUT">    450.00000000</i>
  <i name="POTIM">      0.25000000</i>
  <i type="string" name="LREAL"> Auto</i>
  <i type="int" name="ISMEAR">     0</i>
  <i name="SIGMA">      0.15000000</i>
  <i type="logical" name="LWAVE"> F  </i>
  <i type="logical" name="LCHARG"> F  </i>
  <i type="int" name="ICORELEVEL">     0</i>
  <i type="int" name="CLNT">     1</i>
  <i type="int" name="CLN">     1</i>
  <i type="int" name="INCAR     ">     0</i>
  <i name="CLZ">      0.00000000</i>
  <v type="int" name="KPOINT_BSE">    -1     0     0     0</v>
  <i type="int" name="NELM">   100</i>
 </incar>
 <structure name="primitive_cell" >
  <crystal>
   <varray name="basis" >
    <v>       9.72667804       0.00000000       0.00000000 </v>
    <v>       0.00000000       8.42355028       0.00000000 </v>
    <v>       0.00000000       0.00000000      45.00000000 </v>
   </varray>
   <i name="volume">   3686.99226691 </i>
   <varray name="rec_basis" >
    <v>       0.10281002       0.00000000       0.00000000 </v>
    <v>       0.00000000       0.11871479       0.00000000 </v>
    <v>       0.00000000       0.00000000       0.02222222 </v>
   </varray>
  </crystal>
  <varray name="positions" >
   <v>       0.06206731       0.03284242       0.12450038 </v>
   <v>       0.18383185       0.11349040       0.16666260 </v>
   <v>       0.05955501      -0.13354696       0.16710450 </v>
   <v>       0.18752414      -0.21198974       0.12434439 </v>
   <v>      -0.06519823      -0.21108793       0.12475107 </v>
   <v>      -0.06755286       0.11664188       0.16735054 </v>
   <v>      -0.18750741       0.03264537       0.12446572 </v>
   <v>       0.31184605       0.03306911       0.12449804 </v>
   <v>       0.18693558       0.28856345       0.12475303 </v>
   <v>      -0.06420357       0.28969718       0.12455654 </v>
   <v>       0.30843311      -0.13397848       0.16611858 </v>
   <v>       0.05826114       0.36577331       0.16690702 </v>
   <v>      -0.19102936      -0.13382470       0.16728208 </v>
   <v>       0.43350762       0.11380402       0.16666227 </v>
   <v>      -0.06038429      -0.04283057       0.21170014 </v>
   <v>       0.30923127       0.36324217       0.16740885 </v>
   <v>       0.43472320      -0.21255255       0.12456305 </v>
   <v>       0.18595796      -0.38438921       0.16703725 </v>
   <v>       0.18825618      -0.04266194       0.21215512 </v>
   <v>      -0.31298822      -0.21064352       0.12469272 </v>
   <v>      -0.19136777       0.36609988       0.16668670 </v>
   <v>       0.06383088       0.20610175       0.21196070 </v>
   <v>      -0.31513397       0.11637989       0.16729086 </v>
   <v>      -0.06664889      -0.38602937       0.16702503 </v>
   <v>       0.06237551      -0.46732154       0.12469231 </v>
   <v>       0.43632109       0.28882375       0.12477454 </v>
   <v>      -0.31283410       0.28996530       0.12459593 </v>
   <v>       0.06461906      -0.29382450       0.21191238 </v>
   <v>      -0.18581715       0.20707137       0.21181273 </v>
   <v>      -0.43721411       0.03315380       0.12465480 </v>
   <v>       0.31325078      -0.46571104       0.12446106 </v>
   <v>      -0.18729590      -0.46702155       0.12441649 </v>
   <v>       0.31388331       0.20670547       0.21227556 </v>
   <v>      -0.18597842      -0.29350018       0.21167857 </v>
   <v>       0.43187591      -0.38354312       0.16690240 </v>
   <v>      -0.44094004      -0.13336178       0.16710293 </v>
   <v>      -0.31207936      -0.04226073       0.21192135 </v>
   <v>       0.31385111      -0.29495074       0.21244228 </v>
   <v>       0.43907098      -0.04239455       0.21225906 </v>
   <v>      -0.31518143      -0.38527379       0.16710657 </v>
   <v>      -0.06118370       0.45771260       0.21217404 </v>
   <v>       0.18869209       0.45777427       0.21205819 </v>
   <v>      -0.43984617       0.36622035       0.16709785 </v>
   <v>       0.05921721       0.03978668       0.25613290 </v>
   <v>       0.18433478      -0.20993643       0.25614199 </v>
   <v>      -0.06607513      -0.20976307       0.25616594 </v>
   <v>       0.31018423       0.03943671       0.25601083 </v>
   <v>      -0.43544675       0.20568606       0.21188062 </v>
   <v>       0.18397418       0.28971726       0.25613393 </v>
   <v>      -0.19032604       0.03940471       0.25630218 </v>
   <v>      -0.43717872      -0.46746705       0.12474266 </v>
   <v>      -0.06558416       0.29011717       0.25612746 </v>
   <v>      -0.31204421       0.45786897       0.21238981 </v>
   <v>       0.43877710       0.45768846       0.21211340 </v>
   <v>      -0.43616327      -0.29382379       0.21193889 </v>
   <v>       0.05990006      -0.45968624       0.25623656 </v>
   <v>       0.43416778      -0.21006964       0.25623116 </v>
   <v>      -0.31552882      -0.20974730       0.25617763 </v>
   <v>       0.43314470       0.28966392       0.25614457 </v>
   <v>      -0.31609825       0.29001679       0.25618396 </v>
   <v>       0.30933436      -0.46050330       0.25573920 </v>
   <v>      -0.19044831      -0.46033649       0.25617766 </v>
   <v>      -0.44042818       0.04002711       0.25610547 </v>
   <v>       0.06697720      -0.12537086       0.30036522 </v>
   <v>      -0.05729907       0.12433662       0.30040481 </v>
   <v>       0.19327299       0.12395422       0.30060531 </v>
   <v>      -0.18265806      -0.12497957       0.30041268 </v>
   <v>       0.31712912      -0.12574114       0.30046840 </v>
   <v>       0.06785664       0.37449323       0.30073382 </v>
   <v>      -0.44067765      -0.46018139       0.25610690 </v>
   <v>      -0.05687946      -0.37616026       0.30046064 </v>
   <v>      -0.30697922       0.12407898       0.30037977 </v>
   <v>       0.19311745      -0.37540803       0.30090152 </v>
   <v>      -0.18161283       0.37446078       0.30032135 </v>
   <v>       0.44284440       0.12440169       0.30053135 </v>
   <v>       0.31786091       0.37338389       0.30066211 </v>
   <v>      -0.30672868      -0.37550343       0.30034565 </v>
   <v>      -0.43230830      -0.12581831       0.30055159 </v>
   <v>       0.44337568      -0.37551653       0.30090276 </v>
   <v>      -0.43176766       0.37535563       0.30053605 </v>
   <v>      -0.06427105      -0.04582041       0.34510483 </v>
   <v>       0.18462542      -0.04607966       0.34523695 </v>
   <v>       0.06019527       0.20327119       0.34505878 </v>
   <v>       0.05953051      -0.29593745       0.34509793 </v>
   <v>       0.31024251       0.20390654       0.34521391 </v>
   <v>      -0.18928221       0.20544329       0.34501442 </v>
   <v>       0.31038904      -0.29593285       0.34518606 </v>
   <v>       0.43514240      -0.04644908       0.34517528 </v>
   <v>      -0.19095024      -0.29656006       0.34515346 </v>
   <v>      -0.06560735       0.45299405       0.34502053 </v>
   <v>      -0.31581318      -0.04665394       0.34515666 </v>
   <v>       0.18544283       0.45417783       0.34527652 </v>
   <v>      -0.43943215       0.20441346       0.34529474 </v>
   <v>       0.43484445       0.45373675       0.34534406 </v>
   <v>      -0.31573319       0.45387952       0.34518198 </v>
   <v>       0.06666045       0.03601732      -0.12476439 </v>
   <v>      -0.44079065      -0.29389286       0.34521059 </v>
   <v>       0.18859821      -0.20660326      -0.12438149 </v>
   <v>      -0.06116044      -0.20844463      -0.12478925 </v>
   <v>      -0.18822227       0.03763530      -0.12463531 </v>
   <v>       0.31538980       0.03777703      -0.12464309 </v>
   <v>       0.19021676       0.29239092      -0.12451441 </v>
   <v>      -0.06351946       0.29210956      -0.12481802 </v>
   <v>       0.06360981       0.04042037       0.38921635 </v>
   <v>       0.43727558      -0.20772245      -0.12457350 </v>
   <v>       0.06575983      -0.46250671      -0.12468249 </v>
   <v>      -0.31629030      -0.20867730      -0.12475821 </v>
   <v>       0.43797264       0.29230543      -0.12443652 </v>
   <v>      -0.31281557       0.29247119      -0.12466683 </v>
   <v>      -0.06065824      -0.21005400       0.38920812 </v>
   <v>       0.18859580      -0.20983479       0.38937838 </v>
   <v>      -0.18627302       0.04020251       0.38932605 </v>
   <v>       0.31349708       0.03937623       0.38934930 </v>
   <v>      -0.06113995       0.28995306       0.38928191 </v>
   <v>       0.18855455       0.29007256       0.38936692 </v>
   <v>       0.31492103      -0.46311288      -0.12438818 </v>
   <v>      -0.43770849       0.03553422      -0.12432528 </v>
   <v>      -0.18859928      -0.46583760      -0.12481830 </v>
   <v>      -0.31014946      -0.21107558       0.38913069 </v>
   <v>       0.06437760      -0.46010398       0.38922118 </v>
   <v>       0.43880650      -0.21045809       0.38938380 </v>
   <v>      -0.31173348       0.28980325       0.38918702 </v>
   <v>       0.43957991       0.28974815       0.38922930 </v>
   <v>      -0.18630207      -0.45988235       0.38934872 </v>
   <v>       0.31386092      -0.45994414       0.38926690 </v>
   <v>      -0.43571748       0.03954608       0.38927342 </v>
   <v>      -0.43793386      -0.46256020      -0.12465221 </v>
   <v>      -0.05946159      -0.03737224      -0.16626813 </v>
   <v>       0.18916269      -0.03919894      -0.16698419 </v>
   <v>       0.06594401       0.21306243      -0.16663883 </v>
   <v>       0.06387055      -0.28552913      -0.16619668 </v>
   <v>      -0.18356731       0.21330286      -0.16653331 </v>
   <v>       0.31494404       0.20917757      -0.16710826 </v>
   <v>      -0.43607934      -0.45984552       0.38930834 </v>
   <v>      -0.18419892      -0.28692509      -0.16656461 </v>
   <v>      -0.31084795      -0.04015352      -0.16709251 </v>
   <v>      -0.05970434       0.46287209      -0.16631807 </v>
   <v>       0.31594127      -0.28942715      -0.16762171 </v>
   <v>       0.44026842      -0.04090359      -0.16727102 </v>
   <v>       0.19104854       0.46122960      -0.16683538 </v>
   <v>       0.06235550      -0.12894857       0.43445654 </v>
   <v>       0.18763536       0.12096742       0.43440019 </v>
   <v>      -0.06308231       0.12111625       0.43461676 </v>
   <v>      -0.30877609       0.46056503      -0.16690215 </v>
   <v>      -0.43702657       0.21010088      -0.16760878 </v>
   <v>       0.43923989       0.45928588      -0.16718347 </v>
   <v>       0.31196311      -0.12900421       0.43444295 </v>
   <v>      -0.18786681      -0.12855083       0.43446105 </v>
   <v>       0.06217933       0.37138567       0.43436761 </v>
   <v>      -0.43512899      -0.29004713      -0.16716714 </v>
   <v>      -0.06301382      -0.37903786       0.43452185 </v>
   <v>       0.18723835      -0.37861924       0.43456106 </v>
   <v>      -0.31237172       0.12006919       0.43446165 </v>
   <v>      -0.18768405       0.37181372       0.43432614 </v>
   <v>       0.43716221       0.12100739       0.43452370 </v>
   <v>       0.31196499       0.37062363       0.43450335 </v>
   <v>      -0.31229239      -0.37865502       0.43439256 </v>
   <v>       0.43728633      -0.37926837       0.43452213 </v>
   <v>      -0.43791859      -0.12876113       0.43453493 </v>
   <v>      -0.43765522       0.37114120       0.43454981 </v>
   <v>       0.06153332      -0.12817050      -0.21181638 </v>
   <v>      -0.06194693       0.12039315      -0.21198413 </v>
   <v>       0.18674652       0.11904346      -0.21205204 </v>
   <v>      -0.18836724      -0.12832363      -0.21199973 </v>
   <v>       0.31283650      -0.13164416      -0.21217563 </v>
   <v>       0.06236834       0.37081336      -0.21218641 </v>
   <v>       0.43762050       0.11814719      -0.21184477 </v>
   <v>      -0.06421463      -0.37967790      -0.21223037 </v>
   <v>       0.31157971       0.36943173      -0.21202150 </v>
   <v>       0.18732822      -0.38201084      -0.21223251 </v>
   <v>      -0.31386809       0.11911460      -0.21210570 </v>
   <v>      -0.18801141       0.37151603      -0.21208569 </v>
   <v>      -0.43688895      -0.12964641      -0.21200526 </v>
   <v>       0.43551657      -0.38230913      -0.21200981 </v>
   <v>      -0.31313765      -0.38102230      -0.21219934 </v>
   <v>       0.18678579      -0.04433942       0.47856611 </v>
   <v>      -0.06330187      -0.04460964       0.47864049 </v>
   <v>       0.06218639       0.20578744       0.47866408 </v>
   <v>      -0.43896417       0.36812245      -0.21218339 </v>
   <v>       0.06198063      -0.29433652       0.47852916 </v>
   <v>       0.31175685       0.20589518       0.47861581 </v>
   <v>      -0.18867355       0.20557560       0.47865020 </v>
   <v>      -0.18791292      -0.29430899       0.47862092 </v>
   <v>       0.31232233      -0.29440818       0.47865462 </v>
   <v>      -0.31277544      -0.04403022       0.47862551 </v>
   <v>       0.43699085      -0.04385873       0.47871294 </v>
   <v>      -0.06303959       0.45540133       0.47856868 </v>
   <v>       0.18719686       0.45554734       0.47864007 </v>
   <v>      -0.43810088       0.20583150       0.47857708 </v>
   <v>      -0.31298642       0.45560770       0.47865379 </v>
   <v>       0.43703067       0.45578954       0.47869249 </v>
   <v>      -0.43798041      -0.29437938       0.47867418 </v>
   <v>       0.06562784       0.03817289      -0.25637970 </v>
   <v>      -0.05899733      -0.21111336      -0.25602734 </v>
   <v>       0.19028373      -0.21076280      -0.25615057 </v>
   <v>      -0.06028329       0.28796331      -0.25600190 </v>
   <v>      -0.18447873       0.03902078      -0.25633848 </v>
   <v>       0.19073563       0.29014433      -0.25609024 </v>
   <v>       0.31543794       0.04028837      -0.25627841 </v>
   <v>       0.06511137      -0.46024508      -0.25602067 </v>
   <v>      -0.30977643      -0.21002682      -0.25606047 </v>
   <v>      -0.30893499       0.29035043      -0.25604409 </v>
   <v>       0.43975248      -0.21024772      -0.25618362 </v>
   <v>       0.44003390       0.29125082      -0.25608573 </v>
   <v>       0.31493776      -0.46036533      -0.25589551 </v>
   <v>      -0.18433243      -0.46099345      -0.25618040 </v>
   <v>      -0.43379886       0.03915909      -0.25622882 </v>
   <v>      -0.06414543       0.12125585      -0.47880565 </v>
   <v>       0.06126700      -0.12855156      -0.47866705 </v>
   <v>       0.18639711       0.12103633      -0.47872391 </v>
   <v>       0.31116773      -0.12862296      -0.47865300 </v>
   <v>      -0.18866995      -0.12880137      -0.47866918 </v>
   <v>       0.06080830       0.37152812      -0.47862258 </v>
   <v>       0.18646537      -0.37867416      -0.47868851 </v>
   <v>      -0.06344074      -0.37858514      -0.47866667 </v>
   <v>       0.43631599       0.12158173      -0.47864674 </v>
   <v>       0.31114297       0.37143778      -0.47871317 </v>
   <v>      -0.31398906       0.12134116      -0.47865848 </v>
   <v>      -0.18850803       0.37138288      -0.47869797 </v>
   <v>      -0.43437392      -0.45925054      -0.25622219 </v>
   <v>      -0.31379955      -0.37857537      -0.47873614 </v>
   <v>       0.43634164      -0.37847036      -0.47864927 </v>
   <v>      -0.43867623      -0.12829279      -0.47861238 </v>
   <v>      -0.43861845       0.37133399      -0.47866314 </v>
   <v>       0.18687065      -0.04212152      -0.30038345 </v>
   <v>      -0.06312348      -0.04193964      -0.30059724 </v>
   <v>       0.06161871       0.20779371      -0.30055988 </v>
   <v>       0.06152474      -0.29239178      -0.30062856 </v>
   <v>      -0.18872417       0.20748647      -0.30040515 </v>
   <v>       0.31178604       0.20726396      -0.30052829 </v>
   <v>       0.31162147      -0.29282237      -0.30051933 </v>
   <v>      -0.18816638      -0.29248758      -0.30064208 </v>
   <v>      -0.31333370      -0.04191766      -0.30047358 </v>
   <v>       0.43650739      -0.04227729      -0.30061609 </v>
   <v>      -0.06330425       0.45731376      -0.30062739 </v>
   <v>       0.18632163       0.45736242      -0.30066049 </v>
   <v>      -0.43838664       0.20702881      -0.30058789 </v>
   <v>      -0.31361186       0.45735651      -0.30058498 </v>
   <v>       0.43710522       0.45756311      -0.30080371 </v>
   <v>      -0.06307478      -0.04240796      -0.43460283 </v>
   <v>       0.18696732      -0.04267079      -0.43457287 </v>
   <v>       0.06339499       0.20693575      -0.43426065 </v>
   <v>      -0.43865100      -0.29319358      -0.30056730 </v>
   <v>       0.06142977      -0.29340646      -0.43457873 </v>
   <v>       0.31103877       0.20632545      -0.43457077 </v>
   <v>      -0.18891157       0.20692526      -0.43455907 </v>
   <v>       0.31175064      -0.29295885      -0.43466451 </v>
   <v>      -0.18821595      -0.29265518      -0.43461357 </v>
   <v>       0.43621931      -0.04329929      -0.43468467 </v>
   <v>      -0.31260754      -0.04264658      -0.43465565 </v>
   <v>       0.18660387       0.45706697      -0.43454927 </v>
   <v>      -0.06260531       0.45715689      -0.43451501 </v>
   <v>      -0.43757341       0.20743148      -0.43461421 </v>
   <v>       0.43675823       0.45733863      -0.43459504 </v>
   <v>      -0.31300500       0.45736504      -0.43456802 </v>
   <v>      -0.43838812      -0.29312402      -0.43454809 </v>
   <v>       0.06561157      -0.12697369      -0.34509671 </v>
   <v>       0.19094866       0.12405311      -0.34503415 </v>
   <v>      -0.05912156       0.12404701      -0.34514914 </v>
   <v>      -0.18436954      -0.12646629      -0.34515217 </v>
   <v>       0.06609161       0.37391913      -0.34508156 </v>
   <v>       0.31534975      -0.12645688      -0.34529204 </v>
   <v>      -0.05848912      -0.37568357      -0.34510152 </v>
   <v>       0.19130558      -0.37584125      -0.34506170 </v>
   <v>      -0.30950099       0.12343850      -0.34516431 </v>
   <v>      -0.18391099       0.37381589      -0.34504689 </v>
   <v>       0.44099030       0.12397426      -0.34513143 </v>
   <v>       0.31658260       0.37372767      -0.34502723 </v>
   <v>      -0.30908523      -0.37571026      -0.34514385 </v>
   <v>       0.44095023      -0.37608671      -0.34515910 </v>
   <v>      -0.43546724      -0.12689429      -0.34541669 </v>
   <v>      -0.43352990       0.37381803      -0.34509277 </v>
   <v>       0.05870232       0.03793360      -0.38919233 </v>
   <v>       0.18354479      -0.21217614      -0.38913093 </v>
   <v>      -0.06575869      -0.21265338      -0.38913692 </v>
   <v>       0.30843510       0.03746420      -0.38908629 </v>
   <v>       0.18380241       0.28786726      -0.38922151 </v>
   <v>      -0.06637126       0.28759732      -0.38918992 </v>
   <v>      -0.19087458       0.03784257      -0.38912062 </v>
   <v>       0.43429963      -0.21202625      -0.38920537 </v>
   <v>       0.05865138      -0.46214853      -0.38916526 </v>
   <v>       0.43376099       0.28804646      -0.38917799 </v>
   <v>      -0.31637485      -0.21217872      -0.38917420 </v>
   <v>      -0.31613229       0.28799686      -0.38921328 </v>
   <v>       0.30880789      -0.46197392      -0.38918239 </v>
   <v>      -0.44139251       0.03832084      -0.38915217 </v>
   <v>      -0.19127205      -0.46226150      -0.38909037 </v>
   <v>      -0.44089909      -0.46229975      -0.38924895 </v>
  </varray>
 </structure>
 <varray name="primitive_index" >
  <v type="int" >        1 </v>
  <v type="int" >      125 </v>
  <v type="int" >       60 </v>
  <v type="int" >       83 </v>
  <v type="int" >       44 </v>
  <v type="int" >       26 </v>
  <v type="int" >      202 </v>
  <v type="int" >      256 </v>
  <v type="int" >      111 </v>
  <v type="int" >      155 </v>
  <v type="int" >      277 </v>
  <v type="int" >       51 </v>
  <v type="int" >      102 </v>
  <v type="int" >      182 </v>
  <v type="int" >      212 </v>
  <v type="int" >      108 </v>
  <v type="int" >      170 </v>
  <v type="int" >       20 </v>
  <v type="int" >      146 </v>
  <v type="int" >      163 </v>
  <v type="int" >      284 </v>
  <v type="int" >       50 </v>
  <v type="int" >      166 </v>
  <v type="int" >      104 </v>
  <v type="int" >      176 </v>
  <v type="int" >      117 </v>
  <v type="int" >      145 </v>
  <v type="int" >      250 </v>
  <v type="int" >      167 </v>
  <v type="int" >      114 </v>
  <v type="int" >       91 </v>
  <v type="int" >      205 </v>
  <v type="int" >      278 </v>
  <v type="int" >      213 </v>
  <v type="int" >      174 </v>
  <v type="int" >      192 </v>
  <v type="int" >       92 </v>
  <v type="int" >      276 </v>
  <v type="int" >      229 </v>
  <v type="int" >       97 </v>
  <v type="int" >      175 </v>
  <v type="int" >      189 </v>
  <v type="int" >       30 </v>
  <v type="int" >      185 </v>
  <v type="int" >      200 </v>
  <v type="int" >       52 </v>
  <v type="int" >      179 </v>
  <v type="int" >      103 </v>
  <v type="int" >      112 </v>
  <v type="int" >       24 </v>
  <v type="int" >      164 </v>
  <v type="int" >      127 </v>
  <v type="int" >      261 </v>
  <v type="int" >      139 </v>
  <v type="int" >      243 </v>
  <v type="int" >      168 </v>
  <v type="int" >      137 </v>
  <v type="int" >      118 </v>
  <v type="int" >      265 </v>
  <v type="int" >       58 </v>
  <v type="int" >      275 </v>
  <v type="int" >       81 </v>
  <v type="int" >      221 </v>
  <v type="int" >      214 </v>
  <v type="int" >      135 </v>
  <v type="int" >      215 </v>
  <v type="int" >       72 </v>
  <v type="int" >       98 </v>
  <v type="int" >      226 </v>
  <v type="int" >       28 </v>
  <v type="int" >      178 </v>
  <v type="int" >      109 </v>
  <v type="int" >      263 </v>
  <v type="int" >      220 </v>
  <v type="int" >      159 </v>
  <v type="int" >      242 </v>
  <v type="int" >      130 </v>
  <v type="int" >      210 </v>
  <v type="int" >      101 </v>
  <v type="int" >      171 </v>
  <v type="int" >      194 </v>
  <v type="int" >      258 </v>
  <v type="int" >       47 </v>
  <v type="int" >      216 </v>
  <v type="int" >       86 </v>
  <v type="int" >      207 </v>
  <v type="int" >      208 </v>
  <v type="int" >      172 </v>
  <v type="int" >       73 </v>
  <v type="int" >       12 </v>
  <v type="int" >       25 </v>
  <v type="int" >      116 </v>
  <v type="int" >      219 </v>
  <v type="int" >      206 </v>
  <v type="int" >      279 </v>
  <v type="int" >      282 </v>
  <v type="int" >      283 </v>
  <v type="int" >      268 </v>
  <v type="int" >      281 </v>
  <v type="int" >       14 </v>
  <v type="int" >      245 </v>
  <v type="int" >      120 </v>
  <v type="int" >      280 </v>
  <v type="int" >      124 </v>
  <v type="int" >      150 </v>
  <v type="int" >      266 </v>
  <v type="int" >       29 </v>
  <v type="int" >      255 </v>
  <v type="int" >      191 </v>
  <v type="int" >      190 </v>
  <v type="int" >       62 </v>
  <v type="int" >       48 </v>
  <v type="int" >      165 </v>
  <v type="int" >       13 </v>
  <v type="int" >      248 </v>
  <v type="int" >       18 </v>
  <v type="int" >      161 </v>
  <v type="int" >      285 </v>
  <v type="int" >       45 </v>
  <v type="int" >      273 </v>
  <v type="int" >      264 </v>
  <v type="int" >       84 </v>
  <v type="int" >        4 </v>
  <v type="int" >      123 </v>
  <v type="int" >       67 </v>
  <v type="int" >       16 </v>
  <v type="int" >       64 </v>
  <v type="int" >       17 </v>
  <v type="int" >        7 </v>
  <v type="int" >      259 </v>
  <v type="int" >      134 </v>
  <v type="int" >        6 </v>
  <v type="int" >       39 </v>
  <v type="int" >      222 </v>
  <v type="int" >      253 </v>
  <v type="int" >       88 </v>
  <v type="int" >       36 </v>
  <v type="int" >        5 </v>
  <v type="int" >      110 </v>
  <v type="int" >      181 </v>
  <v type="int" >      204 </v>
  <v type="int" >      160 </v>
  <v type="int" >      158 </v>
  <v type="int" >       82 </v>
  <v type="int" >      143 </v>
  <v type="int" >       74 </v>
  <v type="int" >       23 </v>
  <v type="int" >      235 </v>
  <v type="int" >      218 </v>
  <v type="int" >      241 </v>
  <v type="int" >      131 </v>
  <v type="int" >      238 </v>
  <v type="int" >      257 </v>
  <v type="int" >       80 </v>
  <v type="int" >      201 </v>
  <v type="int" >      113 </v>
  <v type="int" >      232 </v>
  <v type="int" >      249 </v>
  <v type="int" >       69 </v>
  <v type="int" >      251 </v>
  <v type="int" >      197 </v>
  <v type="int" >      149 </v>
  <v type="int" >        3 </v>
  <v type="int" >       55 </v>
  <v type="int" >      224 </v>
  <v type="int" >      254 </v>
  <v type="int" >       49 </v>
  <v type="int" >      132 </v>
  <v type="int" >      138 </v>
  <v type="int" >      272 </v>
  <v type="int" >      188 </v>
  <v type="int" >       57 </v>
  <v type="int" >       33 </v>
  <v type="int" >      184 </v>
  <v type="int" >       66 </v>
  <v type="int" >       94 </v>
  <v type="int" >      236 </v>
  <v type="int" >      223 </v>
  <v type="int" >      106 </v>
  <v type="int" >      157 </v>
  <v type="int" >      230 </v>
  <v type="int" >       21 </v>
  <v type="int" >      234 </v>
  <v type="int" >       99 </v>
  <v type="int" >       75 </v>
  <v type="int" >      105 </v>
  <v type="int" >      269 </v>
  <v type="int" >      244 </v>
  <v type="int" >      237 </v>
  <v type="int" >      199 </v>
  <v type="int" >      156 </v>
  <v type="int" >      169 </v>
  <v type="int" >        9 </v>
  <v type="int" >       46 </v>
  <v type="int" >      262 </v>
  <v type="int" >      187 </v>
  <v type="int" >      151 </v>
  <v type="int" >       11 </v>
  <v type="int" >      239 </v>
  <v type="int" >      211 </v>
  <v type="int" >       43 </v>
  <v type="int" >       19 </v>
  <v type="int" >       31 </v>
  <v type="int" >       71 </v>
  <v type="int" >      288 </v>
  <v type="int" >       87 </v>
  <v type="int" >      267 </v>
  <v type="int" >      286 </v>
  <v type="int" >       27 </v>
  <v type="int" >      140 </v>
  <v type="int" >      144 </v>
  <v type="int" >       10 </v>
  <v type="int" >      107 </v>
  <v type="int" >       68 </v>
  <v type="int" >      203 </v>
  <v type="int" >      119 </v>
  <v type="int" >      183 </v>
  <v type="int" >       34 </v>
  <v type="int" >      177 </v>
  <v type="int" >      270 </v>
  <v type="int" >      195 </v>
  <v type="int" >      252 </v>
  <v type="int" >       77 </v>
  <v type="int" >      247 </v>
  <v type="int" >      173 </v>
  <v type="int" >      225 </v>
  <v type="int" >       37 </v>
  <v type="int" >      274 </v>
  <v type="int" >      233 </v>
  <v type="int" >       63 </v>
  <v type="int" >      154 </v>
  <v type="int" >      141 </v>
  <v type="int" >       54 </v>
  <v type="int" >       38 </v>
  <v type="int" >      152 </v>
  <v type="int" >      246 </v>
  <v type="int" >       53 </v>
  <v type="int" >       76 </v>
  <v type="int" >      193 </v>
  <v type="int" >      129 </v>
  <v type="int" >      162 </v>
  <v type="int" >      287 </v>
  <v type="int" >      133 </v>
  <v type="int" >       65 </v>
  <v type="int" >       93 </v>
  <v type="int" >      271 </v>
  <v type="int" >       90 </v>
  <v type="int" >       32 </v>
  <v type="int" >       56 </v>
  <v type="int" >       95 </v>
  <v type="int" >       59 </v>
  <v type="int" >       42 </v>
  <v type="int" >        8 </v>
  <v type="int" >       70 </v>
  <v type="int" >      228 </v>
  <v type="int" >      186 </v>
  <v type="int" >      196 </v>
  <v type="int" >      121 </v>
  <v type="int" >      122 </v>
  <v type="int" >       79 </v>
  <v type="int" >      198 </v>
  <v type="int" >        2 </v>
  <v type="int" >      240 </v>
  <v type="int" >      153 </v>
  <v type="int" >      209 </v>
  <v type="int" >       35 </v>
  <v type="int" >      231 </v>
  <v type="int" >       85 </v>
  <v type="int" >      227 </v>
  <v type="int" >       40 </v>
  <v type="int" >       89 </v>
  <v type="int" >       78 </v>
  <v type="int" >      142 </v>
  <v type="int" >       15 </v>
  <v type="int" >      136 </v>
  <v type="int" >      148 </v>
  <v type="int" >       61 </v>
  <v type="int" >      100 </v>
  <v type="int" >      217 </v>
  <v type="int" >       96 </v>
  <v type="int" >      126 </v>
  <v type="int" >      115 </v>
  <v type="int" >      180 </v>
  <v type="int" >      147 </v>
  <v type="int" >       41 </v>
  <v type="int" >      260 </v>
  <v type="int" >       22 </v>
  <v type="int" >      128 </v>
 </varray>
 <kpoints>
  <generation param="Gamma">
   <v type="int" name="divisions">       4        4        1 </v>
   <v name="usershift">      0.00000000       0.00000000       0.00000000 </v>
   <v name="genvec1">      0.25000000       0.00000000       0.00000000 </v>
   <v name="genvec2">      0.00000000       0.25000000       0.00000000 </v>
   <v name="genvec3">      0.00000000       0.00000000       1.00000000 </v>
   <v name="shift">      0.00000000       0.00000000       0.00000000 </v>
  </generation>
  <varray name="kpointlist" >
   <v>       0.00000000       0.00000000       0.00000000 </v>
   <v>       0.25000000       0.00000000       0.00000000 </v>
   <v>       0.50000000       0.00000000       0.00000000 </v>
   <v>       0.00000000       0.25000000       0.00000000 </v>
   <v>       0.25000000       0.25000000       0.00000000 </v>
   <v>       0.50000000       0.25000000       0.00000000 </v>
   <v>      -0.25000000       0.25000000       0.00000000 </v>
   <v>       0.00000000       0.50000000       0.00000000 </v>
   <v>       0.25000000       0.50000000       0.00000000 </v>
   <v>       0.50000000       0.50000000       0.00000000 </v>
  </varray>
  <varray name="weights" >
   <v>       0.06250000 </v>
   <v>       0.12500000 </v>
   <v>       0.06250000 </v>
   <v>       0.12500000 </v>
   <v>       0.12500000 </v>
   <v>       0.12500000 </v>
   <v>       0.12500000 </v>
   <v>       0.06250000 </v>
   <v>       0.12500000 </v>
   <v>       0.06250000 </v>
  </varray>
 </kpoints>
 <parameters>
  <separator name="general" >
   <i type="string" name="SYSTEM">unknown system</i>
   <i type="logical" name="LCOMPAT"> F  </i>
  </separator>
  <separator name="electronic" >
   <i type="string" name="PREC">accura</i>
   <i name="ENMAX">    450.00000000</i>
   <i name="ENAUG">    838.43500000</i>
   <i name="EDIFF">      0.00000100</i>
   <i type="int" name="IALGO">    68</i>
   <i type="int" name="IWAVPR">    11</i>
   <i type="int" name="NBANDS">  1386</i>
   <i name="NELECT">   2290.00000000</i>
   <i type="int" name="TURBO">     0</i>
   <i type="int" name="IRESTART">     0</i>
   <i type="int" name="NREBOOT">     0</i>
   <i type="int" name="NMIN">     0</i>
   <i name="EREF">      0.00000000</i>
   <separator name="electronic smearing" >
    <i type="int" name="ISMEAR">     0</i>
    <i name="SIGMA">      0.15000000</i>
    <i name="KSPACING">      0.50000000</i>
    <i type="logical" name="KGAMMA"> T  </i>
   </separator>
   <separator name="electronic projectors" >
    <i type="logical" name="LREAL"> T  </i>
    <v name="ROPT">     -0.00025000     -0.00025000</v>
    <i type="int" name="LMAXPAW">  -100</i>
    <i type="int" name="LMAXMIX">     2</i>
    <i type="logical" name="NLSPLINE"> F  </i>
   </separator>
   <separator name="electronic startup" >
    <i type="int" name="ISTART">     0</i>
    <i type="int" name="ICHARG">     2</i>
    <i type="int" name="INIWAV">     1</i>
   </separator>
   <separator name="electronic spin" >
    <i type="int" name="ISPIN">     1</i>
    <i type="logical" name="LNONCOLLINEAR"> F  </i>
    <v name="MAGMOM">      1.00000000      1.00000000      1.00000000      1.00000000      1.00000000      1.00000000      1.00000000      1.00000000      1.00000000      1.00000000      1.00000000      1.00000000      1.00000000      1.00000000      1.00000000      1.00000000      1.00000000      1.00000000      1.00000000      1.00000000
      1.00000000      1.00000000      1.00000000      1.00000000      1.00000000      1.00000000      1.00000000      1.00000000      1.00000000      1.00000000      1.00000000      1.00000000      1.00000000      1.00000000      1.00000000      1.00000000      1.00000000      1.00000000      1.00000000      1.00000000
      1.00000000      1.00000000      1.00000000      1.00000000      1.00000000      1.00000000      1.00000000      1.00000000      1.00000000      1.00000000      1.00000000      1.00000000      1.00000000      1.00000000      1.00000000      1.00000000      1.00000000      1.00000000      1.00000000      1.00000000
      1.00000000      1.00000000      1.00000000      1.00000000      1.00000000      1.00000000      1.00000000      1.00000000      1.00000000      1.00000000      1.00000000      1.00000000      1.00000000      1.00000000      1.00000000      1.00000000      1.00000000      1.00000000      1.00000000      1.00000000
      1.00000000      1.00000000      1.00000000      1.00000000      1.00000000      1.00000000      1.00000000      1.00000000      1.00000000      1.00000000      1.00000000      1.00000000      1.00000000      1.00000000      1.00000000      1.00000000      1.00000000      1.00000000      1.00000000      1.00000000
      1.00000000      1.00000000      1.00000000      1.00000000      1.00000000      1.00000000      1.00000000      1.00000000      1.00000000      1.00000000      1.00000000      1.00000000      1.00000000      1.00000000      1.00000000      1.00000000      1.00000000      1.00000000      1.00000000      1.00000000
      1.00000000      1.00000000      1.00000000      1.00000000      1.00000000      1.00000000      1.00000000      1.00000000      1.00000000      1.00000000      1.00000000      1.00000000      1.00000000      1.00000000      1.00000000      1.00000000      1.00000000      1.00000000      1.00000000      1.00000000
      1.00000000      1.00000000      1.00000000      1.00000000      1.00000000      1.00000000      1.00000000      1.00000000      1.00000000      1.00000000      1.00000000      1.00000000      1.00000000      1.00000000      1.00000000      1.00000000      1.00000000      1.00000000      1.00000000      1.00000000
      1.00000000      1.00000000      1.00000000      1.00000000      1.00000000      1.00000000      1.00000000      1.00000000      1.00000000      1.00000000      1.00000000      1.00000000      1.00000000      1.00000000      1.00000000      1.00000000      1.00000000      1.00000000      1.00000000      1.00000000
      1.00000000      1.00000000      1.00000000      1.00000000      1.00000000      1.00000000      1.00000000      1.00000000      1.00000000      1.00000000      1.00000000      1.00000000      1.00000000      1.00000000      1.00000000      1.00000000      1.00000000      1.00000000      1.00000000      1.00000000
      1.00000000      1.00000000      1.00000000      1.00000000      1.00000000      1.00000000      1.00000000      1.00000000      1.00000000      1.00000000      1.00000000      1.00000000      1.00000000      1.00000000      1.00000000      1.00000000      1.00000000      1.00000000      1.00000000      1.00000000
      1.00000000      1.00000000      1.00000000      1.00000000      1.00000000      1.00000000      1.00000000      1.00000000      1.00000000      1.00000000      1.00000000      1.00000000      1.00000000      1.00000000      1.00000000      1.00000000      1.00000000      1.00000000      1.00000000      1.00000000
      1.00000000      1.00000000      1.00000000      1.00000000      1.00000000      1.00000000      1.00000000      1.00000000      1.00000000      1.00000000      1.00000000      1.00000000      1.00000000      1.00000000      1.00000000      1.00000000      1.00000000      1.00000000      1.00000000      1.00000000
      1.00000000      1.00000000      1.00000000      1.00000000      1.00000000      1.00000000      1.00000000      1.00000000      1.00000000      1.00000000      1.00000000      1.00000000      1.00000000      1.00000000      1.00000000      1.00000000      1.00000000      1.00000000      1.00000000      1.00000000
      1.00000000      1.00000000      1.00000000      1.00000000      1.00000000      1.00000000      1.00000000      1.00000000</v>
    <i name="NUPDOWN">     -1.00000000</i>
    <i type="logical" name="LSORBIT"> F  </i>
    <v name="SAXIS">      0.00000000      0.00000000      1.00000000</v>
    <i type="logical" name="LSPIRAL"> F  </i>
    <v name="QSPIRAL">      0.00000000      0.00000000      0.00000000</v>
    <i type="logical" name="LZEROZ"> F  </i>
   </separator>
   <separator name="electronic exchange-correlation" >
    <i type="logical" name="LASPH"> F  </i>
    <i type="logical" name="LMETAGGA"> F  </i>
   </separator>
   <separator name="electronic convergence" >
    <i type="int" name="NELM">   100</i>
    <i type="int" name="NELMDL">     0</i>
    <i type="int" name="NELMIN">     4</i>
    <i name="ENINI">    450.00000000</i>
    <separator name="electronic convergence detail" >
     <i type="logical" name="LDIAG"> T  </i>
     <i type="logical" name="LSUBROT"> F  </i>
     <i name="WEIMIN">      0.00100000</i>
     <i name="EBREAK">      0.00000000</i>
     <i name="DEPER">      0.30000000</i>
     <i type="int" name="NRMM">     4</i>
     <i name="TIME">      0.40000000</i>
    </separator>
   </separator>
   <separator name="electronic mixer" >
    <i name="AMIX">      0.40000000</i>
    <i name="BMIX">      1.00000000</i>
    <i name="AMIN">      0.10000000</i>
    <i name="AMIX_MAG">      1.60000000</i>
    <i name="BMIX_MAG">      1.00000000</i>
    <separator name="electronic mixer details" >
     <i type="int" name="IMIX">     4</i>
     <i type="logical" name="MIXFIRST"> F  </i>
     <i type="int" name="MAXMIX">   -45</i>
     <i name="WC">    100.00000000</i>
     <i type="int" name="INIMIX">     1</i>
     <i type="int" name="MIXPRE">     1</i>
     <i type="int" name="MREMOVE">     5</i>
    </separator>
   </separator>
   <separator name="electronic dipolcorrection" >
    <i type="logical" name="LDIPOL"> F  </i>
    <i type="logical" name="LMONO"> F  </i>
    <i type="int" name="IDIPOL">     0</i>
    <i name="EPSILON">      1.00000000</i>
    <v name="DIPOL">   -100.00000000   -100.00000000   -100.00000000</v>
    <i name="EFIELD">      0.00000000</i>
   </separator>
  </separator>
  <separator name="grids" >
   <i type="int" name="NGX">    70</i>
   <i type="int" name="NGY">    60</i>
   <i type="int" name="NGZ">   320</i>
   <i type="int" name="NGXF">   140</i>
   <i type="int" name="NGYF">   120</i>
   <i type="int" name="NGZF">   640</i>
   <i type="logical" name="ADDGRID"> F  </i>
  </separator>
  <separator name="ionic" >
   <i type="int" name="NSW">     5</i>
   <i type="int" name="IBRION">     2</i>
   <i type="int" name="MDALGO">     0</i>
   <i type="int" name="ISIF">     2</i>
   <i name="PSTRESS">      0.00000000</i>
   <i name="EDIFFG">      0.00001000</i>
   <i type="int" name="NFREE">     1</i>
   <i name="POTIM">      0.25000000</i>
   <i name="SMASS">     -3.00000000</i>
   <i name="SCALEE">      1.00000000</i>
  </separator>
  <separator name="ionic md" >
   <i name="TEBEG">      0.00010000</i>
   <i name="TEEND">      0.00010000</i>
   <i type="int" name="NBLOCK">     1</i>
   <i type="int" name="KBLOCK">     5</i>
   <i type="int" name="NPACO">   256</i>
   <i name="APACO">     16.00000000</i>
  </separator>
  <separator name="symmetry" >
   <i type="int" name="ISYM">     2</i>
   <i name="SYMPREC">      0.00001000</i>
  </separator>
  <separator name="dos" >
   <i type="int" name="LORBIT">     0</i>
   <v name="RWIGS">     -1.00000000     -1.00000000</v>
   <i type="int" name="NEDOS">   301</i>
   <i name="EMIN">     10.00000000</i>
   <i name="EMAX">    -10.00000000</i>
   <i name="EFERMI">      0.00000000</i>
  </separator>
  <separator name="writing" >
   <i type="int" name="NWRITE">     2</i>
   <i type="logical" name="LWAVE"> F  </i>
   <i type="logical" name="LDOWNSAMPLE"> F  </i>
   <i type="logical" name="LCHARG"> F  </i>
   <i type="logical" name="LPARD"> F  </i>
   <i type="logical" name="LVTOT"> F  </i>
   <i type="logical" name="LVHAR"> F  </i>
   <i type="logical" name="LELF"> F  </i>
   <i type="logical" name="LOPTICS"> F  </i>
   <v name="STM">      0.00000000      0.00000000      0.00000000      0.00000000      0.00000000      0.00000000      0.00000000</v>
  </separator>
  <separator name="performance" >
   <i type="int" name="NPAR">    14</i>
   <i type="int" name="NSIM">     4</i>
   <i type="int" name="NBLK">    -1</i>
   <i type="logical" name="LPLANE"> T  </i>
   <i type="logical" name="LSCALAPACK"> T  </i>
   <i type="logical" name="LSCAAWARE"> T  </i>
   <i type="logical" name="LSCALU"> F  </i>
   <i type="logical" name="LASYNC"> F  </i>
   <i type="logical" name="LORBITALREAL"> F  </i>
  </separator>
  <separator name="miscellaneous" >
   <i type="int" name="IDIOT">     3</i>
   <i type="int" name="ISPECIAL">     0</i>
   <i type="logical" name="LMUSIC"> F  </i>
   <v name="POMASS">     55.84700000     54.93800000</v>
   <v name="DARWINR">      0.00000000      0.00000000</v>
   <v name="DARWINV">      1.00000000      1.00000000</v>
   <i type="logical" name="LCORR"> T  </i>
  </separator>
  <i type="logical" name="GGA_COMPAT"> T  </i>
  <i type="logical" name="LBERRY"> F  </i>
  <i type="int" name="ICORELEVEL">     0</i>
  <i type="logical" name="LDAU"> F  </i>
  <i type="int" name="I_CONSTRAINED_M">     0</i>
  <separator name="electronic exchange-correlation" >
   <i type="string" name="GGA">--</i>
   <i type="int" name="VOSKOWN">     0</i>
   <i type="logical" name="LHFCALC"> F  </i>
   <i type="string" name="PRECFOCK"></i>
   <i type="logical" name="LSYMGRAD"> F  </i>
   <i type="logical" name="LHFONE"> F  </i>
   <i type="logical" name="LRHFCALC"> F  </i>
   <i type="logical" name="LTHOMAS"> F  </i>
   <i type="logical" name="LMODELHF"> F  </i>
   <i name="ENCUT4O">     -1.00000000</i>
   <i type="int" name="EXXOEP">     0</i>
   <i type="int" name="FOURORBIT">     0</i>
   <i name="AEXX">      0.00000000</i>
   <i name="HFALPHA">      0.00000000</i>
   <i name="MCALPHA">      0.00000000</i>
   <i name="ALDAX">      1.00000000</i>
   <i name="AGGAX">      1.00000000</i>
   <i name="ALDAC">      1.00000000</i>
   <i name="AGGAC">      1.00000000</i>
   <i type="int" name="NKREDX">     1</i>
   <i type="int" name="NKREDY">     1</i>
   <i type="int" name="NKREDZ">     1</i>
   <i type="logical" name="SHIFTRED"> F  </i>
   <i type="logical" name="ODDONLY"> F  </i>
   <i type="logical" name="EVENONLY"> F  </i>
   <i type="int" name="LMAXFOCK">     0</i>
   <i type="int" name="NMAXFOCKAE">     0</i>
   <i type="logical" name="LFOCKAEDFT"> F  </i>
   <i name="HFSCREEN">      0.00000000</i>
   <i name="HFSCREENC">      0.00000000</i>
   <i type="int" name="NBANDSGWLOW">     0</i>
  </separator>
  <separator name="vdW DFT" >
   <i type="logical" name="LUSE_VDW"> F  </i>
   <i name="Zab_VDW">     -0.84910000</i>
   <i name="PARAM1">      0.12340000</i>
   <i name="PARAM2">      1.00000000</i>
   <i name="PARAM3">      0.00000000</i>
  </separator>
  <separator name="model GW" >
   <i type="int" name="MODEL_GW">     0</i>
   <i name="MODEL_EPS0">      7.68123389</i>
   <i name="MODEL_ALPHA">      1.00000000</i>
  </separator>
  <separator name="linear response parameters" >
   <i type="logical" name="LEPSILON"> F  </i>
   <i type="logical" name="LRPA"> F  </i>
   <i type="logical" name="LNABLA"> F  </i>
   <i type="logical" name="LVEL"> F  </i>
   <i type="int" name="KINTER">     0</i>
   <i name="CSHIFT">      0.10000000</i>
   <i name="OMEGAMAX">     -1.00000000</i>
   <i name="DEG_THRESHOLD">      0.00200000</i>
   <i name="RTIME">     -0.10000000</i>
   <i name="WPLASMAI">      0.00000000</i>
   <v name="DFIELD">      0.00000000      0.00000000      0.00000000</v>
   <v name="WPLASMA">      0.00000000      0.00000000      0.00000000      0.00000000      0.00000000      0.00000000      0.00000000      0.00000000      0.00000000</v>
  </separator>
  <separator name="orbital magnetization" >
   <i type="logical" name="NUCIND"> F  </i>
   <v name="MAGPOS">      0.00000000      0.00000000      0.00000000</v>
   <i type="logical" name="LNICSALL"> T  </i>
   <i type="logical" name="ORBITALMAG"> F  </i>
   <i type="logical" name="LMAGBLOCH"> F  </i>
   <i type="logical" name="LCHIMAG"> F  </i>
   <i type="logical" name="LGAUGE"> T  </i>
   <i type="int" name="MAGATOM">     0</i>
   <v name="MAGDIPOL">      0.00000000      0.00000000      0.00000000</v>
   <v name="AVECCONST">      0.00000000      0.00000000      0.00000000</v>
  </separator>
  <separator name="response functions" >
   <i type="logical" name="LADDER"> F  </i>
   <i type="logical" name="LRPAFORCE"> F  </i>
   <i type="logical" name="LFXC"> F  </i>
   <i type="logical" name="LHARTREE"> T  </i>
   <i type="int" name="IBSE">     0</i>
   <v type="int" name="KPOINT">    -1     0     0     0</v>
   <i type="logical" name="LTCTE"> F  </i>
   <i type="logical" name="LTETE"> F  </i>
   <i type="logical" name="LTRIPLET"> F  </i>
   <i type="logical" name="LFXCEPS"> F  </i>
   <i type="logical" name="LFXHEG"> F  </i>
   <i type="int" name="NATURALO">     2</i>
   <i type="logical" name="L2ORDER"> F  </i>
   <i type="logical" name="LMP2LT"> F  </i>
   <i type="logical" name="LUSEW"> F  </i>
   <i name="ENCUTGW">     -2.00000000</i>
   <i name="ENCUTGWSOFT">     -2.00000000</i>
   <i name="ENCUTLF">     -1.00000000</i>
   <i type="int" name="LMAXMP2">    -1</i>
   <i name="SCISSOR">      0.00000000</i>
   <i type="int" name="NOMEGA">     0</i>
   <i type="int" name="NOMEGAR">     0</i>
   <i type="int" name="NBANDSGW">    -1</i>
   <i type="int" name="NBANDSO">    -1</i>
   <i type="int" name="NBANDSV">    -1</i>
   <i type="int" name="NELM">   100</i>
   <i type="int" name="NELMHF">     1</i>
   <i type="int" name="DIM">     3</i>
   <i type="int" name="ANTIRES">     0</i>
   <i name="OMEGAMAX">    -30.00000000</i>
   <i name="OMEGAMIN">    -30.00000000</i>
   <i name="OMEGATL">   -200.00000000</i>
   <i type="int" name="OMEGAGRID">   140</i>
   <i name="CSHIFT">     -0.10000000</i>
   <i type="logical" name="SELFENERGY"> F  </i>
   <i type="logical" name="LSPECTRAL"> F  </i>
   <i type="logical" name="LSPECTRALGW"> F  </i>
   <i type="logical" name="LSINGLES"> F  </i>
   <i type="logical" name="LFERMIGW"> F  </i>
   <i type="logical" name="ODDONLYGW"> F  </i>
   <i type="logical" name="EVENONLYGW"> F  </i>
   <i type="int" name="NKREDLFX">     1</i>
   <i type="int" name="NKREDLFY">     1</i>
   <i type="int" name="NKREDLFZ">     1</i>
   <i type="int" name="MAXMEM">  2800</i>
   <i type="int" name="TELESCOPE">     0</i>
   <i type="int" name="TAUPAR">     1</i>
   <i type="int" name="OMEGAPAR">    -1</i>
   <i name="LAMBDA">      1.00000000</i>
  </separator>
  <separator name="External order field" >
   <i name="OFIELD_KAPPA">      0.00000000</i>
   <v name="OFIELD_K">      0.00000000      0.00000000      0.00000000</v>
   <i name="OFIELD_Q6_NEAR">      0.00000000</i>
   <i name="OFIELD_Q6_FAR">      0.00000000</i>
   <i name="OFIELD_A">      0.00000000</i>
  </separator>
 </parameters>
 <atominfo>
  <atoms>     288 </atoms>
  <types>       2 </types>
  <array name="atoms" >
   <dimension dim="1">ion</dimension>
   <field type="string">element</field>
   <field type="int">atomtype</field>
   <set>
    <rc><c>Fe</c><c>   1</c></rc>
    <rc><c>Fe</c><c>   1</c></rc>
    <rc><c>Fe</c><c>   1</c></rc>
    <rc><c>Fe</c><c>   1</c></rc>
    <rc><c>Fe</c><c>   1</c></rc>
    <rc><c>Fe</c><c>   1</c></rc>
    <rc><c>Fe</c><c>   1</c></rc>
    <rc><c>Fe</c><c>   1</c></rc>
    <rc><c>Fe</c><c>   1</c></rc>
    <rc><c>Fe</c><c>   1</c></rc>
    <rc><c>Fe</c><c>   1</c></rc>
    <rc><c>Fe</c><c>   1</c></rc>
    <rc><c>Fe</c><c>   1</c></rc>
    <rc><c>Fe</c><c>   1</c></rc>
    <rc><c>Fe</c><c>   1</c></rc>
    <rc><c>Fe</c><c>   1</c></rc>
    <rc><c>Fe</c><c>   1</c></rc>
    <rc><c>Fe</c><c>   1</c></rc>
    <rc><c>Fe</c><c>   1</c></rc>
    <rc><c>Fe</c><c>   1</c></rc>
    <rc><c>Fe</c><c>   1</c></rc>
    <rc><c>Fe</c><c>   1</c></rc>
    <rc><c>Fe</c><c>   1</c></rc>
    <rc><c>Fe</c><c>   1</c></rc>
    <rc><c>Fe</c><c>   1</c></rc>
    <rc><c>Fe</c><c>   1</c></rc>
    <rc><c>Fe</c><c>   1</c></rc>
    <rc><c>Fe</c><c>   1</c></rc>
    <rc><c>Fe</c><c>   1</c></rc>
    <rc><c>Fe</c><c>   1</c></rc>
    <rc><c>Fe</c><c>   1</c></rc>
    <rc><c>Fe</c><c>   1</c></rc>
    <rc><c>Fe</c><c>   1</c></rc>
    <rc><c>Fe</c><c>   1</c></rc>
    <rc><c>Fe</c><c>   1</c></rc>
    <rc><c>Fe</c><c>   1</c></rc>
    <rc><c>Fe</c><c>   1</c></rc>
    <rc><c>Fe</c><c>   1</c></rc>
    <rc><c>Fe</c><c>   1</c></rc>
    <rc><c>Fe</c><c>   1</c></rc>
    <rc><c>Fe</c><c>   1</c></rc>
    <rc><c>Fe</c><c>   1</c></rc>
    <rc><c>Fe</c><c>   1</c></rc>
    <rc><c>Fe</c><c>   1</c></rc>
    <rc><c>Fe</c><c>   1</c></rc>
    <rc><c>Fe</c><c>   1</c></rc>
    <rc><c>Fe</c><c>   1</c></rc>
    <rc><c>Fe</c><c>   1</c></rc>
    <rc><c>Fe</c><c>   1</c></rc>
    <rc><c>Fe</c><c>   1</c></rc>
    <rc><c>Fe</c><c>   1</c></rc>
    <rc><c>Fe</c><c>   1</c></rc>
    <rc><c>Fe</c><c>   1</c></rc>
    <rc><c>Fe</c><c>   1</c></rc>
    <rc><c>Fe</c><c>   1</c></rc>
    <rc><c>Fe</c><c>   1</c></rc>
    <rc><c>Fe</c><c>   1</c></rc>
    <rc><c>Fe</c><c>   1</c></rc>
    <rc><c>Fe</c><c>   1</c></rc>
    <rc><c>Fe</c><c>   1</c></rc>
    <rc><c>Fe</c><c>   1</c></rc>
    <rc><c>Fe</c><c>   1</c></rc>
    <rc><c>Fe</c><c>   1</c></rc>
    <rc><c>Fe</c><c>   1</c></rc>
    <rc><c>Fe</c><c>   1</c></rc>
    <rc><c>Fe</c><c>   1</c></rc>
    <rc><c>Fe</c><c>   1</c></rc>
    <rc><c>Fe</c><c>   1</c></rc>
    <rc><c>Fe</c><c>   1</c></rc>
    <rc><c>Fe</c><c>   1</c></rc>
    <rc><c>Fe</c><c>   1</c></rc>
    <rc><c>Fe</c><c>   1</c></rc>
    <rc><c>Fe</c><c>   1</c></rc>
    <rc><c>Fe</c><c>   1</c></rc>
    <rc><c>Fe</c><c>   1</c></rc>
    <rc><c>Fe</c><c>   1</c></rc>
    <rc><c>Fe</c><c>   1</c></rc>
    <rc><c>Fe</c><c>   1</c></rc>
    <rc><c>Fe</c><c>   1</c></rc>
    <rc><c>Fe</c><c>   1</c></rc>
    <rc><c>Fe</c><c>   1</c></rc>
    <rc><c>Fe</c><c>   1</c></rc>
    <rc><c>Fe</c><c>   1</c></rc>
    <rc><c>Fe</c><c>   1</c></rc>
    <rc><c>Fe</c><c>   1</c></rc>
    <rc><c>Fe</c><c>   1</c></rc>
    <rc><c>Fe</c><c>   1</c></rc>
    <rc><c>Fe</c><c>   1</c></rc>
    <rc><c>Fe</c><c>   1</c></rc>
    <rc><c>Fe</c><c>   1</c></rc>
    <rc><c>Fe</c><c>   1</c></rc>
    <rc><c>Fe</c><c>   1</c></rc>
    <rc><c>Fe</c><c>   1</c></rc>
    <rc><c>Fe</c><c>   1</c></rc>
    <rc><c>Fe</c><c>   1</c></rc>
    <rc><c>Fe</c><c>   1</c></rc>
    <rc><c>Fe</c><c>   1</c></rc>
    <rc><c>Fe</c><c>   1</c></rc>
    <rc><c>Fe</c><c>   1</c></rc>
    <rc><c>Fe</c><c>   1</c></rc>
    <rc><c>Fe</c><c>   1</c></rc>
    <rc><c>Fe</c><c>   1</c></rc>
    <rc><c>Fe</c><c>   1</c></rc>
    <rc><c>Fe</c><c>   1</c></rc>
    <rc><c>Fe</c><c>   1</c></rc>
    <rc><c>Fe</c><c>   1</c></rc>
    <rc><c>Fe</c><c>   1</c></rc>
    <rc><c>Fe</c><c>   1</c></rc>
    <rc><c>Fe</c><c>   1</c></rc>
    <rc><c>Fe</c><c>   1</c></rc>
    <rc><c>Fe</c><c>   1</c></rc>
    <rc><c>Fe</c><c>   1</c></rc>
    <rc><c>Fe</c><c>   1</c></rc>
    <rc><c>Fe</c><c>   1</c></rc>
    <rc><c>Fe</c><c>   1</c></rc>
    <rc><c>Fe</c><c>   1</c></rc>
    <rc><c>Fe</c><c>   1</c></rc>
    <rc><c>Fe</c><c>   1</c></rc>
    <rc><c>Fe</c><c>   1</c></rc>
    <rc><c>Fe</c><c>   1</c></rc>
    <rc><c>Fe</c><c>   1</c></rc>
    <rc><c>Fe</c><c>   1</c></rc>
    <rc><c>Fe</c><c>   1</c></rc>
    <rc><c>Fe</c><c>   1</c></rc>
    <rc><c>Fe</c><c>   1</c></rc>
    <rc><c>Fe</c><c>   1</c></rc>
    <rc><c>Fe</c><c>   1</c></rc>
    <rc><c>Fe</c><c>   1</c></rc>
    <rc><c>Fe</c><c>   1</c></rc>
    <rc><c>Fe</c><c>   1</c></rc>
    <rc><c>Fe</c><c>   1</c></rc>
    <rc><c>Fe</c><c>   1</c></rc>
    <rc><c>Fe</c><c>   1</c></rc>
    <rc><c>Fe</c><c>   1</c></rc>
    <rc><c>Fe</c><c>   1</c></rc>
    <rc><c>Fe</c><c>   1</c></rc>
    <rc><c>Fe</c><c>   1</c></rc>
    <rc><c>Fe</c><c>   1</c></rc>
    <rc><c>Fe</c><c>   1</c></rc>
    <rc><c>Fe</c><c>   1</c></rc>
    <rc><c>Fe</c><c>   1</c></rc>
    <rc><c>Fe</c><c>   1</c></rc>
    <rc><c>Fe</c><c>   1</c></rc>
    <rc><c>Fe</c><c>   1</c></rc>
    <rc><c>Fe</c><c>   1</c></rc>
    <rc><c>Fe</c><c>   1</c></rc>
    <rc><c>Fe</c><c>   1</c></rc>
    <rc><c>Fe</c><c>   1</c></rc>
    <rc><c>Fe</c><c>   1</c></rc>
    <rc><c>Fe</c><c>   1</c></rc>
    <rc><c>Fe</c><c>   1</c></rc>
    <rc><c>Fe</c><c>   1</c></rc>
    <rc><c>Fe</c><c>   1</c></rc>
    <rc><c>Fe</c><c>   1</c></rc>
    <rc><c>Fe</c><c>   1</c></rc>
    <rc><c>Fe</c><c>   1</c></rc>
    <rc><c>Fe</c><c>   1</c></rc>
    <rc><c>Fe</c><c>   1</c></rc>
    <rc><c>Fe</c><c>   1</c></rc>
    <rc><c>Fe</c><c>   1</c></rc>
    <rc><c>Fe</c><c>   1</c></rc>
    <rc><c>Fe</c><c>   1</c></rc>
    <rc><c>Fe</c><c>   1</c></rc>
    <rc><c>Fe</c><c>   1</c></rc>
    <rc><c>Fe</c><c>   1</c></rc>
    <rc><c>Fe</c><c>   1</c></rc>
    <rc><c>Fe</c><c>   1</c></rc>
    <rc><c>Fe</c><c>   1</c></rc>
    <rc><c>Fe</c><c>   1</c></rc>
    <rc><c>Fe</c><c>   1</c></rc>
    <rc><c>Fe</c><c>   1</c></rc>
    <rc><c>Fe</c><c>   1</c></rc>
    <rc><c>Fe</c><c>   1</c></rc>
    <rc><c>Fe</c><c>   1</c></rc>
    <rc><c>Fe</c><c>   1</c></rc>
    <rc><c>Fe</c><c>   1</c></rc>
    <rc><c>Fe</c><c>   1</c></rc>
    <rc><c>Fe</c><c>   1</c></rc>
    <rc><c>Fe</c><c>   1</c></rc>
    <rc><c>Fe</c><c>   1</c></rc>
    <rc><c>Fe</c><c>   1</c></rc>
    <rc><c>Fe</c><c>   1</c></rc>
    <rc><c>Fe</c><c>   1</c></rc>
    <rc><c>Fe</c><c>   1</c></rc>
    <rc><c>Fe</c><c>   1</c></rc>
    <rc><c>Fe</c><c>   1</c></rc>
    <rc><c>Fe</c><c>   1</c></rc>
    <rc><c>Fe</c><c>   1</c></rc>
    <rc><c>Fe</c><c>   1</c></rc>
    <rc><c>Fe</c><c>   1</c></rc>
    <rc><c>Fe</c><c>   1</c></rc>
    <rc><c>Fe</c><c>   1</c></rc>
    <rc><c>Fe</c><c>   1</c></rc>
    <rc><c>Fe</c><c>   1</c></rc>
    <rc><c>Fe</c><c>   1</c></rc>
    <rc><c>Fe</c><c>   1</c></rc>
    <rc><c>Fe</c><c>   1</c></rc>
    <rc><c>Fe</c><c>   1</c></rc>
    <rc><c>Fe</c><c>   1</c></rc>
    <rc><c>Fe</c><c>   1</c></rc>
    <rc><c>Fe</c><c>   1</c></rc>
    <rc><c>Fe</c><c>   1</c></rc>
    <rc><c>Fe</c><c>   1</c></rc>
    <rc><c>Fe</c><c>   1</c></rc>
    <rc><c>Fe</c><c>   1</c></rc>
    <rc><c>Fe</c><c>   1</c></rc>
    <rc><c>Fe</c><c>   1</c></rc>
    <rc><c>Fe</c><c>   1</c></rc>
    <rc><c>Fe</c><c>   1</c></rc>
    <rc><c>Fe</c><c>   1</c></rc>
    <rc><c>Fe</c><c>   1</c></rc>
    <rc><c>Fe</c><c>   1</c></rc>
    <rc><c>Fe</c><c>   1</c></rc>
    <rc><c>Fe</c><c>   1</c></rc>
    <rc><c>Fe</c><c>   1</c></rc>
    <rc><c>Fe</c><c>   1</c></rc>
    <rc><c>Fe</c><c>   1</c></rc>
    <rc><c>Fe</c><c>   1</c></rc>
    <rc><c>Fe</c><c>   1</c></rc>
    <rc><c>Fe</c><c>   1</c></rc>
    <rc><c>Fe</c><c>   1</c></rc>
    <rc><c>Fe</c><c>   1</c></rc>
    <rc><c>Fe</c><c>   1</c></rc>
    <rc><c>Fe</c><c>   1</c></rc>
    <rc><c>Fe</c><c>   1</c></rc>
    <rc><c>Fe</c><c>   1</c></rc>
    <rc><c>Fe</c><c>   1</c></rc>
    <rc><c>Fe</c><c>   1</c></rc>
    <rc><c>Fe</c><c>   1</c></rc>
    <rc><c>Fe</c><c>   1</c></rc>
    <rc><c>Fe</c><c>   1</c></rc>
    <rc><c>Fe</c><c>   1</c></rc>
    <rc><c>Fe</c><c>   1</c></rc>
    <rc><c>Fe</c><c>   1</c></rc>
    <rc><c>Fe</c><c>   1</c></rc>
    <rc><c>Fe</c><c>   1</c></rc>
    <rc><c>Fe</c><c>   1</c></rc>
    <rc><c>Fe</c><c>   1</c></rc>
    <rc><c>Fe</c><c>   1</c></rc>
    <rc><c>Fe</c><c>   1</c></rc>
    <rc><c>Fe</c><c>   1</c></rc>
    <rc><c>Fe</c><c>   1</c></rc>
    <rc><c>Fe</c><c>   1</c></rc>
    <rc><c>Fe</c><c>   1</c></rc>
    <rc><c>Fe</c><c>   1</c></rc>
    <rc><c>Fe</c><c>   1</c></rc>
    <rc><c>Fe</c><c>   1</c></rc>
    <rc><c>Fe</c><c>   1</c></rc>
    <rc><c>Fe</c><c>   1</c></rc>
    <rc><c>Fe</c><c>   1</c></rc>
    <rc><c>Fe</c><c>   1</c></rc>
    <rc><c>Fe</c><c>   1</c></rc>
    <rc><c>Fe</c><c>   1</c></rc>
    <rc><c>Fe</c><c>   1</c></rc>
    <rc><c>Fe</c><c>   1</c></rc>
    <rc><c>Fe</c><c>   1</c></rc>
    <rc><c>Fe</c><c>   1</c></rc>
    <rc><c>Fe</c><c>   1</c></rc>
    <rc><c>Fe</c><c>   1</c></rc>
    <rc><c>Fe</c><c>   1</c></rc>
    <rc><c>Fe</c><c>   1</c></rc>
    <rc><c>Fe</c><c>   1</c></rc>
    <rc><c>Fe</c><c>   1</c></rc>
    <rc><c>Fe</c><c>   1</c></rc>
    <rc><c>Fe</c><c>   1</c></rc>
    <rc><c>Fe</c><c>   1</c></rc>
    <rc><c>Fe</c><c>   1</c></rc>
    <rc><c>Fe</c><c>   1</c></rc>
    <rc><c>Fe</c><c>   1</c></rc>
    <rc><c>Fe</c><c>   1</c></rc>
    <rc><c>Fe</c><c>   1</c></rc>
    <rc><c>Fe</c><c>   1</c></rc>
    <rc><c>Fe</c><c>   1</c></rc>
    <rc><c>Fe</c><c>   1</c></rc>
    <rc><c>Mn</c><c>   2</c></rc>
    <rc><c>Mn</c><c>   2</c></rc>
    <rc><c>Mn</c><c>   2</c></rc>
    <rc><c>Mn</c><c>   2</c></rc>
    <rc><c>Mn</c><c>   2</c></rc>
    <rc><c>Mn</c><c>   2</c></rc>
    <rc><c>Mn</c><c>   2</c></rc>
    <rc><c>Mn</c><c>   2</c></rc>
    <rc><c>Mn</c><c>   2</c></rc>
    <rc><c>Mn</c><c>   2</c></rc>
    <rc><c>Mn</c><c>   2</c></rc>
    <rc><c>Mn</c><c>   2</c></rc>
    <rc><c>Mn</c><c>   2</c></rc>
    <rc><c>Mn</c><c>   2</c></rc>
   </set>
  </array>
  <array name="atomtypes" >
   <dimension dim="1">type</dimension>
   <field type="int">atomspertype</field>
   <field type="string">element</field>
   <field>mass</field>
   <field>valence</field>
   <field type="string">pseudopotential</field>
   <set>
    <rc><c> 274</c><c>Fe</c><c>     55.84700000</c><c>      8.00000000</c><c>  PAW_PBE Fe_GW 31Mar2010               </c></rc>
    <rc><c>  14</c><c>Mn</c><c>     54.93800000</c><c>      7.00000000</c><c>  PAW_PBE Mn_GW 31Mar2010               </c></rc>
   </set>
  </array>
 </atominfo>
 <structure name="initialpos" >
  <crystal>
   <varray name="basis" >
    <v>       9.72667804       0.00000000       0.00000000 </v>
    <v>       0.00000000       8.42355028       0.00000000 </v>
    <v>       0.00000000       0.00000000      45.00000000 </v>
   </varray>
   <i name="volume">   3686.99226691 </i>
   <varray name="rec_basis" >
    <v>       0.10281002       0.00000000       0.00000000 </v>
    <v>       0.00000000       0.11871479       0.00000000 </v>
    <v>       0.00000000       0.00000000       0.02222222 </v>
   </varray>
  </crystal>
  <varray name="positions" >
   <v>       0.06206731       0.03284242       0.12450038 </v>
   <v>       0.31534975       0.87354312       0.65470796 </v>
   <v>       0.18674652       0.11904346       0.78794796 </v>
   <v>       0.43957991       0.28974815       0.38922930 </v>
   <v>       0.31594127       0.71057285       0.83237829 </v>
   <v>       0.81643269       0.21330286       0.83346669 </v>
   <v>       0.18916269       0.96080106       0.83301581 </v>
   <v>       0.56242659       0.20743148       0.56538579 </v>
   <v>       0.06562784       0.03817289       0.74362030 </v>
   <v>       0.81133005       0.87119863       0.52133082 </v>
   <v>       0.19073563       0.29014433       0.74390976 </v>
   <v>       0.93439265       0.45299405       0.34502053 </v>
   <v>       0.93886005       0.28995306       0.38928191 </v>
   <v>       0.81177773       0.03763530       0.87536469 </v>
   <v>       0.18354479       0.78782386       0.61086907 </v>
   <v>       0.56428252       0.03954608       0.38927342 </v>
   <v>       0.94053841       0.96262776       0.83373187 </v>
   <v>       0.31492103       0.53688712       0.87561182 </v>
   <v>       0.69106501       0.29035043       0.74395591 </v>
   <v>       0.18595796       0.61561079       0.16703725 </v>
   <v>       0.81132645       0.20557560       0.47865020 </v>
   <v>       0.80872795       0.53773850       0.61090963 </v>
   <v>       0.31196311       0.87099579       0.43444295 </v>
   <v>       0.80967396       0.03940471       0.25630218 </v>
   <v>       0.68418682       0.95334606       0.34515666 </v>
   <v>       0.93244714       0.11664188       0.16735054 </v>
   <v>       0.06126700       0.87144844       0.52133295 </v>
   <v>       0.55932235       0.53981861       0.25610690 </v>
   <v>       0.68370970       0.79132270       0.87524179 </v>
   <v>       0.56015383       0.36622035       0.16709785 </v>
   <v>       0.43975248       0.78975228       0.74381638 </v>
   <v>       0.81178405       0.70734482       0.56538643 </v>
   <v>       0.56311105       0.87035359       0.78799474 </v>
   <v>       0.68601094       0.12134116       0.52134152 </v>
   <v>       0.81608901       0.37381589       0.65495311 </v>
   <v>       0.94029566       0.46287209       0.83368193 </v>
   <v>       0.06161871       0.20779371       0.69944012 </v>
   <v>       0.43650739       0.95772271       0.69938391 </v>
   <v>       0.31494404       0.20917757       0.83289174 </v>
   <v>       0.44095023       0.62391329       0.65484090 </v>
   <v>       0.30880789       0.53802608       0.61081761 </v>
   <v>       0.93739469       0.45715689       0.56548499 </v>
   <v>       0.69022357       0.78997318       0.74393953 </v>
   <v>       0.93480177       0.78891207       0.12475107 </v>
   <v>       0.68985054       0.78892442       0.38913069 </v>
   <v>       0.94100267       0.78888664       0.74397266 </v>
   <v>       0.06019527       0.20327119       0.34505878 </v>
   <v>       0.81372698       0.04020251       0.38932605 </v>
   <v>       0.43762050       0.11814719       0.78815523 </v>
   <v>       0.06383088       0.20610175       0.21196070 </v>
   <v>       0.05826114       0.36577331       0.16690702 </v>
   <v>       0.93392487       0.79023693       0.25616594 </v>
   <v>       0.56161336       0.20702881       0.69941211 </v>
   <v>       0.68666630       0.95808234       0.69952642 </v>
   <v>       0.81163276       0.87167637       0.78800027 </v>
   <v>       0.43621931       0.95670071       0.56531533 </v>
   <v>       0.81198859       0.37151603       0.78791431 </v>
   <v>       0.68390175       0.29001679       0.25618396 </v>
   <v>       0.18660387       0.45706697       0.56545073 </v>
   <v>       0.05955501       0.86645304       0.16710450 </v>
   <v>       0.18380241       0.28786726       0.61077849 </v>
   <v>       0.18859580       0.79016521       0.38937838 </v>
   <v>       0.31178604       0.20726396       0.69947171 </v>
   <v>       0.56206614       0.53743980       0.87534779 </v>
   <v>       0.06142977       0.70659354       0.56542127 </v>
   <v>       0.68686235       0.61897770       0.78780066 </v>
   <v>       0.31386092       0.54005586       0.38926690 </v>
   <v>       0.18646537       0.62132584       0.52131149 </v>
   <v>       0.56208141       0.87123887       0.43453493 </v>
   <v>       0.43675823       0.45733863       0.56540496 </v>
   <v>       0.44003390       0.29125082       0.74391427 </v>
   <v>       0.81734194       0.87502043       0.30041268 </v>
   <v>       0.80904976       0.70343994       0.34515346 </v>
   <v>       0.43923989       0.45928588       0.83281653 </v>
   <v>       0.68722456       0.95596978       0.47862551 </v>
   <v>       0.68638814       0.45735651       0.69941502 </v>
   <v>       0.56132377       0.87170721       0.52138762 </v>
   <v>       0.56647010       0.37381803       0.65490723 </v>
   <v>       0.81563046       0.87353371       0.65484783 </v>
   <v>       0.81231595       0.37181372       0.43432614 </v>
   <v>       0.80955169       0.53966351       0.25617766 </v>
   <v>       0.69122391       0.46056503       0.83309785 </v>
   <v>       0.18752414       0.78801026       0.12434439 </v>
   <v>       0.68826652       0.28980325       0.38918702 </v>
   <v>       0.31658260       0.37372767       0.65497277 </v>
   <v>       0.31024251       0.20390654       0.34521391 </v>
   <v>       0.81566757       0.53900655       0.74381960 </v>
   <v>       0.68915205       0.95984648       0.83290749 </v>
   <v>       0.56453276       0.87310571       0.65458331 </v>
   <v>       0.31175064       0.70704115       0.56533549 </v>
   <v>       0.31325078       0.53428896       0.12446106 </v>
   <v>       0.68792064       0.95773927       0.21192135 </v>
   <v>       0.31103877       0.20632545       0.56542923 </v>
   <v>       0.18678579       0.95566058       0.47856611 </v>
   <v>       0.68739246       0.95735342       0.56534435 </v>
   <v>       0.43429963       0.78797375       0.61079463 </v>
   <v>       0.68481857       0.61472621       0.16710657 </v>
   <v>       0.31712912       0.87425886       0.30046840 </v>
   <v>       0.31232233       0.70559182       0.47865462 </v>
   <v>       0.93362874       0.28759732       0.61081008 </v>
   <v>       0.44337568       0.62448347       0.30090276 </v>
   <v>       0.80897064       0.86617530       0.16728208 </v>
   <v>       0.56455325       0.20568606       0.21188062 </v>
   <v>       0.93335111       0.61397063       0.16702503 </v>
   <v>       0.43699085       0.95614127       0.47871294 </v>
   <v>       0.56103583       0.36812245       0.78781661 </v>
   <v>       0.06080830       0.37152812       0.52137742 </v>
   <v>       0.30923127       0.36324217       0.16740885 </v>
   <v>       0.69302078       0.12407898       0.30037977 </v>
   <v>       0.44026842       0.95909641       0.83272898 </v>
   <v>       0.18693558       0.28856345       0.12475303 </v>
   <v>       0.18397418       0.28971726       0.25613393 </v>
   <v>       0.31196499       0.37062363       0.43450335 </v>
   <v>       0.56278589       0.03315380       0.12465480 </v>
   <v>       0.43376099       0.28804646       0.61082201 </v>
   <v>       0.18544283       0.45417783       0.34527652 </v>
   <v>       0.43632109       0.28882375       0.12477454 </v>
   <v>       0.68447118       0.79025270       0.25617763 </v>
   <v>       0.43631599       0.12158173       0.52135326 </v>
   <v>       0.19021676       0.29239092       0.87548559 </v>
   <v>       0.19094866       0.12405311       0.65496585 </v>
   <v>       0.94087844       0.12404701       0.65485086 </v>
   <v>       0.81369793       0.54011765       0.38934872 </v>
   <v>       0.06360981       0.04042037       0.38921635 </v>
   <v>       0.18383185       0.11349040       0.16666260 </v>
   <v>       0.05865138       0.53785147       0.61083474 </v>
   <v>       0.93441584       0.29011717       0.25612746 </v>
   <v>       0.55910091       0.53770025       0.61075105 </v>
   <v>       0.93692522       0.95759204       0.56539717 </v>
   <v>       0.69327132       0.62449657       0.30034565 </v>
   <v>       0.93698618       0.62096214       0.43452185 </v>
   <v>       0.93578537       0.62032210       0.78776963 </v>
   <v>       0.56134900       0.70680642       0.69943270 </v>
   <v>       0.06387055       0.71447087       0.83380332 </v>
   <v>       0.94270093       0.12433662       0.30040481 </v>
   <v>       0.93424131       0.78734662       0.61086308 </v>
   <v>       0.43416778       0.78993036       0.25623116 </v>
   <v>       0.31157971       0.36943173       0.78797850 </v>
   <v>       0.43877710       0.45768846       0.21211340 </v>
   <v>       0.18639711       0.12103633       0.52127609 </v>
   <v>       0.81183362       0.70751242       0.69935792 </v>
   <v>       0.05870232       0.03793360       0.61080767 </v>
   <v>       0.56297343       0.21010088       0.83239122 </v>
   <v>       0.31116773       0.87137704       0.52134700 </v>
   <v>       0.68716590       0.28996530       0.12459593 </v>
   <v>       0.18825618       0.95733806       0.21215512 </v>
   <v>       0.68386771       0.28799686       0.61078672 </v>
   <v>       0.30843510       0.03746420       0.61091371 </v>
   <v>       0.93805307       0.12039315       0.78801587 </v>
   <v>       0.43727558       0.79227755       0.87542650 </v>
   <v>       0.81552127       0.03902078       0.74366152 </v>
   <v>       0.93669575       0.45731376       0.69937261 </v>
   <v>       0.19130558       0.62415875       0.65493830 </v>
   <v>       0.31162147       0.70717763       0.69948067 </v>
   <v>       0.93579643       0.28969718       0.12455654 </v>
   <v>       0.43703067       0.45578954       0.47869249 </v>
   <v>       0.06198063       0.70566348       0.47852916 </v>
   <v>       0.93691769       0.12111625       0.43461676 </v>
   <v>       0.44284440       0.12440169       0.30053135 </v>
   <v>       0.18763536       0.12096742       0.43440019 </v>
   <v>       0.56229151       0.03553422       0.87567472 </v>
   <v>       0.18696732       0.95732921       0.56542713 </v>
   <v>       0.68701178       0.78935648       0.12469272 </v>
   <v>       0.56282128       0.53253295       0.12474266 </v>
   <v>       0.31349708       0.03937623       0.38934930 </v>
   <v>       0.68486603       0.11637989       0.16729086 </v>
   <v>       0.81418285       0.20707137       0.21181273 </v>
   <v>       0.05990006       0.54031376       0.25623656 </v>
   <v>       0.56201959       0.70562062       0.47867418 </v>
   <v>       0.43472320       0.78744745       0.12456305 </v>
   <v>       0.56823234       0.37535563       0.30053605 </v>
   <v>       0.43514240       0.95355092       0.34517528 </v>
   <v>       0.18687065       0.95787848       0.69961655 </v>
   <v>       0.43187591       0.61645688       0.16690240 </v>
   <v>       0.93881630       0.45771260       0.21217404 </v>
   <v>       0.06237551       0.53267846       0.12469231 </v>
   <v>       0.81149197       0.37138288       0.52130203 </v>
   <v>       0.94312054       0.62383974       0.30046064 </v>
   <v>       0.31018423       0.03943671       0.25601083 </v>
   <v>       0.68362515       0.78782128       0.61082580 </v>
   <v>       0.19104854       0.46122960       0.83316462 </v>
   <v>       0.43350762       0.11380402       0.16666227 </v>
   <v>       0.31114297       0.37143778       0.52128683 </v>
   <v>       0.43551657       0.61769087       0.78799019 </v>
   <v>       0.05921721       0.03978668       0.25613290 </v>
   <v>       0.56161188       0.70687598       0.56545191 </v>
   <v>       0.93971671       0.28796331       0.74399810 </v>
   <v>       0.68613191       0.11911460       0.78789430 </v>
   <v>       0.18869209       0.45777427       0.21205819 </v>
   <v>       0.93934176       0.78994600       0.38920812 </v>
   <v>       0.68718443       0.29247119       0.87533317 </v>
   <v>       0.55905996       0.86663822       0.16710293 </v>
   <v>       0.43710522       0.45756311       0.69919629 </v>
   <v>       0.93572895       0.95417959       0.34510483 </v>
   <v>       0.68620045       0.62142463       0.52126386 </v>
   <v>       0.06561157       0.87302631       0.65490329 </v>
   <v>       0.06153332       0.87182950       0.78818362 </v>
   <v>       0.06609161       0.37391913       0.65491844 </v>
   <v>       0.68701358       0.45560770       0.47865379 </v>
   <v>       0.18433478       0.79006357       0.25614199 </v>
   <v>       0.43716221       0.12100739       0.43452370 </v>
   <v>       0.81249259       0.03264537       0.12446572 </v>
   <v>       0.93655926       0.62141486       0.52133333 </v>
   <v>       0.06235550       0.87105143       0.43445654 </v>
   <v>       0.81270410       0.53297845       0.12441649 </v>
   <v>       0.43484445       0.45373675       0.34534406 </v>
   <v>       0.81071779       0.20544329       0.34501442 </v>
   <v>       0.31038904       0.70406715       0.34518606 </v>
   <v>       0.69049901       0.12343850       0.65483569 </v>
   <v>       0.56769170       0.87418169       0.30055159 </v>
   <v>       0.06511137       0.53975492       0.74397933 </v>
   <v>       0.93961571       0.95716943       0.21170014 </v>
   <v>       0.81402158       0.70649982       0.21167857 </v>
   <v>       0.06697720       0.87462914       0.30036522 </v>
   <v>       0.19327299       0.12395422       0.30060531 </v>
   <v>       0.05953051       0.70406255       0.34509793 </v>
   <v>       0.80912542       0.03784257       0.61087938 </v>
   <v>       0.06217933       0.37138567       0.43436761 </v>
   <v>       0.56056785       0.20441346       0.34529474 </v>
   <v>       0.81838717       0.37446078       0.30032135 </v>
   <v>       0.55957182       0.04002711       0.25610547 </v>
   <v>       0.56392066       0.54015448       0.38930834 </v>
   <v>       0.06218639       0.20578744       0.47866408 </v>
   <v>       0.31283650       0.86835584       0.78782437 </v>
   <v>       0.93687652       0.95806036       0.69940276 </v>
   <v>       0.06785664       0.37449323       0.30073382 </v>
   <v>       0.69091477       0.62428974       0.65485615 </v>
   <v>       0.68699500       0.45736504       0.56543198 </v>
   <v>       0.43907098       0.95760545       0.21225906 </v>
   <v>       0.31175685       0.20589518       0.47861581 </v>
   <v>       0.44099030       0.12397426       0.65486857 </v>
   <v>       0.68770761       0.62134498       0.43439256 </v>
   <v>       0.81127583       0.20748647       0.69959485 </v>
   <v>       0.81208708       0.70569101       0.47862092 </v>
   <v>       0.81213319       0.87144917       0.43446105 </v>
   <v>       0.93669813       0.95539036       0.47864049 </v>
   <v>       0.56189912       0.20583150       0.47857708 </v>
   <v>       0.18723835       0.62138076       0.43456106 </v>
   <v>       0.31543794       0.04028837       0.74372159 </v>
   <v>       0.94151088       0.62431643       0.65489848 </v>
   <v>       0.56487101       0.70995287       0.83283286 </v>
   <v>       0.31786091       0.37338389       0.30066211 </v>
   <v>       0.56383673       0.70617621       0.21193889 </v>
   <v>       0.18719686       0.45554734       0.47864007 </v>
   <v>       0.31538980       0.03777703       0.87535691 </v>
   <v>       0.18632163       0.45736242       0.69933951 </v>
   <v>       0.56138155       0.37133399       0.52133686 </v>
   <v>       0.18855455       0.29007256       0.38936692 </v>
   <v>       0.43728633       0.62073163       0.43452213 </v>
   <v>       0.06461906       0.70617550       0.21191238 </v>
   <v>       0.56234478       0.37114120       0.43454981 </v>
   <v>       0.43634164       0.62152964       0.52135073 </v>
   <v>       0.81580108       0.71307491       0.83343539 </v>
   <v>       0.06236834       0.37081336       0.78781359 </v>
   <v>       0.43797264       0.29230543       0.87556348 </v>
   <v>       0.31184605       0.03306911       0.12449804 </v>
   <v>       0.68762828       0.12006919       0.43446165 </v>
   <v>       0.18462542       0.95392034       0.34523695 </v>
   <v>       0.06594401       0.21306243       0.83336117 </v>
   <v>       0.55860749       0.03832084       0.61084783 </v>
   <v>       0.68795579       0.45786897       0.21238981 </v>
   <v>       0.19028373       0.78923720       0.74384943 </v>
   <v>       0.19311745       0.62459197       0.30090152 </v>
   <v>       0.43880650       0.78954191       0.38938380 </v>
   <v>       0.43314470       0.28966392       0.25614457 </v>
   <v>       0.06575983       0.53749329       0.87531751 </v>
   <v>       0.56620114       0.03915909       0.74377118 </v>
   <v>       0.18859821       0.79339674       0.87561851 </v>
   <v>       0.93696041       0.45540133       0.47856868 </v>
   <v>       0.56562608       0.54074946       0.74377781 </v>
   <v>       0.81108843       0.20692526       0.56544093 </v>
   <v>       0.18732822       0.61798916       0.78776749 </v>
   <v>       0.06437760       0.53989602       0.38922118 </v>
   <v>       0.06152474       0.70760822       0.69937144 </v>
   <v>       0.30933436       0.53949670       0.25573920 </v>
   <v>       0.31385111       0.70504926       0.21244228 </v>
   <v>       0.30843311       0.86602152       0.16611858 </v>
   <v>       0.31388331       0.20670547       0.21227556 </v>
   <v>       0.68426681       0.45387952       0.34518198 </v>
   <v>       0.93648054       0.29210956       0.87518198 </v>
   <v>       0.93883956       0.79155537       0.87521075 </v>
   <v>       0.06666045       0.03601732       0.87523561 </v>
   <v>       0.55920935       0.70610714       0.34521059 </v>
   <v>       0.80863223       0.36609988       0.16668670 </v>
   <v>       0.81140072       0.53416240       0.87518170 </v>
   <v>       0.93585457       0.12125585       0.52119435 </v>
   <v>       0.06339499       0.20693575       0.56573935 </v>
   <v>       0.31493776       0.53963467       0.74410449 </v>
  </varray>
 </structure>
 <calculation>
  <scstep>
   <time name="dav">   55.08   55.10</time>
   <time name="total">   55.23   55.28</time>
   <energy>
    <i name="alphaZ">  16293.21160653 </i>
    <i name="ewald"> 741986.87144700 </i>
    <i name="hartreedc">-932480.70850123 </i>
    <i name="XCdc">  -6511.59373795 </i>
    <i name="pawpsdc"> 162273.92519768 </i>
    <i name="pawaedc">-159623.75899949 </i>
    <i name="eentropy">     -1.06179216 </i>
    <i name="bandstr">  38482.32056958 </i>
    <i name="atom"> 168671.76673737 </i>
    <i name="e_fr_energy">  29090.97252732 </i>
    <i name="e_wo_entrp">  29092.03431948 </i>
    <i name="e_0_energy">  29091.50342340 </i>
   </energy>
  </scstep>
  <scstep>
   <time name="dav">   54.53   54.57</time>
   <time name="total">   54.54   54.58</time>
   <energy>
    <i name="e_fr_energy">   1191.02383824 </i>
    <i name="e_wo_entrp">   1192.50692122 </i>
    <i name="e_0_energy">   1191.76537973 </i>
   </energy>
  </scstep>
  <scstep>
   <time name="dav">   71.71   71.75</time>
   <time name="total">   71.71   71.75</time>
   <energy>
    <i name="e_fr_energy">  -1949.67685540 </i>
    <i name="e_wo_entrp">  -1946.10721842 </i>
    <i name="e_0_energy">  -1947.89203691 </i>
   </energy>
  </scstep>
  <scstep>
   <time name="dav">   89.89   89.93</time>
   <time name="total">   89.90   89.93</time>
   <energy>
    <i name="e_fr_energy">  -2619.75421759 </i>
    <i name="e_wo_entrp">  -2616.24642286 </i>
    <i name="e_0_energy">  -2618.00032023 </i>
   </energy>
  </scstep>
  <scstep>
   <time name="dav">   86.25   86.28</time>
   <time name="total">   88.35   88.39</time>
   <energy>
    <i name="e_fr_energy">  -2739.30089845 </i>
    <i name="e_wo_entrp">  -2735.68072713 </i>
    <i name="e_0_energy">  -2737.49081279 </i>
   </energy>
  </scstep>
  <scstep>
   <time name="diag">    8.30    8.31</time>
   <time name="diis">   37.28   37.29</time>
   <time name="orth">    2.31    2.31</time>
   <time name="total">   50.05   50.09</time>
   <energy>
    <i name="e_fr_energy">  -5019.83767352 </i>
    <i name="e_wo_entrp">  -5016.43882413 </i>
    <i name="e_0_energy">  -5018.13824883 </i>
   </energy>
  </scstep>
  <scstep>
   <time name="diag">    8.29    8.29</time>
   <time name="diis">   22.84   22.84</time>
   <time name="orth">    2.31    2.31</time>
   <time name="total">   35.49   35.54</time>
[...]
       <r>     5.8705     0.0000  2772.0000 </r>
       <r>     5.9133     0.0000  2772.0000 </r>
       <r>     5.9562     0.0000  2772.0000 </r>
       <r>     5.9990     0.0000  2772.0000 </r>
       <r>     6.0419     0.0000  2772.0000 </r>
       <r>     6.0847     0.0000  2772.0000 </r>
       <r>     6.1276     0.0000  2772.0000 </r>
       <r>     6.1704     0.0000  2772.0000 </r>
       <r>     6.2133     0.0000  2772.0000 </r>
       <r>     6.2561     0.0000  2772.0000 </r>
       <r>     6.2990     0.0000  2772.0000 </r>
       <r>     6.3418     0.0000  2772.0000 </r>
       <r>     6.3847     0.0000  2772.0000 </r>
       <r>     6.4275     0.0000  2772.0000 </r>
       <r>     6.4704     0.0000  2772.0000 </r>
       <r>     6.5132     0.0000  2772.0000 </r>
       <r>     6.5561     0.0000  2772.0000 </r>
       <r>     6.5990     0.0000  2772.0000 </r>
       <r>     6.6418     0.0000  2772.0000 </r>
       <r>     6.6847     0.0000  2772.0000 </r>
       <r>     6.7275     0.0000  2772.0000 </r>
       <r>     6.7704     0.0000  2772.0000 </r>
       <r>     6.8132     0.0000  2772.0000 </r>
      </set>
     </set>
    </array>
   </total>
  </dos>
 </calculation>
 <structure name="finalpos" >
  <crystal>
   <varray name="basis" >
    <v>       9.72667804       0.00000000       0.00000000 </v>
    <v>       0.00000000       8.42355028       0.00000000 </v>
    <v>       0.00000000       0.00000000      45.00000000 </v>
   </varray>
   <i name="volume">   3686.99226691 </i>
   <varray name="rec_basis" >
    <v>       0.10281002       0.00000000       0.00000000 </v>
    <v>       0.00000000       0.11871479       0.00000000 </v>
    <v>       0.00000000       0.00000000       0.02222222 </v>
   </varray>
  </crystal>
  <varray name="positions" >
   <v>       0.06207765       0.03296782       0.12454840 </v>
   <v>       0.31506537       0.87347731       0.65499729 </v>
   <v>       0.18678133       0.11924872       0.78798600 </v>
   <v>       0.43947956       0.28968661       0.38929694 </v>
   <v>       0.31597880       0.71042491       0.83248641 </v>
   <v>       0.81621179       0.21299963       0.83346594 </v>
   <v>       0.18915273       0.96073913       0.83307636 </v>
   <v>       0.56230368       0.20730294       0.56512351 </v>
   <v>       0.06572815       0.03829323       0.74362517 </v>
   <v>       0.81125878       0.87129741       0.52117972 </v>
   <v>       0.19064486       0.29023550       0.74389172 </v>
   <v>       0.93467886       0.45305296       0.34501595 </v>
   <v>       0.93887917       0.28991292       0.38932473 </v>
   <v>       0.81154954       0.03777622       0.87534052 </v>
   <v>       0.18339097       0.78821745       0.61106752 </v>
   <v>       0.56419703       0.03952501       0.38933354 </v>
   <v>       0.94027900       0.96260006       0.83374469 </v>
   <v>       0.31485794       0.53706062       0.87562687 </v>
   <v>       0.69084821       0.29044187       0.74397929 </v>
   <v>       0.18606703       0.61595025       0.16696199 </v>
   <v>       0.81135573       0.20559347       0.47863815 </v>
   <v>       0.80890477       0.53771886       0.61111841 </v>
   <v>       0.31199378       0.87106495       0.43446183 </v>
   <v>       0.80975958       0.03940505       0.25628738 </v>
   <v>       0.68439794       0.95355955       0.34513614 </v>
   <v>       0.93255799       0.11680858       0.16726023 </v>
   <v>       0.06137875       0.87149079       0.52118911 </v>
   <v>       0.55946437       0.53985055       0.25610427 </v>
   <v>       0.68373933       0.79129253       0.87523012 </v>
   <v>       0.56024083       0.36626789       0.16703011 </v>
   <v>       0.43960044       0.78972650       0.74381412 </v>
   <v>       0.81178587       0.70742278       0.56514795 </v>
   <v>       0.56319480       0.87046795       0.78808187 </v>
   <v>       0.68603761       0.12136602       0.52117018 </v>
   <v>       0.81617865       0.37385090       0.65518729 </v>
   <v>       0.94013997       0.46265637       0.83367925 </v>
   <v>       0.06168034       0.20778969       0.69942461 </v>
   <v>       0.43645936       0.95761544       0.69940328 </v>
   <v>       0.31497956       0.20910095       0.83296864 </v>
   <v>       0.44073971       0.62374113       0.65513370 </v>
   <v>       0.30874799       0.53776501       0.61104270 </v>
   <v>       0.93716808       0.45713276       0.56523431 </v>
   <v>       0.69005339       0.78982349       0.74395364 </v>
   <v>       0.93493023       0.78877787       0.12483360 </v>
   <v>       0.68973604       0.78894615       0.38921529 </v>
   <v>       0.94108981       0.78876251       0.74397379 </v>
   <v>       0.06034783       0.20331223       0.34506232 </v>
   <v>       0.81371195       0.04016830       0.38938390 </v>
   <v>       0.43774633       0.11835850       0.78821807 </v>
   <v>       0.06372551       0.20609015       0.21184494 </v>
   <v>       0.05826594       0.36587090       0.16683645 </v>
   <v>       0.93402449       0.79025895       0.25615796 </v>
   <v>       0.56161475       0.20709187       0.69941833 </v>
   <v>       0.68676616       0.95799195       0.69949131 </v>
   <v>       0.81163217       0.87170070       0.78811395 </v>
   <v>       0.43618957       0.95700663       0.56505978 </v>
   <v>       0.81203575       0.37142917       0.78800812 </v>
   <v>       0.68408645       0.28989634       0.25616470 </v>
   <v>       0.18672605       0.45683270       0.56518592 </v>
   <v>       0.05976645       0.86648697       0.16702686 </v>
   <v>       0.18385040       0.28767501       0.61098387 </v>
   <v>       0.18859744       0.79013494       0.38941032 </v>
   <v>       0.31174773       0.20735029       0.69949477 </v>
   <v>       0.56206051       0.53777205       0.87533045 </v>
   <v>       0.06133896       0.70684891       0.56515234 </v>
   <v>       0.68695638       0.61904397       0.78788809 </v>
   <v>       0.31381247       0.53997982       0.38932967 </v>
   <v>       0.18634596       0.62133207       0.52109057 </v>
   <v>       0.56214071       0.87127475       0.43453670 </v>
   <v>       0.43678800       0.45693089       0.56514103 </v>
   <v>       0.43993059       0.29127429       0.74390748 </v>
   <v>       0.81722766       0.87501133       0.30037470 </v>
   <v>       0.80936252       0.70356973       0.34513474 </v>
   <v>       0.43940183       0.45920008       0.83290992 </v>
   <v>       0.68717647       0.95596689       0.47862139 </v>
   <v>       0.68645707       0.45729883       0.69940556 </v>
   <v>       0.56140833       0.87169545       0.52121991 </v>
   <v>       0.56633044       0.37383579       0.65517849 </v>
   <v>       0.81567515       0.87353429       0.65509955 </v>
   <v>       0.81229495       0.37179218       0.43433745 </v>
   <v>       0.80965435       0.53968029       0.25616078 </v>
   <v>       0.69111501       0.46042369       0.83313406 </v>
   <v>       0.18754059       0.78792160       0.12443831 </v>
   <v>       0.68825208       0.28973854       0.38926185 </v>
   <v>       0.31629700       0.37374180       0.65522895 </v>
   <v>       0.31021340       0.20390501       0.34521760 </v>
   <v>       0.81565251       0.53892454       0.74383993 </v>
   <v>       0.68920026       0.95987191       0.83295360 </v>
   <v>       0.56460222       0.87312032       0.65486704 </v>
   <v>       0.31155604       0.70711676       0.56506455 </v>
   <v>       0.31315406       0.53430052       0.12452104 </v>
   <v>       0.68794470       0.95758197       0.21181061 </v>
   <v>       0.31113988       0.20621466       0.56520366 </v>
   <v>       0.18680550       0.95562076       0.47856937 </v>
   <v>       0.68751778       0.95729518       0.56511288 </v>
   <v>       0.43441608       0.78811234       0.61099173 </v>
   <v>       0.68480378       0.61488280       0.16705451 </v>
   <v>       0.31696270       0.87420905       0.30043981 </v>
   <v>       0.31223290       0.70556580       0.47867210 </v>
   <v>       0.93379424       0.28744024       0.61105870 </v>
   <v>       0.44321032       0.62443605       0.30083884 </v>
   <v>       0.80900254       0.86631434       0.16722497 </v>
   <v>       0.56447439       0.20564245       0.21175882 </v>
   <v>       0.93346310       0.61416487       0.16696848 </v>
   <v>       0.43694098       0.95603490       0.47871399 </v>
   <v>       0.56121934       0.36816369       0.78788543 </v>
   <v>       0.06087410       0.37173132       0.52114972 </v>
   <v>       0.30932658       0.36342472       0.16733168 </v>
   <v>       0.69292797       0.12404717       0.30034767 </v>
   <v>       0.44044195       0.95908434       0.83279253 </v>
   <v>       0.18695707       0.28838666       0.12479844 </v>
   <v>       0.18413110       0.28963314       0.25612072 </v>
   <v>       0.31198312       0.37068304       0.43450621 </v>
   <v>       0.56261095       0.03325747       0.12471993 </v>
   <v>       0.43354631       0.28794405       0.61098021 </v>
   <v>       0.18542864       0.45415359       0.34528232 </v>
   <v>       0.43619650       0.28860403       0.12483897 </v>
   <v>       0.68461993       0.79029690       0.25615452 </v>
   <v>       0.43626055       0.12169877       0.52119183 </v>
   <v>       0.19030600       0.29251792       0.87549127 </v>
   <v>       0.19061346       0.12406384       0.65518604 </v>
   <v>       0.94087224       0.12405914       0.65507302 </v>
   <v>       0.81366017       0.54003093       0.38941614 </v>
   <v>       0.06362442       0.04042018       0.38924059 </v>
   <v>       0.18408871       0.11369198       0.16660003 </v>
   <v>       0.05869421       0.53760027       0.61103832 </v>
   <v>       0.93446820       0.28998457       0.25611093 </v>
   <v>       0.55931089       0.53775931       0.61094126 </v>
   <v>       0.93690755       0.95739242       0.56520419 </v>
   <v>       0.69315294       0.62452122       0.30031201 </v>
   <v>       0.93696047       0.62096748       0.43452163 </v>
   <v>       0.93580250       0.62041403       0.78784393 </v>
   <v>       0.56130856       0.70671126       0.69944459 </v>
   <v>       0.06375753       0.71421103       0.83383561 </v>
   <v>       0.94250287       0.12426276       0.30038981 </v>
   <v>       0.93432150       0.78770830       0.61103943 </v>
   <v>       0.43425186       0.78992534       0.25621138 </v>
   <v>       0.31163229       0.36941763       0.78800929 </v>
   <v>       0.43869036       0.45756946       0.21197178 </v>
   <v>       0.18648250       0.12103962       0.52111067 </v>
   <v>       0.81198490       0.70747289       0.69932842 </v>
   <v>       0.05873898       0.03802718       0.61101232 </v>
   <v>       0.56319506       0.20988551       0.83243708 </v>
   <v>       0.31109136       0.87151131       0.52113718 </v>
   <v>       0.68710331       0.28968547       0.12469568 </v>
   <v>       0.18830705       0.95722214       0.21202138 </v>
   <v>       0.68424391       0.28797982       0.61096749 </v>
   <v>       0.30816614       0.03783237       0.61103101 </v>
   <v>       0.93796511       0.12069595       0.78811545 </v>
   <v>       0.43743347       0.79196872       0.87541597 </v>
   <v>       0.81548956       0.03909874       0.74368590 </v>
   <v>       0.93688509       0.45729269       0.69935308 </v>
   <v>       0.19107401       0.62412303       0.65522865 </v>
   <v>       0.31156026       0.70705373       0.69949034 </v>
   <v>       0.93585877       0.28943307       0.12464115 </v>
   <v>       0.43700853       0.45573036       0.47869172 </v>
   <v>       0.06205450       0.70554829       0.47856332 </v>
   <v>       0.93686452       0.12120611       0.43462899 </v>
   <v>       0.44270179       0.12432671       0.30050418 </v>
   <v>       0.18763219       0.12105262       0.43440562 </v>
   <v>       0.56255505       0.03564086       0.87560626 </v>
   <v>       0.18684955       0.95740837       0.56520875 </v>
   <v>       0.68689966       0.78920870       0.12479263 </v>
   <v>       0.56267427       0.53262209       0.12479896 </v>
   <v>       0.31344569       0.03939116       0.38938689 </v>
   <v>       0.68485880       0.11655012       0.16721580 </v>
   <v>       0.81406518       0.20696254       0.21169803 </v>
   <v>       0.05997777       0.54028512       0.25623614 </v>
   <v>       0.56195753       0.70562400       0.47867673 </v>
   <v>       0.43466555       0.78737271       0.12465632 </v>
   <v>       0.56809588       0.37525062       0.30050407 </v>
   <v>       0.43515597       0.95373322       0.34517923 </v>
   <v>       0.18685733       0.95772267       0.69960452 </v>
   <v>       0.43202639       0.61675025       0.16685648 </v>
   <v>       0.93870328       0.45757302       0.21204795 </v>
   <v>       0.06236758       0.53271839       0.12473886 </v>
   <v>       0.81150742       0.37150104       0.52113845 </v>
   <v>       0.94292522       0.62390564       0.30044061 </v>
   <v>       0.31025447       0.03941752       0.25601447 </v>
   <v>       0.68394015       0.78794712       0.61098694 </v>
   <v>       0.19096446       0.46103960       0.83324861 </v>
   <v>       0.43352885       0.11395887       0.16662904 </v>
   <v>       0.31106411       0.37145024       0.52114507 </v>
   <v>       0.43578667       0.61789432       0.78803752 </v>
   <v>       0.05925512       0.03972124       0.25613815 </v>
   <v>       0.56191049       0.70693567       0.56517746 </v>
   <v>       0.93987263       0.28823077       0.74401015 </v>
   <v>       0.68620867       0.11930810       0.78802250 </v>
   <v>       0.18870240       0.45760630       0.21193434 </v>
   <v>       0.93930636       0.78995078       0.38925336 </v>
   <v>       0.68714786       0.29234349       0.87529550 </v>
   <v>       0.55890344       0.86670746       0.16704614 </v>
   <v>       0.43701046       0.45750536       0.69922217 </v>
   <v>       0.93592699       0.95430383       0.34508459 </v>
   <v>       0.68616732       0.62145178       0.52110928 </v>
   <v>       0.06545886       0.87309094       0.65514898 </v>
   <v>       0.06151742       0.87181001       0.78822676 </v>
   <v>       0.06590256       0.37381999       0.65515253 </v>
   <v>       0.68698036       0.45553473       0.47865277 </v>
   <v>       0.18446078       0.79003285       0.25614196 </v>
   <v>       0.43720241       0.12107803       0.43452127 </v>
   <v>       0.81244280       0.03283889       0.12455017 </v>
   <v>       0.93662655       0.62141391       0.52113697 </v>
   <v>       0.06232877       0.87111576       0.43446629 </v>
   <v>       0.81265845       0.53301462       0.12450447 </v>
   <v>       0.43485911       0.45374422       0.34534820 </v>
   <v>       0.81089567       0.20539923       0.34500627 </v>
   <v>       0.31032395       0.70420571       0.34519704 </v>
   <v>       0.69056599       0.12346730       0.65510364 </v>
   <v>       0.56760215       0.87421903       0.30050822 </v>
   <v>       0.06513028       0.53961012       0.74395770 </v>
   <v>       0.93940585       0.95703832       0.21160718 </v>
   <v>       0.81392662       0.70646782       0.21158227 </v>
   <v>       0.06677922       0.87455942       0.30036440 </v>
   <v>       0.19302913       0.12388403       0.30058709 </v>
   <v>       0.05966917       0.70419953       0.34509570 </v>
   <v>       0.80952522       0.03794039       0.61101324 </v>
   <v>       0.06216948       0.37139883       0.43437504 </v>
   <v>       0.56060985       0.20437914       0.34528479 </v>
   <v>       0.81819712       0.37439873       0.30029282 </v>
   <v>       0.55975383       0.03999895       0.25610358 </v>
   <v>       0.56385839       0.54008231       0.38938455 </v>
   <v>       0.06222853       0.20580176       0.47867557 </v>
   <v>       0.31289707       0.86851878       0.78785405 </v>
   <v>       0.93702116       0.95797677       0.69934612 </v>
   <v>       0.06766485       0.37442046       0.30071038 </v>
   <v>       0.69098216       0.62417019       0.65509818 </v>
   <v>       0.68702620       0.45733310       0.56516395 </v>
   <v>       0.43900621       0.95749703       0.21211045 </v>
   <v>       0.31169639       0.20582208       0.47860178 </v>
   <v>       0.44082348       0.12403086       0.65513004 </v>
   <v>       0.68768580       0.62133096       0.43438957 </v>
   <v>       0.81146255       0.20750388       0.69954177 </v>
   <v>       0.81210861       0.70562901       0.47862546 </v>
   <v>       0.81208142       0.87149849       0.43445907 </v>
   <v>       0.93676572       0.95536219       0.47863235 </v>
   <v>       0.56192155       0.20579335       0.47857739 </v>
   <v>       0.18726283       0.62134442       0.43456226 </v>
   <v>       0.31535335       0.04033143       0.74371982 </v>
   <v>       0.94137637       0.62421874       0.65516624 </v>
   <v>       0.56501449       0.70987758       0.83292104 </v>
   <v>       0.31765734       0.37334920       0.30062727 </v>
   <v>       0.56377261       0.70618883       0.21180979 </v>
   <v>       0.18711649       0.45552510       0.47864531 </v>
   <v>       0.31544380       0.03798881       0.87531419 </v>
   <v>       0.18636882       0.45739115       0.69934984 </v>
   <v>       0.56145428       0.37146715       0.52114875 </v>
   <v>       0.18852171       0.29001592       0.38940310 </v>
   <v>       0.43730090       0.62075898       0.43452373 </v>
   <v>       0.06447014       0.70617279       0.21179875 </v>
   <v>       0.56237568       0.37113969       0.43454323 </v>
   <v>       0.43644928       0.62157132       0.52113938 </v>
   <v>       0.81552214       0.71293877       0.83344579 </v>
   <v>       0.06230949       0.37087866       0.78785413 </v>
   <v>       0.43799344       0.29239813       0.87553073 </v>
   <v>       0.31181956       0.03315702       0.12456249 </v>
   <v>       0.68760359       0.12014929       0.43445743 </v>
   <v>       0.18465583       0.95405860       0.34523567 </v>
   <v>       0.06579422       0.21291422       0.83337158 </v>
   <v>       0.55883257       0.03836335       0.61100965 </v>
   <v>       0.68797978       0.45771271       0.21224498 </v>
   <v>       0.19030784       0.78918527       0.74382387 </v>
   <v>       0.19287285       0.62454830       0.30084800 </v>
   <v>       0.43874633       0.78953034       0.38944482 </v>
   <v>       0.43328792       0.28958225       0.25611704 </v>
   <v>       0.06602009       0.53768001       0.87535018 </v>
   <v>       0.56593563       0.03927881       0.74379431 </v>
   <v>       0.18871383       0.79304095       0.87562764 </v>
   <v>       0.93703931       0.45532315       0.47857685 </v>
   <v>       0.56545534       0.54062365       0.74378147 </v>
   <v>       0.81101290       0.20671474       0.56522357 </v>
   <v>       0.18722886       0.61813534       0.78779677 </v>
   <v>       0.06435954       0.53982635       0.38926442 </v>
   <v>       0.06169676       0.70750845       0.69935881 </v>
   <v>       0.30939554       0.53952562       0.25574922 </v>
   <v>       0.31388798       0.70513080       0.21225798 </v>
   <v>       0.30858807       0.86603442       0.16602418 </v>
   <v>       0.31391256       0.20669120       0.21211484 </v>
   <v>       0.68447344       0.45384002       0.34516655 </v>
   <v>       0.93647469       0.29197436       0.87515841 </v>
   <v>       0.93874933       0.79144234       0.87519909 </v>
   <v>       0.06655269       0.03623853       0.87520601 </v>
   <v>       0.55931495       0.70613427       0.34521487 </v>
   <v>       0.80869328       0.36609852       0.16659380 </v>
   <v>       0.81124250       0.53447556       0.87514370 </v>
   <v>       0.93585792       0.12133233       0.52096925 </v>
   <v>       0.06354334       0.20663879       0.56552452 </v>
   <v>       0.31487080       0.53961515       0.74404732 </v>
  </varray>
 </structure>
</modeling>
