unknown system                          
           1
     9.726678    0.000000    0.000000
     0.000000    8.423550    0.000000
     0.000000    0.000000   45.000000
   Fe   Mn
 274  14
Direct configuration=     1
   0.06206731  0.03284242  0.12450038
   0.31534975  0.87354312  0.65470796
   0.18674652  0.11904346  0.78794796
   0.43957991  0.28974815  0.38922930
   0.31594127  0.71057285  0.83237829
   0.81643269  0.21330286  0.83346669
   0.18916269  0.96080106  0.83301581
   0.56242659  0.20743148  0.56538579
   0.06562784  0.03817289  0.74362030
   0.81133005  0.87119863  0.52133082
   0.19073563  0.29014433  0.74390976
   0.93439265  0.45299405  0.34502053
   0.93886005  0.28995306  0.38928191
   0.81177773  0.03763530  0.87536469
   0.18354479  0.78782386  0.61086907
   0.56428252  0.03954608  0.38927342
   0.94053841  0.96262776  0.83373187
   0.31492103  0.53688712  0.87561182
   0.69106501  0.29035043  0.74395591
   0.18595796  0.61561079  0.16703725
   0.81132645  0.20557560  0.47865020
   0.80872795  0.53773850  0.61090963
   0.31196311  0.87099579  0.43444295
   0.80967396  0.03940471  0.25630218
   0.68418682  0.95334606  0.34515666
   0.93244714  0.11664188  0.16735054
   0.06126700  0.87144844  0.52133295
   0.55932235  0.53981861  0.25610690
   0.68370970  0.79132270  0.87524179
   0.56015383  0.36622035  0.16709785
   0.43975248  0.78975228  0.74381638
   0.81178405  0.70734482  0.56538643
   0.56311105  0.87035359  0.78799474
   0.68601094  0.12134116  0.52134152
   0.81608901  0.37381589  0.65495311
   0.94029566  0.46287209  0.83368193
   0.06161871  0.20779371  0.69944012
   0.43650739  0.95772271  0.69938391
   0.31494404  0.20917757  0.83289174
   0.44095023  0.62391329  0.65484090
   0.30880789  0.53802608  0.61081761
   0.93739469  0.45715689  0.56548499
   0.69022357  0.78997318  0.74393953
   0.93480177  0.78891207  0.12475107
   0.68985054  0.78892442  0.38913069
   0.94100267  0.78888664  0.74397266
   0.06019527  0.20327119  0.34505878
   0.81372698  0.04020251  0.38932605
   0.43762050  0.11814719  0.78815523
   0.06383088  0.20610175  0.21196070
   0.05826114  0.36577331  0.16690702
   0.93392487  0.79023693  0.25616594
   0.56161336  0.20702881  0.69941211
   0.68666630  0.95808234  0.69952642
   0.81163276  0.87167637  0.78800027
   0.43621931  0.95670071  0.56531533
   0.81198859  0.37151603  0.78791431
   0.68390175  0.29001679  0.25618396
   0.18660387  0.45706697  0.56545073
   0.05955501  0.86645304  0.16710450
   0.18380241  0.28786726  0.61077849
   0.18859580  0.79016521  0.38937838
   0.31178604  0.20726396  0.69947171
   0.56206614  0.53743980  0.87534779
   0.06142977  0.70659354  0.56542127
   0.68686235  0.61897770  0.78780066
   0.31386092  0.54005586  0.38926690
   0.18646537  0.62132584  0.52131149
   0.56208141  0.87123887  0.43453493
   0.43675823  0.45733863  0.56540496
   0.44003390  0.29125082  0.74391427
   0.81734194  0.87502043  0.30041268
   0.80904976  0.70343994  0.34515346
   0.43923989  0.45928588  0.83281653
   0.68722456  0.95596978  0.47862551
   0.68638814  0.45735651  0.69941502
   0.56132377  0.87170721  0.52138762
   0.56647010  0.37381803  0.65490723
   0.81563046  0.87353371  0.65484783
   0.81231595  0.37181372  0.43432614
   0.80955169  0.53966351  0.25617766
   0.69122391  0.46056503  0.83309785
   0.18752414  0.78801026  0.12434439
   0.68826652  0.28980325  0.38918702
   0.31658260  0.37372767  0.65497277
   0.31024251  0.20390654  0.34521391
   0.81566757  0.53900655  0.74381960
   0.68915205  0.95984648  0.83290749
   0.56453276  0.87310571  0.65458331
   0.31175064  0.70704115  0.56533549
   0.31325078  0.53428896  0.12446106
   0.68792064  0.95773927  0.21192135
   0.31103877  0.20632545  0.56542923
   0.18678579  0.95566058  0.47856611
   0.68739246  0.95735342  0.56534435
   0.43429963  0.78797375  0.61079463
   0.68481857  0.61472621  0.16710657
   0.31712912  0.87425886  0.30046840
   0.31232233  0.70559182  0.47865462
   0.93362874  0.28759732  0.61081008
   0.44337568  0.62448347  0.30090276
   0.80897064  0.86617530  0.16728208
   0.56455325  0.20568606  0.21188062
   0.93335111  0.61397063  0.16702503
   0.43699085  0.95614127  0.47871294
   0.56103583  0.36812245  0.78781661
   0.06080830  0.37152812  0.52137742
   0.30923127  0.36324217  0.16740885
   0.69302078  0.12407898  0.30037977
   0.44026842  0.95909641  0.83272898
   0.18693558  0.28856345  0.12475303
   0.18397418  0.28971726  0.25613393
   0.31196499  0.37062363  0.43450335
   0.56278589  0.03315380  0.12465480
   0.43376099  0.28804646  0.61082201
   0.18544283  0.45417783  0.34527652
   0.43632109  0.28882375  0.12477454
   0.68447118  0.79025270  0.25617763
   0.43631599  0.12158173  0.52135326
   0.19021676  0.29239092  0.87548559
   0.19094866  0.12405311  0.65496585
   0.94087844  0.12404701  0.65485086
   0.81369793  0.54011765  0.38934872
   0.06360981  0.04042037  0.38921635
   0.18383185  0.11349040  0.16666260
   0.05865138  0.53785147  0.61083474
   0.93441584  0.29011717  0.25612746
   0.55910091  0.53770025  0.61075105
   0.93692522  0.95759204  0.56539717
   0.69327132  0.62449657  0.30034565
   0.93698618  0.62096214  0.43452185
   0.93578537  0.62032210  0.78776963
   0.56134900  0.70680642  0.69943270
   0.06387055  0.71447087  0.83380332
   0.94270093  0.12433662  0.30040481
   0.93424131  0.78734662  0.61086308
   0.43416778  0.78993036  0.25623116
   0.31157971  0.36943173  0.78797850
   0.43877710  0.45768846  0.21211340
   0.18639711  0.12103633  0.52127609
   0.81183362  0.70751242  0.69935792
   0.05870232  0.03793360  0.61080767
   0.56297343  0.21010088  0.83239122
   0.31116773  0.87137704  0.52134700
   0.68716590  0.28996530  0.12459593
   0.18825618  0.95733806  0.21215512
   0.68386771  0.28799686  0.61078672
   0.30843510  0.03746420  0.61091371
   0.93805307  0.12039315  0.78801587
   0.43727558  0.79227755  0.87542650
   0.81552127  0.03902078  0.74366152
   0.93669575  0.45731376  0.69937261
   0.19130558  0.62415875  0.65493830
   0.31162147  0.70717763  0.69948067
   0.93579643  0.28969718  0.12455654
   0.43703067  0.45578954  0.47869249
   0.06198063  0.70566348  0.47852916
   0.93691769  0.12111625  0.43461676
   0.44284440  0.12440169  0.30053135
   0.18763536  0.12096742  0.43440019
   0.56229151  0.03553422  0.87567472
   0.18696732  0.95732921  0.56542713
   0.68701178  0.78935648  0.12469272
   0.56282128  0.53253295  0.12474266
   0.31349708  0.03937623  0.38934930
   0.68486603  0.11637989  0.16729086
   0.81418285  0.20707137  0.21181273
   0.05990006  0.54031376  0.25623656
   0.56201959  0.70562062  0.47867418
   0.43472320  0.78744745  0.12456305
   0.56823234  0.37535563  0.30053605
   0.43514240  0.95355092  0.34517528
   0.18687065  0.95787848  0.69961655
   0.43187591  0.61645688  0.16690240
   0.93881630  0.45771260  0.21217404
   0.06237551  0.53267846  0.12469231
   0.81149197  0.37138288  0.52130203
   0.94312054  0.62383974  0.30046064
   0.31018423  0.03943671  0.25601083
   0.68362515  0.78782128  0.61082580
   0.19104854  0.46122960  0.83316462
   0.43350762  0.11380402  0.16666227
   0.31114297  0.37143778  0.52128683
   0.43551657  0.61769087  0.78799019
   0.05921721  0.03978668  0.25613290
   0.56161188  0.70687598  0.56545191
   0.93971671  0.28796331  0.74399810
   0.68613191  0.11911460  0.78789430
   0.18869209  0.45777427  0.21205819
   0.93934176  0.78994600  0.38920812
   0.68718443  0.29247119  0.87533317
   0.55905996  0.86663822  0.16710293
   0.43710522  0.45756311  0.69919629
   0.93572895  0.95417959  0.34510483
   0.68620045  0.62142463  0.52126386
   0.06561157  0.87302631  0.65490329
   0.06153332  0.87182950  0.78818362
   0.06609161  0.37391913  0.65491844
   0.68701358  0.45560770  0.47865379
   0.18433478  0.79006357  0.25614199
   0.43716221  0.12100739  0.43452370
   0.81249259  0.03264537  0.12446572
   0.93655926  0.62141486  0.52133333
   0.06235550  0.87105143  0.43445654
   0.81270410  0.53297845  0.12441649
   0.43484445  0.45373675  0.34534406
   0.81071779  0.20544329  0.34501442
   0.31038904  0.70406715  0.34518606
   0.69049901  0.12343850  0.65483569
   0.56769170  0.87418169  0.30055159
   0.06511137  0.53975492  0.74397933
   0.93961571  0.95716943  0.21170014
   0.81402158  0.70649982  0.21167857
   0.06697720  0.87462914  0.30036522
   0.19327299  0.12395422  0.30060531
   0.05953051  0.70406255  0.34509793
   0.80912542  0.03784257  0.61087938
   0.06217933  0.37138567  0.43436761
   0.56056785  0.20441346  0.34529474
   0.81838717  0.37446078  0.30032135
   0.55957182  0.04002711  0.25610547
   0.56392066  0.54015448  0.38930834
   0.06218639  0.20578744  0.47866408
   0.31283650  0.86835584  0.78782437
   0.93687652  0.95806036  0.69940276
   0.06785664  0.37449323  0.30073382
   0.69091477  0.62428974  0.65485615
   0.68699500  0.45736504  0.56543198
   0.43907098  0.95760545  0.21225906
   0.31175685  0.20589518  0.47861581
   0.44099030  0.12397426  0.65486857
   0.68770761  0.62134498  0.43439256
   0.81127583  0.20748647  0.69959485
   0.81208708  0.70569101  0.47862092
   0.81213319  0.87144917  0.43446105
   0.93669813  0.95539036  0.47864049
   0.56189912  0.20583150  0.47857708
   0.18723835  0.62138076  0.43456106
   0.31543794  0.04028837  0.74372159
   0.94151088  0.62431643  0.65489848
   0.56487101  0.70995287  0.83283286
   0.31786091  0.37338389  0.30066211
   0.56383673  0.70617621  0.21193889
   0.18719686  0.45554734  0.47864007
   0.31538980  0.03777703  0.87535691
   0.18632163  0.45736242  0.69933951
   0.56138155  0.37133399  0.52133686
   0.18855455  0.29007256  0.38936692
   0.43728633  0.62073163  0.43452213
   0.06461906  0.70617550  0.21191238
   0.56234478  0.37114120  0.43454981
   0.43634164  0.62152964  0.52135073
   0.81580108  0.71307491  0.83343539
   0.06236834  0.37081336  0.78781359
   0.43797264  0.29230543  0.87556348
   0.31184605  0.03306911  0.12449804
   0.68762828  0.12006919  0.43446165
   0.18462542  0.95392034  0.34523695
   0.06594401  0.21306243  0.83336117
   0.55860749  0.03832084  0.61084783
   0.68795579  0.45786897  0.21238981
   0.19028373  0.78923720  0.74384943
   0.19311745  0.62459197  0.30090152
   0.43880650  0.78954191  0.38938380
   0.43314470  0.28966392  0.25614457
   0.06575983  0.53749329  0.87531751
   0.56620114  0.03915909  0.74377118
   0.18859821  0.79339674  0.87561851
   0.93696041  0.45540133  0.47856868
   0.56562608  0.54074946  0.74377781
   0.81108843  0.20692526  0.56544093
   0.18732822  0.61798916  0.78776749
   0.06437760  0.53989602  0.38922118
   0.06152474  0.70760822  0.69937144
   0.30933436  0.53949670  0.25573920
   0.31385111  0.70504926  0.21244228
   0.30843311  0.86602152  0.16611858
   0.31388331  0.20670547  0.21227556
   0.68426681  0.45387952  0.34518198
   0.93648054  0.29210956  0.87518198
   0.93883956  0.79155537  0.87521075
   0.06666045  0.03601732  0.87523561
   0.55920935  0.70610714  0.34521059
   0.80863223  0.36609988  0.16668670
   0.81140072  0.53416240  0.87518170
   0.93585457  0.12125585  0.52119435
   0.06339499  0.20693575  0.56573935
   0.31493776  0.53963467  0.74410449
Direct configuration=     2
   0.06209713  0.03320413  0.12463890
   0.31452944  0.87335329  0.65554255
   0.18684693  0.11963553  0.78805767
   0.43929044  0.28957063  0.38942441
   0.31604953  0.71014611  0.83269017
   0.81579549  0.21242819  0.83346454
   0.18913395  0.96062241  0.83319047
   0.56207205  0.20706071  0.56462922
   0.06591719  0.03852000  0.74363436
   0.81112448  0.87148357  0.52089497
   0.19047380  0.29040731  0.74385773
   0.93521821  0.45316397  0.34500731
   0.93891521  0.28983727  0.38940542
   0.81111953  0.03804179  0.87529497
   0.18310110  0.78895916  0.61144149
   0.56403592  0.03948529  0.38944685
   0.93979013  0.96254786  0.83376886
   0.31473906  0.53738758  0.87565525
   0.69043964  0.29061419  0.74402336
   0.18627258  0.61658997  0.16682015
   0.81141092  0.20562715  0.47861543
   0.80923799  0.53768186  0.61151184
   0.31205157  0.87119528  0.43449741
   0.80992092  0.03940570  0.25625947
   0.68479580  0.95396187  0.34509746
   0.93276688  0.11712274  0.16709006
   0.06158935  0.87157059  0.52091806
   0.55973201  0.53991076  0.25609932
   0.68379516  0.79123569  0.87520812
   0.56040479  0.36635749  0.16690245
   0.43931393  0.78967791  0.74380985
   0.81178931  0.70756968  0.56469854
   0.56335262  0.87068346  0.78824606
   0.68608786  0.12141286  0.52084727
   0.81634758  0.37391690  0.65562862
   0.93984657  0.46224984  0.83367420
   0.06179650  0.20778212  0.69939537
   0.43636886  0.95741329  0.69943979
   0.31504649  0.20895656  0.83311356
   0.44034297  0.62341670  0.65568549
   0.30863513  0.53727303  0.61146688
   0.93674103  0.45708730  0.56476191
   0.68973270  0.78954140  0.74398022
   0.93517233  0.78852497  0.12498912
   0.68952025  0.78898708  0.38937472
   0.94125403  0.78852859  0.74397592
   0.06063532  0.20338959  0.34506899
   0.81368363  0.04010382  0.38949294
   0.43798345  0.11875670  0.78833649
   0.06352692  0.20606829  0.21162680
   0.05827500  0.36605480  0.16670345
   0.93421222  0.79030045  0.25614294
   0.56161738  0.20721070  0.69943006
   0.68695436  0.95782162  0.69942515
   0.81163107  0.87174656  0.78832818
   0.43613353  0.95758316  0.56457820
   0.81212462  0.37126548  0.78818491
   0.68443451  0.28966937  0.25612840
   0.18695629  0.45639123  0.56468687
   0.06016493  0.86655093  0.16688053
   0.18394084  0.28731271  0.61137091
   0.18860053  0.79007789  0.38947053
   0.31167554  0.20751298  0.69953822
   0.56204991  0.53839818  0.87529778
   0.06116783  0.70733016  0.56464555
   0.68713359  0.61916886  0.78805284
   0.31372117  0.53983651  0.38944794
   0.18612093  0.62134381  0.52067423
   0.56225244  0.87134235  0.43454003
   0.43684411  0.45616250  0.56464366
   0.43973588  0.29131850  0.74389467
   0.81701230  0.87499419  0.30030314
   0.80995192  0.70381431  0.34509948
   0.43970701  0.45903838  0.83308592
   0.68708583  0.95596144  0.47861363
   0.68658696  0.45719013  0.69938773
   0.56156768  0.87167330  0.52090385
   0.56606726  0.37386926  0.65568969
   0.81575935  0.87353537  0.65557392
   0.81225538  0.37175159  0.43435875
   0.80984781  0.53971190  0.25612898
   0.69090978  0.46015734  0.83320232
   0.18757158  0.78775451  0.12461528
   0.68822486  0.28961659  0.38940287
   0.31575879  0.37376843  0.65571173
   0.31015855  0.20390212  0.34522456
   0.81562412  0.53877000  0.74387822
   0.68929111  0.95991984  0.83304050
   0.56473311  0.87314785  0.65540172
   0.31118932  0.70725926  0.56455398
   0.31297178  0.53432230  0.12463407
   0.68799005  0.95728554  0.21160191
   0.31133042  0.20600588  0.56477856
   0.18684264  0.95554571  0.47857550
   0.68775396  0.95718541  0.56467667
   0.43463555  0.78837351  0.61136317
   0.68477592  0.61517789  0.16695639
   0.31664909  0.87411519  0.30038592
   0.31206435  0.70551676  0.47870504
   0.93410613  0.28714423  0.61152723
   0.44289868  0.62434669  0.30071839
   0.80906267  0.86657636  0.16711734
   0.56432578  0.20556028  0.21152929
   0.93367413  0.61453092  0.16686192
   0.43684700  0.95583443  0.47871596
   0.56156518  0.36824140  0.78801513
   0.06099810  0.37211426  0.52072062
   0.30950620  0.36376874  0.16718626
   0.69275308  0.12398721  0.30028718
   0.44076896  0.95906160  0.83291228
   0.18699757  0.28805350  0.12488402
   0.18442681  0.28947462  0.25609581
   0.31201728  0.37079500  0.43451159
   0.56228126  0.03345283  0.12484267
   0.43314174  0.28775105  0.61127833
   0.18540190  0.45410790  0.34529324
   0.43596170  0.28818996  0.12496039
   0.68490024  0.79038020  0.25611097
   0.43615608  0.12191933  0.52088760
   0.19047417  0.29275725  0.87550196
   0.18998179  0.12408408  0.65560099
   0.94086056  0.12408198  0.65549169
   0.81358902  0.53986751  0.38954321
   0.06365195  0.04041983  0.38928627
   0.18457277  0.11407185  0.16648212
   0.05877492  0.53712689  0.61142196
   0.93456689  0.28973469  0.25607978
   0.55970662  0.53787061  0.61129971
   0.93687423  0.95701623  0.56484051
   0.69292986  0.62456768  0.30024862
   0.93691203  0.62097755  0.43452122
   0.93583478  0.62058727  0.78798394
   0.56123234  0.70653193  0.69946699
   0.06354454  0.71372138  0.83389647
   0.94212963  0.12412356  0.30036154
   0.93447261  0.78838989  0.61137176
   0.43441030  0.78991588  0.25617411
   0.31173137  0.36939107  0.78806731
   0.43852691  0.45734520  0.21170490
   0.18664341  0.12104583  0.52079893
   0.81226999  0.70739839  0.69927284
   0.05880808  0.03820353  0.61139801
   0.56361274  0.20947964  0.83252352
   0.31094745  0.87176435  0.52074177
   0.68698537  0.28915812  0.12488365
   0.18840293  0.95700368  0.21176935
   0.68495287  0.28794771  0.61130814
   0.30765928  0.03852618  0.61125205
   0.93779935  0.12126657  0.78830310
   0.43773103  0.79138671  0.87539613
   0.81542981  0.03924566  0.74373185
   0.93724189  0.45725298  0.69931627
   0.19063761  0.62405570  0.65577581
   0.31144491  0.70682024  0.69950858
   0.93597625  0.28893537  0.12480061
   0.43696681  0.45561883  0.47869027
   0.06219370  0.70533123  0.47862771
   0.93676434  0.12137544  0.43465204
   0.44243306  0.12418542  0.30045299
   0.18762623  0.12121319  0.43441585
   0.56305168  0.03584182  0.87547724
   0.18662761  0.95755755  0.56479720
   0.68668838  0.78893022  0.12498091
   0.56239722  0.53279008  0.12490507
   0.31334885  0.03941930  0.38945773
   0.68484517  0.11687094  0.16707436
   0.81384343  0.20675746  0.21148187
   0.06012422  0.54023114  0.25623535
   0.56184059  0.70563037  0.47868155
   0.43455688  0.78723188  0.12483210
   0.56783873  0.37505274  0.30044380
   0.43518153  0.95407677  0.34518668
   0.18683224  0.95742905  0.69958186
   0.43230997  0.61730311  0.16676993
   0.93849030  0.45730998  0.21181034
   0.06235263  0.53279364  0.12482659
   0.81153655  0.37172370  0.52083020
   0.94255714  0.62402982  0.30040286
   0.31038685  0.03938138  0.25602131
   0.68453379  0.78818428  0.61129062
   0.19080602  0.46068154  0.83340690
   0.43356885  0.11425068  0.16656644
   0.31091552  0.37147374  0.52087791
   0.43629569  0.61827772  0.78812671
   0.05932657  0.03959791  0.25614804
   0.56247323  0.70704814  0.56466026
   0.94016646  0.28873480  0.74403287
   0.68635334  0.11967276  0.78826409
   0.18872183  0.45728976  0.21170094
   0.93923964  0.78995978  0.38933862
   0.68707895  0.29210285  0.87522452
   0.55860849  0.86683795  0.16693911
   0.43683190  0.45739653  0.69927095
   0.93630019  0.95453796  0.34504645
   0.68610488  0.62150296  0.52081798
   0.06517106  0.87321273  0.65561198
   0.06148747  0.87177328  0.78830804
   0.06554631  0.37363317  0.65559369
   0.68691778  0.45539720  0.47865086
   0.18469821  0.78997496  0.25614191
   0.43727816  0.12121116  0.43451669
   0.81234898  0.03320360  0.12470932
   0.93675336  0.62141212  0.52076691
   0.06227842  0.87123699  0.43448466
   0.81257243  0.53308279  0.12467027
   0.43488676  0.45375830  0.34535600
   0.81123087  0.20531621  0.34499091
   0.31020128  0.70446683  0.34521773
   0.69069222  0.12352158  0.65560860
   0.56743340  0.87428940  0.30042648
   0.06516590  0.53933725  0.74391695
   0.93901036  0.95679125  0.21143197
   0.81374765  0.70640751  0.21140080
   0.06640613  0.87442802  0.30036285
   0.19256956  0.12375174  0.30055274
   0.05993048  0.70445767  0.34509150
   0.81027863  0.03812472  0.61126549
   0.06215091  0.37142363  0.43438903
   0.56068898  0.20431446  0.34526605
   0.81783897  0.37428181  0.30023906
   0.56009684  0.03994587  0.25610000
   0.56374104  0.53994632  0.38952817
   0.06230793  0.20582875  0.47869722
   0.31301122  0.86882585  0.78790998
   0.93729374  0.95781924  0.69923939
   0.06730343  0.37428333  0.30066620
   0.69110916  0.62394488  0.65555429
   0.68708499  0.45727292  0.56465885
   0.43888413  0.95729271  0.21183040
   0.31158245  0.20568432  0.47857532
   0.44050911  0.12413753  0.65562278
   0.68764470  0.62130455  0.43438394
   0.81181443  0.20753669  0.69944172
   0.81214919  0.70551217  0.47863400
   0.81198387  0.87159145  0.43445535
   0.93689309  0.95530910  0.47861702
   0.56196383  0.20572146  0.47857797
   0.18730897  0.62127594  0.43456452
   0.31519396  0.04041258  0.74371649
   0.94112289  0.62403464  0.65567084
   0.56528489  0.70973569  0.83308722
   0.31727372  0.37328381  0.30056161
   0.56365179  0.70621262  0.21156651
   0.18696504  0.45548318  0.47865517
   0.31554557  0.03838791  0.87523368
   0.18645775  0.45744529  0.69936932
   0.56159136  0.37171809  0.52079426
   0.18845982  0.28990920  0.38947129
   0.43732837  0.62081052  0.43452674
   0.06418952  0.70616767  0.21158461
   0.56243392  0.37113685  0.43453082
   0.43665214  0.62164987  0.52074107
   0.81499649  0.71268221  0.83346539
   0.06219860  0.37100170  0.78793053
   0.43803264  0.29257283  0.87546900
   0.31176962  0.03332268  0.12468394
   0.68755707  0.12030024  0.43444947
   0.18471313  0.95431914  0.34523327
   0.06551192  0.21263492  0.83339119
   0.55925675  0.03844347  0.61131461
   0.68802498  0.45741825  0.21197203
   0.19035330  0.78908742  0.74377569
   0.19241190  0.62446599  0.30074715
   0.43863293  0.78950854  0.38955983
   0.43355784  0.28942834  0.25606517
   0.06651055  0.53803187  0.87541176
   0.56543527  0.03950444  0.74383789
   0.18893173  0.79237046  0.87564486
   0.93718801  0.45517581  0.47859223
   0.56513359  0.54038656  0.74378836
   0.81087057  0.20631801  0.56481397
   0.18704162  0.61841083  0.78785195
   0.06432551  0.53969507  0.38934591
   0.06202093  0.70732044  0.69933500
   0.30951082  0.53958011  0.25576810
   0.31395747  0.70528446  0.21191066
   0.30888010  0.86605874  0.16584628
   0.31396769  0.20666430  0.21181196
   0.68486283  0.45376560  0.34513747
   0.93646368  0.29171958  0.87511401
   0.93857929  0.79122934  0.87517712
   0.06634961  0.03665541  0.87515022
   0.55951397  0.70618541  0.34522296
   0.80880834  0.36609595  0.16641873
   0.81094433  0.53506571  0.87507210
   0.93586424  0.12147646  0.52054504
   0.06382292  0.20607915  0.56511966
   0.31474461  0.53957836  0.74393959
Direct configuration=     3
   0.06209172  0.03313858  0.12461379
   0.31467811  0.87338770  0.65539128
   0.18682873  0.11952822  0.78803779
   0.43934290  0.28960280  0.38938905
   0.31602991  0.71022345  0.83263365
   0.81591098  0.21258671  0.83346493
   0.18913916  0.96065479  0.83315882
   0.56213631  0.20712791  0.56476634
   0.06586475  0.03845709  0.74363181
   0.81116173  0.87143192  0.52097397
   0.19052125  0.29035965  0.74386716
   0.93506858  0.45313318  0.34500971
   0.93890521  0.28985826  0.38938303
   0.81123882  0.03796812  0.87530760
   0.18318151  0.78875340  0.61133775
   0.56408061  0.03949631  0.38941542
   0.93992575  0.96256234  0.83376215
   0.31477204  0.53729687  0.87564738
   0.69055298  0.29056638  0.74401113
   0.18621556  0.61641250  0.16685949
   0.81139561  0.20561781  0.47862173
   0.80914555  0.53769212  0.61140270
   0.31203554  0.87115912  0.43448754
   0.80987616  0.03940552  0.25626721
   0.68468543  0.95385026  0.34510819
   0.93270893  0.11703559  0.16713727
   0.06153092  0.87154845  0.52099325
   0.55965776  0.53989406  0.25610070
   0.68377967  0.79125146  0.87521422
   0.56035930  0.36633264  0.16693786
   0.43939341  0.78969139  0.74381104
   0.81178836  0.70752893  0.56482321
   0.56330884  0.87062368  0.78820051
   0.68607392  0.12139986  0.52093685
   0.81630071  0.37389859  0.65550619
   0.93992796  0.46236262  0.83367560
   0.06176428  0.20778422  0.69940348
   0.43639397  0.95746937  0.69942966
   0.31502792  0.20899661  0.83307336
   0.44045303  0.62350670  0.65553242
   0.30866644  0.53740951  0.61134921
   0.93685950  0.45709991  0.56489296
   0.68982167  0.78961965  0.74397285
   0.93510517  0.78859513  0.12494598
   0.68958011  0.78897573  0.38933049
   0.94120848  0.78859349  0.74397533
   0.06055556  0.20336813  0.34506714
   0.81369149  0.04012171  0.38946269
   0.43791767  0.11864623  0.78830364
   0.06358201  0.20607435  0.21168731
   0.05827249  0.36600379  0.16674034
   0.93416014  0.79028894  0.25614711
   0.56161665  0.20717774  0.69942681
   0.68690216  0.95786888  0.69944351
   0.81163138  0.87173384  0.78826875
   0.43614908  0.95742322  0.56471180
   0.81209997  0.37131089  0.78813587
   0.68433795  0.28973233  0.25613847
   0.18689242  0.45651370  0.56482531
   0.06005439  0.86653319  0.16692113
   0.18391575  0.28741322  0.61126354
   0.18859967  0.79009371  0.38945383
   0.31169556  0.20746785  0.69952617
   0.56205285  0.53822448  0.87530684
   0.06121530  0.70719665  0.56478614
   0.68708443  0.61913421  0.78800714
   0.31374649  0.53987626  0.38941513
   0.18618336  0.62134055  0.52078973
   0.56222144  0.87132360  0.43453910
   0.43682855  0.45637567  0.56478163
   0.43978990  0.29130624  0.74389822
   0.81707205  0.87499895  0.30032299
   0.80978841  0.70374646  0.34510926
   0.43962235  0.45908324  0.83303710
   0.68711098  0.95596295  0.47861578
   0.68655092  0.45722028  0.69939268
   0.56152347  0.87167944  0.52099153
   0.56614027  0.37385998  0.65554788
   0.81573599  0.87353507  0.65544232
   0.81226635  0.37176285  0.43435284
   0.80979414  0.53970313  0.25613781
   0.69096671  0.46023123  0.83318338
   0.18756298  0.78780086  0.12456619
   0.68823241  0.28965042  0.38936375
   0.31590810  0.37376105  0.65557780
   0.31017377  0.20390292  0.34522263
   0.81563200  0.53881287  0.74386760
   0.68926591  0.95990655  0.83301639
   0.56469680  0.87314021  0.65525339
   0.31129105  0.70721973  0.56469562
   0.31302235  0.53431626  0.12460271
   0.68797747  0.95736778  0.21165981
   0.31127756  0.20606379  0.56489649
   0.18683234  0.95556653  0.47857380
   0.68768844  0.95721586  0.56479768
   0.43457466  0.78830106  0.61126013
   0.68478365  0.61509602  0.16698361
   0.31673609  0.87414123  0.30040087
   0.31211111  0.70553036  0.47869590
   0.93401961  0.28722635  0.61139725
   0.44298513  0.62437148  0.30075180
   0.80904599  0.86650367  0.16714720
   0.56436701  0.20558307  0.21159296
   0.93361559  0.61442937  0.16689148
   0.43687307  0.95589004  0.47871541
   0.56146924  0.36821985  0.78797915
   0.06096370  0.37200803  0.52083966
   0.30945637  0.36367330  0.16722660
   0.69280159  0.12400385  0.30030396
   0.44067824  0.95906791  0.83287906
   0.18698634  0.28814592  0.12486028
   0.18434478  0.28951860  0.25610272
   0.31200780  0.37076394  0.43451010
   0.56237272  0.03339863  0.12480862
   0.43325397  0.28780459  0.61119563
   0.18540932  0.45412057  0.34529021
   0.43602683  0.28830483  0.12492670
   0.68482247  0.79035709  0.25612305
   0.43618506  0.12185814  0.52097200
   0.19042752  0.29269086  0.87549900
   0.19015702  0.12407847  0.65548588
   0.94086380  0.12407565  0.65537554
   0.81360876  0.53991285  0.38950796
   0.06364431  0.04041993  0.38927360
   0.18443849  0.11396647  0.16651483
   0.05875253  0.53725822  0.61131553
   0.93453951  0.28980401  0.25608842
   0.55959684  0.53783974  0.61120027
   0.93688348  0.95712059  0.56494140
   0.69299174  0.62455479  0.30026621
   0.93692547  0.62097476  0.43452133
   0.93582583  0.62053921  0.78794510
   0.56125349  0.70658168  0.69946077
   0.06360363  0.71385722  0.83387958
   0.94223317  0.12416218  0.30036938
   0.93443069  0.78820081  0.61127957
   0.43436634  0.78991850  0.25618445
   0.31170389  0.36939844  0.78805122
   0.43857225  0.45740741  0.21177894
   0.18659877  0.12104411  0.52088541
   0.81219090  0.70741906  0.69928826
   0.05878891  0.03815461  0.61129101
   0.56349687  0.20959223  0.83249954
   0.31098738  0.87169415  0.52085146
   0.68701809  0.28930442  0.12483150
   0.18837633  0.95706428  0.21183927
   0.68475619  0.28795661  0.61121364
   0.30779989  0.03833371  0.61119073
   0.93784533  0.12110827  0.78825104
   0.43764848  0.79154817  0.87540164
   0.81544638  0.03920490  0.74371911
   0.93714291  0.45726399  0.69932648
   0.19075868  0.62407438  0.65562402
   0.31147691  0.70688501  0.69950352
   0.93594366  0.28907344  0.12475638
   0.43697838  0.45564977  0.47869068
   0.06215508  0.70539144  0.47860985
   0.93679213  0.12132846  0.43464565
   0.44250761  0.12422462  0.30046719
   0.18762788  0.12116864  0.43441301
   0.56291391  0.03578607  0.87551303
   0.18668918  0.95751617  0.56491137
   0.68674699  0.78900747  0.12492868
   0.56247407  0.53274348  0.12487563
   0.31337571  0.03941150  0.38943807
   0.68484895  0.11678194  0.16711360
   0.81390495  0.20681435  0.21154184
   0.06008359  0.54024612  0.25623557
   0.56187303  0.70562860  0.47868021
   0.43458703  0.78727095  0.12478333
   0.56791007  0.37510764  0.30046052
   0.43517444  0.95398147  0.34518462
   0.18683920  0.95751051  0.69958814
   0.43223130  0.61714974  0.16679394
   0.93854939  0.45738295  0.21187625
   0.06235678  0.53277277  0.12480225
   0.81152847  0.37166193  0.52091571
   0.94265925  0.62399537  0.30041333
   0.31035013  0.03939141  0.25601941
   0.68436911  0.78811849  0.61120637
   0.19084998  0.46078087  0.83336299
   0.43355775  0.11416973  0.16658381
   0.31095674  0.37146722  0.52095202
   0.43615448  0.61817136  0.78810197
   0.05930675  0.03963212  0.25614530
   0.56231712  0.70701694  0.56480374
   0.94008495  0.28859498  0.74402657
   0.68631320  0.11957160  0.78819707
   0.18871644  0.45737758  0.21176569
   0.93925815  0.78995728  0.38931496
   0.68709807  0.29216960  0.87524421
   0.55869031  0.86680175  0.16696880
   0.43688143  0.45742672  0.69925742
   0.93619666  0.95447301  0.34505704
   0.68612220  0.62148876  0.52089879
   0.06525090  0.87317894  0.65548354
   0.06149578  0.87178347  0.78828549
   0.06564514  0.37368499  0.65547131
   0.68693514  0.45543535  0.47865139
   0.18463235  0.78999102  0.25614192
   0.43725714  0.12117423  0.43451796
   0.81237501  0.03310243  0.12466517
   0.93671818  0.62141262  0.52086957
   0.06229239  0.87120336  0.43447957
   0.81259629  0.53306388  0.12462428
   0.43487909  0.45375439  0.34535384