       N       E                     dE             d eps       ncg     rms          rms(c)
DAV:   1     0.303771962259E+05    0.30377E+05   -0.91674E+05 27770   0.213E+03
DAV:   2     0.152052660741E+04   -0.28857E+05   -0.28262E+05 27600   0.616E+02
DAV:   3    -0.189801729053E+04   -0.34185E+04   -0.29708E+04 38450   0.298E+02
DAV:   4    -0.260982851099E+04   -0.71181E+03   -0.64821E+03 50680   0.103E+02
DAV:   5    -0.273984823330E+04   -0.13002E+03   -0.12157E+03 48250   0.422E+01    0.206E+02
RMM:   6    -0.657868529814E+04   -0.38388E+04   -0.14563E+04 48520   0.270E+02    0.763E+02
RMM:   7    -0.554780331160E+04    0.10309E+04   -0.67059E+03 49793   0.116E+02    0.542E+02
RMM:   8    -0.102158412432E+05   -0.46680E+04   -0.28144E+04 46712   0.432E+02    0.143E+03
RMM:   9    -0.127423894367E+05   -0.25265E+04   -0.28656E+04 48907   0.249E+02    0.133E+03
RMM:  10    -0.138585983135E+05   -0.11162E+04   -0.19567E+04 48452   0.264E+02    0.142E+03
RMM:  11    -0.156181649933E+05   -0.17596E+04   -0.20694E+04 50654   0.211E+02    0.115E+03
RMM:  12    -0.154906633925E+05    0.12750E+03   -0.23131E+04 35951   0.419E+02    0.124E+03
RMM:  13    -0.123611624431E+05    0.31295E+04   -0.97662E+03 39969   0.203E+02    0.962E+02
RMM:  14    -0.805405670074E+04    0.43071E+04   -0.50812E+03 50009   0.122E+02    0.603E+02
RMM:  15    -0.406289423987E+04    0.39912E+04   -0.62745E+03 27619   0.185E+02    0.443E+02
RMM:  16    -0.272683458293E+04    0.13361E+04   -0.22748E+03 29616   0.897E+01    0.289E+02
RMM:  17    -0.303859097555E+04   -0.31176E+03   -0.43530E+03 47414   0.114E+02    0.327E+02
RMM:  18    -0.257105498927E+04    0.46754E+03   -0.22696E+03 45957   0.640E+01    0.242E+02
RMM:  19    -0.249442926323E+04    0.76626E+02   -0.21027E+03 47393   0.483E+01    0.164E+02
RMM:  20    -0.251226519191E+04   -0.17836E+02   -0.12311E+03 44941   0.372E+01    0.148E+02
RMM:  21    -0.256506584148E+04   -0.52801E+02   -0.13278E+03 40802   0.353E+01    0.145E+02
RMM:  22    -0.244812211567E+04    0.11694E+03   -0.57776E+02 38863   0.217E+01    0.105E+02
RMM:  23    -0.241541945516E+04    0.32703E+02   -0.28689E+02 33407   0.183E+01    0.953E+01
RMM:  24    -0.237661281710E+04    0.38807E+02   -0.19871E+02 43220   0.968E+00    0.805E+01
RMM:  25    -0.234064975527E+04    0.35963E+02   -0.65832E+01 35492   0.897E+00    0.596E+01
RMM:  26    -0.238104196631E+04   -0.40392E+02   -0.77548E+01 30982   0.131E+01    0.836E+01
RMM:  27    -0.235915860692E+04    0.21883E+02   -0.62572E+01 42293   0.541E+00    0.703E+01
RMM:  28    -0.236602932656E+04   -0.68707E+01   -0.26848E+01 33077   0.581E+00    0.791E+01
RMM:  29    -0.236500476184E+04    0.10246E+01   -0.25228E+01 44863   0.184E+00    0.801E+01
RMM:  30    -0.236901567758E+04   -0.40109E+01   -0.13963E+01 44450   0.125E+00    0.859E+01
RMM:  31    -0.237001402675E+04   -0.99835E+00   -0.86118E+00 33724   0.264E+00    0.872E+01
RMM:  32    -0.235802615468E+04    0.11988E+02   -0.35732E+00 36533   0.215E+00    0.798E+01
RMM:  33    -0.235026886346E+04    0.77573E+01   -0.30341E+00 31701   0.228E+00    0.727E+01
RMM:  34    -0.234590010166E+04    0.43688E+01   -0.54633E+00 30579   0.385E+00    0.661E+01
RMM:  35    -0.234013532152E+04    0.57648E+01   -0.10359E+01 34859   0.415E+00    0.566E+01
RMM:  36    -0.233386990221E+04    0.62654E+01   -0.10626E+01 34277   0.375E+00    0.436E+01
RMM:  37    -0.232828454562E+04    0.55854E+01   -0.13300E+01 36085   0.425E+00    0.298E+01
RMM:  38    -0.232866750878E+04   -0.38296E+00   -0.12189E+01 37387   0.356E+00    0.309E+01
RMM:  39    -0.232960024601E+04   -0.93274E+00   -0.60820E+00 42648   0.156E+00    0.326E+01
RMM:  40    -0.233037698497E+04   -0.77674E+00   -0.27129E+00 40314   0.900E-01    0.346E+01
RMM:  41    -0.233075548937E+04   -0.37850E+00   -0.75659E-01 31406   0.118E+00    0.355E+01
RMM:  42    -0.232952180014E+04    0.12337E+01   -0.53323E-01 28859   0.152E+00    0.314E+01
RMM:  43    -0.232815735551E+04    0.13644E+01   -0.11710E+00 29058   0.207E+00    0.265E+01
RMM:  44    -0.232888544019E+04   -0.72808E+00   -0.15982E+00 30689   0.209E+00    0.300E+01
RMM:  45    -0.232869847980E+04    0.18696E+00   -0.16894E+00 41047   0.114E+00    0.294E+01
RMM:  46    -0.232885646948E+04   -0.15799E+00   -0.31803E-01 29616   0.103E+00    0.300E+01
RMM:  47    -0.232817129484E+04    0.68517E+00   -0.23251E-01 32915   0.619E-01    0.280E+01
RMM:  48    -0.232806659290E+04    0.10470E+00   -0.23331E-01 29430   0.902E-01    0.273E+01
RMM:  49    -0.232790313171E+04    0.16346E+00   -0.25936E-01 28976   0.104E+00    0.272E+01
RMM:  50    -0.232736285748E+04    0.54027E+00   -0.21712E-01 29117   0.927E-01    0.260E+01
RMM:  51    -0.237642343437E+04   -0.49061E+02   -0.34595E+01 31258   0.924E+00    0.900E+01
RMM:  52    -0.236103021720E+04    0.15393E+02   -0.24486E+01 38213   0.549E+00    0.770E+01
RMM:  53    -0.234865796788E+04    0.12372E+02   -0.87874E+00 29456   0.564E+00    0.653E+01
RMM:  54    -0.234819124104E+04    0.46673E+00   -0.14209E+01 29757   0.669E+00    0.654E+01
RMM:  55    -0.236067970157E+04   -0.12488E+02   -0.16138E+01 29921   0.712E+00    0.768E+01
RMM:  56    -0.236296847249E+04   -0.22888E+01   -0.19810E+01 29079   0.868E+00    0.742E+01
RMM:  57    -0.235885417488E+04    0.41143E+01   -0.15060E+01 30245   0.661E+00    0.706E+01
RMM:  58    -0.234719554286E+04    0.11659E+02   -0.61883E+00 28366   0.526E+00    0.571E+01
RMM:  59    -0.234852158038E+04   -0.13260E+01   -0.96203E+00 27646   0.657E+00    0.593E+01
RMM:  60    -0.235038030825E+04   -0.18587E+01   -0.84987E+00 28329   0.622E+00    0.617E+01
RMM:  61    -0.234927502651E+04    0.11053E+01   -0.13196E+01 28414   0.727E+00    0.614E+01
RMM:  62    -0.235136355811E+04   -0.20885E+01   -0.62101E+00 27950   0.555E+00    0.623E+01
RMM:  63    -0.234907196888E+04    0.22916E+01   -0.37847E+00 29505   0.366E+00    0.593E+01
RMM:  64    -0.234192956879E+04    0.71424E+01   -0.31903E+00 30948   0.283E+00    0.502E+01
RMM:  65    -0.233682843359E+04    0.51011E+01   -0.18700E+00 28359   0.287E+00    0.432E+01
RMM:  66    -0.233760002810E+04   -0.77159E+00   -0.14605E+01 28328   0.747E+00    0.477E+01
RMM:  67    -0.232920921352E+04    0.83908E+01   -0.62300E+00 27622   0.611E+00    0.288E+01
RMM:  68    -0.232834362369E+04    0.86559E+00   -0.35919E+00 30037   0.325E+00    0.254E+01
RMM:  69    -0.232742706843E+04    0.91656E+00   -0.24809E+00 29714   0.282E+00    0.215E+01
RMM:  70    -0.232656381311E+04    0.86326E+00   -0.28283E+00 33075   0.219E+00    0.166E+01
RMM:  71    -0.233222827706E+04   -0.56645E+01   -0.68827E+00 29941   0.449E+00    0.358E+01
RMM:  72    -0.232661437554E+04    0.56139E+01   -0.30117E+00 28698   0.364E+00    0.137E+01
RMM:  73    -0.232660831674E+04    0.60588E-02   -0.29174E+00 33268   0.218E+00    0.143E+01
RMM:  74    -0.232625918935E+04    0.34913E+00   -0.18067E+00 34493   0.169E+00    0.102E+01
RMM:  75    -0.232614904512E+04    0.11014E+00   -0.53309E-01 30076   0.127E+00    0.860E+00
RMM:  76    -0.232629082068E+04   -0.14178E+00   -0.89599E-01 27827   0.195E+00    0.997E+00
RMM:  77    -0.232613740261E+04    0.15342E+00   -0.39024E-01 27621   0.153E+00    0.934E+00
RMM:  78    -0.232607437348E+04    0.63029E-01   -0.24241E-01 28990   0.972E-01    0.846E+00
RMM:  79    -0.232609614819E+04   -0.21775E-01   -0.16954E-01 27965   0.899E-01    0.870E+00
RMM:  80    -0.232599456844E+04    0.10158E+00   -0.14095E-01 28491   0.794E-01    0.728E+00
RMM:  81    -0.232630691529E+04   -0.31235E+00   -0.73325E-01 29219   0.158E+00    0.101E+01
RMM:  82    -0.232588329847E+04    0.42362E+00   -0.25447E-01 27751   0.132E+00    0.484E+00
RMM:  83    -0.232581753109E+04    0.65767E-01   -0.20485E-01 32867   0.605E-01    0.332E+00
RMM:  84    -0.232579880391E+04    0.18727E-01   -0.96387E-02 29929   0.551E-01    0.270E+00
RMM:  85    -0.232578303560E+04    0.15768E-01   -0.76438E-02 30653   0.460E-01    0.191E+00
RMM:  86    -0.232581122779E+04   -0.28192E-01   -0.10626E-01 30459   0.554E-01    0.281E+00
RMM:  87    -0.232578539838E+04    0.25829E-01   -0.43669E-02 28885   0.441E-01    0.184E+00
RMM:  88    -0.232579147713E+04   -0.60787E-02   -0.50166E-02 34429   0.265E-01    0.195E+00
RMM:  89    -0.232578223578E+04    0.92413E-02   -0.21721E-02 33746   0.187E-01    0.143E+00
RMM:  90    -0.232577483402E+04    0.74018E-02   -0.95166E-03 32147   0.137E-01    0.905E-01
RMM:  91    -0.232578671461E+04   -0.11881E-01   -0.24956E-02 29461   0.292E-01    0.167E+00
RMM:  92    -0.232577394893E+04    0.12766E-01   -0.90991E-03 27692   0.252E-01    0.766E-01
RMM:  93    -0.232577200701E+04    0.19419E-02   -0.41498E-03 31662   0.944E-02    0.491E-01
RMM:  94    -0.232577159973E+04    0.40728E-03   -0.31840E-03 33758   0.745E-02    0.364E-01
RMM:  95    -0.232577153407E+04    0.65662E-04   -0.17509E-03 30895   0.673E-02    0.337E-01
RMM:  96    -0.232577419891E+04   -0.26648E-02   -0.33028E-03 29935   0.988E-02    0.786E-01
RMM:  97    -0.232577272823E+04    0.14707E-02   -0.12751E-03 28079   0.803E-02    0.558E-01
RMM:  98    -0.232577164933E+04    0.10789E-02   -0.79415E-04 29012   0.552E-02    0.302E-01
RMM:  99    -0.232577138679E+04    0.26255E-03   -0.67533E-04 30132   0.455E-02    0.176E-01
RMM: 100    -0.232577158955E+04   -0.20277E-03   -0.77405E-04 32976   0.374E-02
   1 F= -.23257716E+04 E0= -.23229840E+04  d E =-.232577E+04
       N       E                     dE             d eps       ncg     rms          rms(c)
DAV:   1    -0.232577763802E+04   -0.62512E-02   -0.15056E+00 30580   0.130E+00    0.394E-01
RMM:   2    -0.232786278378E+04   -0.20851E+01   -0.17158E-01 32755   0.588E-01    0.200E+01
RMM:   3    -0.232601502800E+04    0.18478E+01   -0.98491E-02 35687   0.426E-01    0.562E+00
RMM:   4    -0.232588469423E+04    0.13033E+00   -0.59028E-02 27602   0.572E-01    0.440E+00
RMM:   5    -0.232598672992E+04   -0.10204E+00   -0.56653E-02 35708   0.301E-01    0.609E+00
RMM:   6    -0.232588865615E+04    0.98074E-01   -0.66121E-02 32195   0.365E-01    0.445E+00
RMM:   7    -0.232593308518E+04   -0.44429E-01   -0.95779E-02 32304   0.454E-01    0.531E+00
RMM:   8    -0.232584286016E+04    0.90225E-01   -0.43219E-02 27660   0.421E-01    0.323E+00
RMM:   9    -0.232578668686E+04    0.56173E-01   -0.15641E-02 27683   0.289E-01    0.111E+00
RMM:  10    -0.232578135397E+04    0.53329E-02   -0.83595E-03 28089   0.192E-01    0.714E-01
RMM:  11    -0.232578210623E+04   -0.75226E-03   -0.11152E-02 32948   0.148E-01    0.757E-01
RMM:  12    -0.232578035022E+04    0.17560E-02   -0.38857E-03 28596   0.118E-01    0.467E-01
RMM:  13    -0.232577964182E+04    0.70840E-03   -0.27822E-03 32964   0.697E-02    0.290E-01
RMM:  14    -0.232577962874E+04    0.13077E-04   -0.16292E-03 40626   0.372E-02    0.251E-01
RMM:  15    -0.232577943765E+04    0.19109E-03   -0.44693E-04 30629   0.352E-02    0.152E-01
RMM:  16    -0.232577935626E+04    0.81389E-04   -0.17965E-04 28401   0.260E-02    0.685E-02
RMM:  17    -0.232577937271E+04   -0.16447E-04   -0.16921E-04 29468   0.149E-02    0.611E-02
RMM:  18    -0.232577944267E+04   -0.69960E-04   -0.11169E-04 28085   0.176E-02    0.840E-02
RMM:  19    -0.232577946144E+04   -0.18765E-04   -0.41307E-05 19428   0.154E-02    0.505E-02
RMM:  20    -0.232577947622E+04   -0.14788E-04   -0.21711E-05 17113   0.987E-03    0.474E-02
RMM:  21    -0.232577952309E+04   -0.46862E-04   -0.25075E-05 17382   0.109E-02    0.440E-02
RMM:  22    -0.232577953781E+04   -0.14727E-04   -0.15091E-05 15504   0.973E-03    0.203E-02
RMM:  23    -0.232577954681E+04   -0.89956E-05   -0.84833E-06 15413   0.494E-03
   2 F= -.23257795E+04 E0= -.23229920E+04  d E =-.795725E-02
       N       E                     dE             d eps       ncg     rms          rms(c)
DAV:   1    -0.232577642865E+04    0.31092E-02   -0.13589E+01 27940   0.387E+00    0.704E-01
RMM:   2    -0.232826514345E+04   -0.24887E+01   -0.46854E-01 29671   0.128E+00    0.216E+01
RMM:   3    -0.232607115332E+04    0.21940E+01   -0.19405E-01 33889   0.666E-01    0.627E+00
RMM:   4    -0.232658071222E+04   -0.50956E+00   -0.87638E-02 27685   0.680E-01    0.120E+01
RMM:   5    -0.232586708299E+04    0.71363E+00   -0.49876E-02 33614   0.332E-01    0.332E+00
RMM:   6    -0.232605510539E+04   -0.18802E+00   -0.95464E-02 30744   0.475E-01    0.719E+00
RMM:   7    -0.232590491958E+04    0.15019E+00   -0.10077E-01 28311   0.599E-01    0.422E+00
RMM:   8    -0.232586306300E+04    0.41857E-01   -0.48846E-02 27663   0.474E-01    0.350E+00
RMM:   9    -0.232580063424E+04    0.62429E-01   -0.19000E-02 27667   0.313E-01    0.136E+00
RMM:  10    -0.232579304585E+04    0.75884E-02   -0.12399E-02 28592   0.216E-01    0.798E-01
RMM:  11    -0.232580055442E+04   -0.75086E-02   -0.20771E-02 32785   0.198E-01    0.141E+00
RMM:  12    -0.232579401983E+04    0.65346E-02   -0.64726E-03 27982   0.161E-01    0.823E-01
RMM:  13    -0.232579053607E+04    0.34838E-02   -0.30489E-03 27986   0.126E-01    0.350E-01
RMM:  14    -0.232579052459E+04    0.11473E-04   -0.32958E-03 33633   0.768E-02    0.319E-01
RMM:  15    -0.232579059872E+04   -0.74124E-04   -0.22708E-03 32064   0.706E-02    0.320E-01
RMM:  16    -0.232579021906E+04    0.37966E-03   -0.85857E-04 29487   0.545E-02    0.174E-01
RMM:  17    -0.232579023281E+04   -0.13754E-04   -0.92822E-04 37735   0.317E-02    0.162E-01
RMM:  18    -0.232579020472E+04    0.28090E-04   -0.34637E-04 30954   0.299E-02    0.137E-01
RMM:  19    -0.232579012345E+04    0.81273E-04   -0.14408E-04 28264   0.234E-02    0.574E-02
RMM:  20    -0.232579012898E+04   -0.55365E-05   -0.14046E-04 27220   0.128E-02    0.513E-02
RMM:  21    -0.232579014404E+04   -0.15054E-04   -0.85024E-05 25993   0.146E-02    0.630E-02
RMM:  22    -0.232579012990E+04    0.14134E-04   -0.30834E-05 18384   0.124E-02    0.267E-02
RMM:  23    -0.232579013134E+04   -0.14401E-05   -0.20547E-05 17767   0.725E-03
   3 F= -.23257901E+04 E0= -.23230018E+04  d E =-.185418E-01
       N       E                     dE             d eps       ncg     rms          rms(c)
DAV:   1    -0.232579471661E+04   -0.45867E-02   -0.35685E+00 28500   0.198E+00    0.324E-01
RMM:   2    -0.232691725633E+04   -0.11225E+01   -0.11865E-01 29295   0.659E-01    0.145E+01
RMM:   3    -0.232584320785E+04    0.10740E+01   -0.34454E-02 28402   0.393E-01    0.190E+00
RMM:   4    -0.232591357785E+04   -0.70370E-01   -0.22469E-02 27778   0.343E-01    0.461E+00
RMM:   5    -0.232582979362E+04    0.83784E-01   -0.17011E-02 39375   0.142E-01    0.234E+00
RMM:   6    -0.232583873026E+04   -0.89366E-02   -0.29436E-02 28226   0.333E-01    0.261E+00
RMM:   7    -0.232584253863E+04   -0.38084E-02   -0.14306E-02 27713   0.258E-01    0.292E+00
RMM:   8    -0.232580269106E+04    0.39848E-01   -0.55713E-03 27676   0.173E-01    0.838E-01
RMM:   9    -0.232579928112E+04    0.34099E-02   -0.29022E-03 28038   0.118E-01    0.534E-01
RMM:  10    -0.232580100707E+04   -0.17260E-02   -0.38248E-03 29879   0.104E-01    0.757E-01
RMM:  11    -0.232580065459E+04    0.35248E-03   -0.39424E-03 34237   0.882E-02    0.681E-01
RMM:  12    -0.232579800852E+04    0.26461E-02   -0.12964E-03 27627   0.843E-02    0.192E-01
RMM:  13    -0.232579786068E+04    0.14783E-03   -0.80623E-04 33223   0.391E-02    0.107E-01
RMM:  14    -0.232579793905E+04   -0.78363E-04   -0.71311E-04 37226   0.304E-02    0.142E-01
RMM:  15    -0.232579790577E+04    0.33279E-04   -0.27793E-04 30146   0.281E-02    0.109E-01
RMM:  16    -0.232579788575E+04    0.20019E-04   -0.20347E-04 31369   0.198E-02    0.835E-02
RMM:  17    -0.232579788266E+04    0.30876E-05   -0.11524E-04 27700   0.174E-02    0.752E-02
RMM:  18    -0.232579786719E+04    0.15468E-04   -0.48786E-05 21123   0.158E-02    0.578E-02
RMM:  19    -0.232579786316E+04    0.40330E-05   -0.20116E-05 17192   0.900E-03
   4 F= -.23257979E+04 E0= -.23230097E+04  d E =-.773182E-02
       N       E                     dE             d eps       ncg     rms          rms(c)
DAV:   1    -0.232579784176E+04    0.25431E-04   -0.10644E+01 27600   0.342E+00    0.553E-01
RMM:   2    -0.232843818896E+04   -0.26403E+01   -0.30782E-01 28988   0.110E+00    0.221E+01
RMM:   3    -0.232594171010E+04    0.24965E+01   -0.91829E-02 28934   0.614E-01    0.374E+00
RMM:   4    -0.232666660565E+04   -0.72490E+00   -0.58173E-02 28864   0.463E-01    0.126E+01
RMM:   5    -0.232586949215E+04    0.79711E+00   -0.37689E-02 28080   0.388E-01    0.266E+00
RMM:   6    -0.232621682924E+04   -0.34734E+00   -0.13665E-01 31082   0.547E-01    0.891E+00
RMM:   7    -0.232589338788E+04    0.32344E+00   -0.62675E-02 27826   0.515E-01    0.367E+00
RMM:   8    -0.232581620186E+04    0.77186E-01   -0.26883E-02 27639   0.413E-01    0.120E+00
RMM:   9    -0.232581137142E+04    0.48304E-02   -0.10878E-02 28560   0.207E-01    0.943E-01
RMM:  10    -0.232581559280E+04   -0.42214E-02   -0.16808E-02 30953   0.202E-01    0.125E+00
RMM:  11    -0.232582212229E+04   -0.65295E-02   -0.13164E-02 32004   0.162E-01    0.160E+00
RMM:  12    -0.232580816210E+04    0.13960E-01   -0.38017E-03 27629   0.141E-01    0.398E-01
RMM:  13    -0.232580770104E+04    0.46106E-03   -0.32238E-03 33593   0.718E-02    0.322E-01
RMM:  14    -0.232580774404E+04   -0.43001E-04   -0.24163E-03 36186   0.593E-02    0.300E-01
RMM:  15    -0.232580742343E+04    0.32062E-03   -0.77924E-04 29669   0.501E-02    0.171E-01
RMM:  16    -0.232580736584E+04    0.57591E-04   -0.59795E-04 33616   0.332E-02    0.128E-01
RMM:  17    -0.232580739192E+04   -0.26085E-04   -0.44121E-04 33255   0.288E-02    0.130E-01
RMM:  18    -0.232580735673E+04    0.35193E-04   -0.15467E-04 27825   0.257E-02    0.107E-01
RMM:  19    -0.232580734733E+04    0.93925E-05   -0.10152E-04 26166   0.151E-02    0.935E-02
RMM:  20    -0.232580735203E+04   -0.46933E-05   -0.87594E-05 25622   0.144E-02
   5 F= -.23258074E+04 E0= -.23230195E+04  d E =-.172207E-01
       N       E                     dE             d eps       ncg     rms          rms(c)
DAV:   1    -0.232577236288E+04    0.34984E-01   -0.42562E+01 27600   0.685E+00    0.115E+00
RMM:   2    -0.233867660484E+04   -0.12904E+02   -0.15303E+00 29475   0.238E+00    0.486E+01
RMM:   3    -0.232632117544E+04    0.12355E+02   -0.41541E-01 28509   0.135E+00    0.687E+00
RMM:   4    -0.232658621386E+04   -0.26504E+00   -0.26415E-01 27722   0.119E+00    0.118E+01
RMM:   5    -0.232638053780E+04    0.20568E+00   -0.19523E-01 40117   0.442E-01    0.103E+01
RMM:   6    -0.232624230460E+04    0.13823E+00   -0.30371E-01 28164   0.107E+00    0.899E+00
RMM:   7    -0.232618448189E+04    0.57823E-01   -0.14072E-01 27664   0.836E-01    0.820E+00
RMM:   8    -0.232589168965E+04    0.29279E+00   -0.56702E-02 27764   0.533E-01    0.360E+00
RMM:   9    -0.232585266528E+04    0.39024E-01   -0.40538E-02 27777   0.421E-01    0.271E+00
RMM:  10    -0.232586471909E+04   -0.12054E-01   -0.48404E-02 29803   0.379E-01    0.306E+00
RMM:  11    -0.232583672967E+04    0.27989E-01   -0.41565E-02 30041   0.350E-01    0.211E+00
RMM:  12    -0.232581517673E+04    0.21553E-01   -0.16017E-02 27813   0.307E-01    0.873E-01
RMM:  13    -0.232581377641E+04    0.14003E-02   -0.12895E-02 33079   0.149E-01    0.695E-01
RMM:  14    -0.232581321482E+04    0.56159E-03   -0.84052E-03 34424   0.118E-01    0.551E-01
RMM:  15    -0.232581226479E+04    0.95003E-03   -0.28104E-03 29597   0.958E-02    0.354E-01
RMM:  16    -0.232581206534E+04    0.19945E-03   -0.23682E-03 33652   0.664E-02    0.274E-01
RMM:  17    -0.232581213635E+04   -0.71008E-04   -0.17795E-03 32179   0.631E-02    0.269E-01
RMM:  18    -0.232581192749E+04    0.20886E-03   -0.60402E-04 29144   0.519E-02    0.194E-01
RMM:  19    -0.232581191636E+04    0.11133E-04   -0.55330E-04 34882   0.267E-02    0.169E-01
RMM:  20    -0.232581191039E+04    0.59699E-05   -0.36470E-04 32585   0.265E-02    0.155E-01
RMM:  21    -0.232581183640E+04    0.73982E-04   -0.21035E-04 30028   0.234E-02    0.954E-02
RMM:  22    -0.232581182865E+04    0.77505E-05   -0.14499E-04 27248   0.135E-02    0.770E-02
RMM:  23    -0.232581182358E+04    0.50736E-05   -0.61368E-05 22392   0.121E-02
   6 F= -.23258118E+04 E0= -.23230246E+04  d E =-.216922E-01
       N       E                     dE             d eps       ncg     rms          rms(c)
DAV:   1    -0.232580916828E+04    0.26604E-02   -0.38717E+00 27720   0.207E+00    0.340E-01
RMM:   2    -0.232716545158E+04   -0.13563E+01   -0.13574E-01 29618   0.686E-01    0.158E+01
RMM:   3    -0.232585960938E+04    0.13058E+01   -0.38423E-02 28198   0.424E-01    0.185E+00
RMM:   4    -0.232582898514E+04    0.30624E-01   -0.25573E-02 27695   0.373E-01    0.170E+00
RMM:   5    -0.232619789946E+04   -0.36891E+00   -0.39102E-02 40427   0.199E-01    0.844E+00
RMM:   6    -0.232595616243E+04    0.24174E+00   -0.41265E-02 30612   0.313E-01    0.512E+00
RMM:   7    -0.232585061279E+04    0.10555E+00   -0.24899E-02 28032   0.314E-01    0.257E+00
RMM:   8    -0.232581778371E+04    0.32829E-01   -0.13847E-02 27660   0.280E-01    0.951E-01
RMM:   9    -0.232582524180E+04   -0.74581E-02   -0.13309E-02 29444   0.200E-01    0.147E+00
RMM:  10    -0.232582386233E+04    0.13795E-02   -0.14932E-02 31895   0.187E-01    0.142E+00
RMM:  11    -0.232581856927E+04    0.52931E-02   -0.65947E-03 27930   0.162E-01    0.105E+00
RMM:  12    -0.232581261251E+04    0.59568E-02   -0.27662E-03 27704   0.124E-01    0.205E-01
RMM:  13    -0.232581249751E+04    0.11500E-03   -0.24738E-03 36710   0.505E-02    0.149E-01
RMM:  14    -0.232581264946E+04   -0.15194E-03   -0.12698E-03 37898   0.405E-02    0.200E-01
RMM:  15    -0.232581249210E+04    0.15736E-03   -0.36361E-04 29843   0.331E-02    0.992E-02
RMM:  16    -0.232581250089E+04   -0.87966E-05   -0.36046E-04 36107   0.195E-02    0.921E-02
RMM:  17    -0.232581248658E+04    0.14315E-04   -0.12453E-04 28625   0.196E-02    0.733E-02
RMM:  18    -0.232581247292E+04    0.13657E-04   -0.52634E-05 21773   0.155E-02    0.571E-02
RMM:  19    -0.232581247407E+04   -0.11440E-05   -0.30944E-05 18957   0.100E-02
   7 F= -.23258125E+04 E0= -.23230252E+04  d E =-.223427E-01
       N       E                     dE             d eps       ncg     rms          rms(c)
DAV:   1    -0.232581555576E+04   -0.30828E-02   -0.55152E+00 27600   0.246E+00    0.426E-01
RMM:   2    -0.232868177864E+04   -0.28662E+01   -0.28895E-01 30327   0.917E-01    0.231E+01
RMM:   3    -0.232593232498E+04    0.27495E+01   -0.75515E-02 27898   0.611E-01    0.300E+00
RMM:   4    -0.232629875763E+04   -0.36643E+00   -0.45246E-02 28664   0.429E-01    0.943E+00
RMM:   5    -0.232591989037E+04    0.37887E+00   -0.44240E-02 32965   0.290E-01    0.395E+00
RMM:   6    -0.232592699437E+04   -0.71040E-02   -0.73673E-02 27955   0.523E-01    0.417E+00
RMM:   7    -0.232594819543E+04   -0.21201E-01   -0.43454E-02 27683   0.450E-01    0.500E+00
RMM:   8    -0.232584225452E+04    0.10594E+00   -0.16228E-02 27691   0.284E-01    0.184E+00
RMM:   9    -0.232582182980E+04    0.20425E-01   -0.88912E-03 27704   0.227E-01    0.573E-01
RMM:  10    -0.232582571689E+04   -0.38871E-02   -0.99792E-03 29000   0.184E-01    0.106E+00
RMM:  11    -0.232582336013E+04    0.23568E-02   -0.58758E-03 29144   0.139E-01    0.798E-01
RMM:  12    -0.232582009682E+04    0.32633E-02   -0.23108E-03 28007   0.111E-01    0.260E-01
RMM:  13    -0.232581981819E+04    0.27863E-03   -0.18544E-03 32523   0.557E-02    0.133E-01
RMM:  14    -0.232581999421E+04   -0.17602E-03   -0.14259E-03 37106   0.411E-02    0.192E-01
RMM:  15    -0.232581994111E+04    0.53099E-04   -0.52805E-04 31214   0.362E-02    0.149E-01
RMM:  16    -0.232581989353E+04    0.47581E-04   -0.30976E-04 31542   0.259E-02    0.109E-01
RMM:  17    -0.232581989822E+04   -0.46859E-05   -0.26874E-04 33460   0.203E-02    0.105E-01
RMM:  18    -0.232581989778E+04    0.43411E-06   -0.11786E-04 27332   0.206E-02    0.104E-01
RMM:  19    -0.232581989166E+04    0.61226E-05   -0.64888E-05 22594   0.131E-02
   8 F= -.23258199E+04 E0= -.23230331E+04  d E =-.741759E-02
       N       E                     dE             d eps       ncg     rms          rms(c)
DAV:   1    -0.232581807760E+04    0.18202E-02   -0.12524E+01 27600   0.370E+00    0.600E-01
RMM:   2    -0.232947315972E+04   -0.36551E+01   -0.39704E-01 29274   0.123E+00    0.261E+01
RMM:   3    -0.232603111288E+04    0.34420E+01   -0.11331E-01 28484   0.705E-01    0.478E+00
RMM:   4    -0.232665376841E+04   -0.62266E+00   -0.66827E-02 29331   0.472E-01    0.123E+01
RMM:   5    -0.232594009948E+04    0.71367E+00   -0.55532E-02 28564   0.462E-01    0.394E+00
RMM:   6    -0.232599296141E+04   -0.52862E-01   -0.10595E-01 28196   0.620E-01    0.534E+00
RMM:   7    -0.232617004759E+04   -0.17709E+00   -0.92575E-02 28354   0.571E-01    0.817E+00
RMM:   8    -0.232587443514E+04    0.29561E+00   -0.36234E-02 27617   0.446E-01    0.250E+00
RMM:   9    -0.232583191655E+04    0.42519E-01   -0.15986E-02 27691   0.314E-01    0.793E-01
RMM:  10    -0.232583554162E+04   -0.36251E-02   -0.16039E-02 28880   0.236E-01    0.119E+00
RMM:  11    -0.232583510724E+04    0.43439E-03   -0.97798E-03 29201   0.177E-01    0.114E+00
RMM:  12    -0.232582905214E+04    0.60551E-02   -0.39108E-03 28047   0.136E-01    0.431E-01
RMM:  13    -0.232582873149E+04    0.32065E-03   -0.38753E-03 34336   0.737E-02    0.346E-01
RMM:  14    -0.232582876884E+04   -0.37351E-04   -0.21699E-03 35110   0.585E-02    0.333E-01
RMM:  15    -0.232582846455E+04    0.30430E-03   -0.65525E-04 29285   0.485E-02    0.222E-01
RMM:  16    -0.232582837885E+04    0.85695E-04   -0.44511E-04 31085   0.334E-02    0.175E-01
RMM:  17    -0.232582838491E+04   -0.60599E-05   -0.49716E-04 34648   0.281E-02    0.164E-01
RMM:  18    -0.232582830202E+04    0.82888E-04   -0.17348E-04 28203   0.251E-02    0.978E-02
RMM:  19    -0.232582827892E+04    0.23108E-04   -0.10624E-04 26433   0.177E-02    0.719E-02
RMM:  20    -0.232582829351E+04   -0.14592E-04   -0.83410E-05 24339   0.129E-02    0.822E-02
RMM:  21    -0.232582828123E+04    0.12279E-04   -0.41416E-05 20413   0.135E-02    0.631E-02
RMM:  22    -0.232582827288E+04    0.83437E-05   -0.19944E-05 16728   0.937E-03
   9 F= -.23258283E+04 E0= -.23230425E+04  d E =-.157988E-01
       N       E                     dE             d eps       ncg     rms          rms(c)
DAV:   1    -0.232579224102E+04    0.36040E-01   -0.50075E+01 27600   0.741E+00    0.128E+00
RMM:   2    -0.234449537998E+04   -0.18703E+02   -0.23300E+00 30021   0.277E+00    0.588E+01
RMM:   3    -0.232654076732E+04    0.17955E+02   -0.56492E-01 28222   0.160E+00    0.830E+00
RMM:   4    -0.232620620782E+04    0.33456E+00   -0.33508E-01 28287   0.128E+00    0.803E+00
RMM:   5    -0.233171433383E+04   -0.55081E+01   -0.51294E-01 38169   0.827E-01    0.333E+01
RMM:   6    -0.232676119848E+04    0.49531E+01   -0.47598E-01 31394   0.108E+00    0.116E+01
RMM:   7    -0.232621024622E+04    0.55095E+00   -0.29714E-01 27612   0.126E+00    0.810E+00
RMM:   8    -0.232623269174E+04   -0.22446E-01   -0.18269E-01 29332   0.759E-01    0.868E+00
RMM:   9    -0.232592679614E+04    0.30590E+00   -0.11881E-01 28268   0.686E-01    0.390E+00
RMM:  10    -0.232594172391E+04   -0.14928E-01   -0.13262E-01 27984   0.724E-01    0.438E+00
RMM:  11    -0.232587301823E+04    0.68706E-01   -0.58064E-02 27710   0.526E-01    0.263E+00
RMM:  12    -0.232584416139E+04    0.28857E-01   -0.28921E-02 28767   0.348E-01    0.143E+00
RMM:  13    -0.232584077861E+04    0.33828E-02   -0.25570E-02 33046   0.206E-01    0.111E+00
RMM:  14    -0.232583680502E+04    0.39736E-02   -0.10804E-02 32842   0.145E-01    0.638E-01
RMM:  15    -0.232583547306E+04    0.13320E-02   -0.42394E-03 30917   0.104E-01    0.387E-01
RMM:  16    -0.232583560919E+04   -0.13613E-03   -0.41115E-03 38173   0.656E-02    0.356E-01
RMM:  17    -0.232583539899E+04    0.21020E-03   -0.14955E-03 33274   0.522E-02    0.269E-01
RMM:  18    -0.232583522941E+04    0.16958E-03   -0.72238E-04 30663   0.453E-02    0.192E-01
RMM:  19    -0.232583526528E+04   -0.35868E-04   -0.84302E-04 32015   0.439E-02    0.184E-01
RMM:  20    -0.232583545458E+04   -0.18929E-03   -0.57237E-04 29663   0.434E-02    0.255E-01
RMM:  21    -0.232583535438E+04    0.10020E-03   -0.24443E-04 28584   0.326E-02    0.215E-01
RMM:  22    -0.232583532393E+04    0.30450E-04   -0.31463E-04 32799   0.167E-02    0.191E-01
RMM:  23    -0.232583520984E+04    0.11409E-03   -0.11001E-04 26011   0.155E-02    0.114E-01
RMM:  24    -0.232583517383E+04    0.36009E-04   -0.52950E-05 21370   0.131E-02    0.773E-02
RMM:  25    -0.232583516933E+04    0.44978E-05   -0.41754E-05 20387   0.100E-02
  10 F= -.23258352E+04 E0= -.23230514E+04  d E =-.226953E-01
       N       E                     dE             d eps       ncg     rms          rms(c)
DAV:   1    -0.232583458208E+04    0.59174E-03   -0.14415E+01 27600   0.397E+00    0.721E-01
RMM:   2    -0.233328333061E+04   -0.74487E+01   -0.91378E-01 30849   0.155E+00    0.375E+01
RMM:   3    -0.232624804777E+04    0.70353E+01   -0.21600E-01 27874   0.100E+00    0.671E+00
RMM:   4    -0.232691145158E+04   -0.66340E+00   -0.11834E-01 28727   0.678E-01    0.140E+01
RMM:   5    -0.232604372825E+04    0.86772E+00   -0.93250E-02 31813   0.442E-01    0.548E+00
RMM:   6    -0.232616304451E+04   -0.11932E+00   -0.20753E-01 28584   0.841E-01    0.749E+00
RMM:   7    -0.232644618923E+04   -0.28314E+00   -0.15638E-01 28465   0.732E-01    0.107E+01
RMM:   8    -0.232588850498E+04    0.55768E+00   -0.60142E-02 27616   0.594E-01    0.215E+00
RMM:   9    -0.232584776671E+04    0.40738E-01   -0.26765E-02 27862   0.380E-01    0.774E-01
RMM:  10    -0.232585149161E+04   -0.37249E-02   -0.29143E-02 29968   0.291E-01    0.109E+00
RMM:  11    -0.232584811881E+04    0.33728E-02   -0.11153E-02 28757   0.216E-01    0.805E-01
RMM:  12    -0.232584661913E+04    0.14997E-02   -0.85133E-03 34064   0.105E-01    0.557E-01
RMM:  13    -0.232584577316E+04    0.84596E-03   -0.37855E-03 35458   0.709E-02    0.366E-01
RMM:  14    -0.232584582283E+04   -0.49670E-04   -0.24277E-03 34310   0.629E-02    0.344E-01
RMM:  15    -0.232584540848E+04    0.41435E-03   -0.72386E-04 29555   0.511E-02    0.208E-01
RMM:  16    -0.232584533749E+04    0.70989E-04   -0.49154E-04 31025   0.353E-02    0.166E-01
RMM:  17    -0.232584538041E+04   -0.42919E-04   -0.58473E-04 32790   0.345E-02    0.170E-01
RMM:  18    -0.232584534303E+04    0.37380E-04   -0.25419E-04 28967   0.313E-02    0.143E-01
RMM:  19    -0.232584531037E+04    0.32668E-04   -0.16859E-04 29066   0.222E-02    0.116E-01
RMM:  20    -0.232584530935E+04    0.10179E-05   -0.17126E-04 29671   0.183E-02    0.106E-01
RMM:  21    -0.232584527356E+04    0.35784E-04   -0.54011E-05 21155   0.157E-02    0.645E-02
RMM:  22    -0.232584526520E+04    0.83639E-05   -0.29050E-05 18949   0.885E-03
  11 F= -.23258453E+04 E0= -.23230623E+04  d E =-.100959E-01
       N       E                     dE             d eps       ncg     rms          rms(c)
DAV:   1    -0.232574437014E+04    0.10090E+00   -0.12959E+02 27600   0.119E+01    0.233E+00
RMM:   2    -0.239436037764E+04   -0.68616E+02   -0.16899E+01 32100   0.557E+00    0.110E+02
RMM:   3    -0.232900358481E+04    0.65357E+02   -0.23877E+00 28171   0.310E+00    0.206E+01
RMM:   4    -0.232669525392E+04    0.23083E+01   -0.13022E+00 28911   0.211E+00    0.123E+01
RMM:   5    -0.234439966393E+04   -0.17704E+02   -0.24399E+00 39458   0.133E+00    0.584E+01
RMM:   6    -0.232880853891E+04    0.15591E+02   -0.14580E+00 28300   0.224E+00    0.214E+01
RMM:   7    -0.233085239062E+04   -0.20439E+01   -0.12362E+00 27857   0.223E+00    0.310E+01
RMM:   8    -0.232662830814E+04    0.42241E+01   -0.67076E-01 27619   0.189E+00    0.104E+01
RMM:   9    -0.232613062273E+04    0.49769E+00   -0.51012E-01 27741   0.160E+00    0.715E+00
RMM:  10    -0.232614251935E+04   -0.11897E-01   -0.42812E-01 28739   0.120E+00    0.741E+00
RMM:  11    -0.232605802246E+04    0.84497E-01   -0.27821E-01 29862   0.861E-01    0.620E+00
RMM:  12    -0.232594365118E+04    0.11437E+00   -0.13777E-01 29752   0.657E-01    0.408E+00
RMM:  13    -0.232587713125E+04    0.66520E-01   -0.92530E-02 31943   0.433E-01    0.189E+00
RMM:  14    -0.232586559336E+04    0.11538E-01   -0.41649E-02 32241   0.282E-01    0.117E+00
RMM:  15    -0.232586427708E+04    0.13163E-02   -0.26423E-02 35501   0.173E-01    0.960E-01
RMM:  16    -0.232586247380E+04    0.18033E-02   -0.10141E-02 36021   0.112E-01    0.719E-01
RMM:  17    -0.232586145670E+04    0.10171E-02   -0.47369E-03 33358   0.812E-02    0.522E-01
RMM:  18    -0.232586153870E+04   -0.82001E-04   -0.37558E-03 33848   0.814E-02    0.499E-01
RMM:  19    -0.232586174838E+04   -0.20968E-03   -0.28011E-03 30485   0.909E-02    0.509E-01
RMM:  20    -0.232586113322E+04    0.61516E-03   -0.12883E-03 29337   0.733E-02    0.381E-01
RMM:  21    -0.232586101582E+04    0.11740E-03   -0.14047E-03 34775   0.448E-02    0.337E-01
RMM:  22    -0.232586102451E+04   -0.86897E-05   -0.10507E-03 32954   0.465E-02    0.318E-01
RMM:  23    -0.232586080893E+04    0.21558E-03   -0.43074E-04 29901   0.389E-02    0.249E-01
RMM:  24    -0.232586077923E+04    0.29702E-04   -0.55209E-04 36207   0.269E-02    0.225E-01
RMM:  25    -0.232586060377E+04    0.17546E-03   -0.23382E-04 29914   0.233E-02    0.115E-01
RMM:  26    -0.232586056436E+04    0.39410E-04   -0.15315E-04 27176   0.157E-02    0.639E-02
RMM:  27    -0.232586057184E+04   -0.74777E-05   -0.83791E-05 23552   0.108E-02
  12 F= -.23258606E+04 E0= -.23230801E+04  d E =-.254025E-01
       N       E                     dE             d eps       ncg     rms          rms(c)
DAV:   1    -0.232585381888E+04    0.67455E-02   -0.29215E+01 27600   0.564E+00    0.107E+00
RMM:   2    -0.233886241807E+04   -0.13009E+02   -0.17445E+00 30241   0.228E+00    0.496E+01
RMM:   3    -0.232664822698E+04    0.12214E+02   -0.43135E-01 28159   0.138E+00    0.954E+00
RMM:   4    -0.232609820688E+04    0.55002E+00   -0.22606E-01 28007   0.107E+00    0.604E+00
RMM:   5    -0.232919001656E+04   -0.30918E+01   -0.33670E-01 34985   0.736E-01    0.247E+01
RMM:   6    -0.232652006789E+04    0.26699E+01   -0.26053E-01 32566   0.746E-01    0.104E+01
RMM:   7    -0.232725963422E+04   -0.73957E+00   -0.51259E-01 31050   0.106E+00    0.164E+01
RMM:   8    -0.232601335894E+04    0.12463E+01   -0.17179E-01 27609   0.970E-01    0.405E+00
RMM:   9    -0.232590346575E+04    0.10989E+00   -0.83070E-02 27947   0.621E-01    0.237E+00
RMM:  10    -0.232590282615E+04    0.63960E-03   -0.10064E-01 29779   0.549E-01    0.216E+00
RMM:  11    -0.232588546800E+04    0.17358E-01   -0.37251E-02 28682   0.421E-01    0.149E+00
RMM:  12    -0.232588440011E+04    0.10679E-02   -0.29248E-02 34708   0.183E-01    0.133E+00
RMM:  13    -0.232588118360E+04    0.32165E-02   -0.14044E-02 36809   0.135E-01    0.103E+00
RMM:  14    -0.232587691981E+04    0.42638E-02   -0.42524E-03 29813   0.115E-01    0.449E-01
RMM:  15    -0.232587609846E+04    0.82134E-03   -0.19120E-03 30730   0.730E-02    0.255E-01
RMM:  16    -0.232587609604E+04    0.24238E-05   -0.15967E-03 37820   0.407E-02    0.213E-01
RMM:  17    -0.232587603329E+04    0.62749E-04   -0.65800E-04 34081   0.326E-02    0.159E-01
RMM:  18    -0.232587599855E+04    0.34741E-04   -0.31335E-04 30072   0.315E-02    0.131E-01
RMM:  19    -0.232587611180E+04   -0.11325E-03   -0.45292E-04 29782   0.382E-02    0.180E-01
RMM:  20    -0.232587616723E+04   -0.55429E-04   -0.34405E-04 27998   0.386E-02    0.201E-01
RMM:  21    -0.232587605562E+04    0.11161E-03   -0.15249E-04 27235   0.296E-02    0.142E-01
RMM:  22    -0.232587603135E+04    0.24267E-04   -0.11665E-04 25587   0.145E-02    0.118E-01
RMM:  23    -0.232587599835E+04    0.33005E-04   -0.61966E-05 22342   0.124E-02    0.779E-02
RMM:  24    -0.232587598174E+04    0.16613E-04   -0.28338E-05 18546   0.106E-02    0.472E-02
RMM:  25    -0.232587598146E+04    0.27695E-06   -0.23189E-05 18249   0.721E-03
  13 F= -.23258760E+04 E0= -.23230968E+04  d E =-.154096E-01
       N       E                     dE             d eps       ncg     rms          rms(c)
DAV:   1    -0.232562703905E+04    0.24894E+00   -0.26245E+02 27600   0.170E+01    0.367E+00
RMM:   2    -0.245192403635E+04   -0.12630E+03   -0.43434E+01 32432   0.902E+00    0.137E+02
RMM:   3    -0.233409937629E+04    0.11782E+03   -0.56208E+00 28829   0.447E+00    0.357E+01
RMM:   4    -0.232753661544E+04    0.65628E+01   -0.30103E+00 28757   0.317E+00    0.170E+01
RMM:   5    -0.235345894715E+04   -0.25922E+02   -0.29276E+00 31425   0.244E+00    0.712E+01
RMM:   6    -0.233048739383E+04    0.22972E+02   -0.25509E+00 36756   0.197E+00    0.269E+01
RMM:   7    -0.233685111636E+04   -0.63637E+01   -0.28328E+00 28281   0.306E+00    0.460E+01
RMM:   8    -0.232885411076E+04    0.79970E+01   -0.13310E+00 27737   0.254E+00    0.220E+01
RMM:   9    -0.232700598132E+04    0.18481E+01   -0.99814E-01 27730   0.218E+00    0.142E+01
RMM:  10    -0.232639850978E+04    0.60747E+00   -0.81918E-01 29023   0.161E+00    0.968E+00
RMM:  11    -0.232633739491E+04    0.61115E-01   -0.73605E-01 31674   0.114E+00    0.889E+00
RMM:  12    -0.232615149187E+04    0.18590E+00   -0.32576E-01 29172   0.106E+00    0.695E+00
RMM:  13    -0.232593318035E+04    0.21831E+00   -0.11901E-01 27872   0.766E-01    0.272E+00
RMM:  14    -0.232591960807E+04    0.13572E-01   -0.11125E-01 33275   0.394E-01    0.199E+00
RMM:  15    -0.232591117546E+04    0.84326E-02   -0.53602E-02 36466   0.256E-01    0.149E+00
RMM:  16    -0.232590437930E+04    0.67962E-02   -0.17324E-02 31763   0.191E-01    0.969E-01
RMM:  17    -0.232590377659E+04    0.60270E-03   -0.14881E-02 38334   0.112E-01    0.814E-01
RMM:  18    -0.232590327193E+04    0.50466E-03   -0.75611E-03 32171   0.130E-01    0.712E-01
RMM:  19    -0.232590190908E+04    0.13629E-02   -0.43351E-03 29500   0.128E-01    0.492E-01
RMM:  20    -0.232590154929E+04    0.35979E-03   -0.32019E-03 30573   0.983E-02    0.404E-01
RMM:  21    -0.232590211736E+04   -0.56808E-03   -0.37516E-03 31611   0.943E-02    0.486E-01
RMM:  22    -0.232590177785E+04    0.33951E-03   -0.14704E-03 28449   0.809E-02    0.397E-01
RMM:  23    -0.232590153598E+04    0.24187E-03   -0.10434E-03 31006   0.522E-02    0.342E-01
RMM:  24    -0.232590149400E+04    0.41986E-04   -0.11850E-03 36807   0.377E-02    0.313E-01
RMM:  25    -0.232590117019E+04    0.32380E-03   -0.60223E-04 32441   0.346E-02    0.170E-01
RMM:  26    -0.232590109907E+04    0.71123E-04   -0.41756E-04 34899   0.218E-02    0.106E-01
RMM:  27    -0.232590110561E+04   -0.65390E-05   -0.20519E-04 29054   0.134E-02    0.958E-02
RMM:  28    -0.232590109357E+04    0.12037E-04   -0.94016E-05 25995   0.156E-02    0.628E-02
RMM:  29    -0.232590109066E+04    0.29104E-05   -0.51834E-05 21207   0.111E-02
  14 F= -.23259011E+04 E0= -.23231256E+04  d E =-.405188E-01
       N       E                     dE             d eps       ncg     rms          rms(c)
DAV:   1    -0.232588918240E+04    0.11911E-01   -0.18000E+01 27600   0.443E+00    0.838E-01
RMM:   2    -0.233400935240E+04   -0.81202E+01   -0.10014E+00 30069   0.176E+00    0.392E+01
RMM:   3    -0.232637885349E+04    0.76305E+01   -0.26311E-01 28099   0.109E+00    0.730E+00
RMM:   4    -0.232605601085E+04    0.32284E+00   -0.14024E-01 27888   0.848E-01    0.504E+00
RMM:   5    -0.232782907400E+04   -0.17731E+01   -0.18840E-01 37144   0.495E-01    0.189E+01
RMM:   6    -0.232621245190E+04    0.16166E+01   -0.16124E-01 29586   0.674E-01    0.696E+00
RMM:   7    -0.232671207380E+04   -0.49962E+00   -0.26778E-01 30078   0.832E-01    0.126E+01
RMM:   8    -0.232599003090E+04    0.72204E+00   -0.81355E-02 27618   0.660E-01    0.327E+00
RMM:   9    -0.232591623537E+04    0.73796E-01   -0.42096E-02 27765   0.473E-01    0.160E+00
RMM:  10    -0.232592258341E+04   -0.63480E-02   -0.54510E-02 29208   0.425E-01    0.189E+00
RMM:  11    -0.232591838953E+04    0.41939E-02   -0.20024E-02 27865   0.311E-01    0.174E+00
RMM:  12    -0.232590645837E+04    0.11931E-01   -0.12016E-02 29928   0.186E-01    0.894E-01
RMM:  13    -0.232590452768E+04    0.19307E-02   -0.83626E-03 33744   0.112E-01    0.655E-01
RMM:  14    -0.232590329650E+04    0.12312E-02   -0.38358E-03 34240   0.824E-02    0.403E-01
RMM:  15    -0.232590274485E+04    0.55166E-03   -0.12091E-03 30245   0.603E-02    0.250E-01
RMM:  16    -0.232590275770E+04   -0.12851E-04   -0.12167E-03 39011   0.340E-02    0.220E-01
RMM:  17    -0.232590266627E+04    0.91425E-04   -0.47920E-04 32341   0.307E-02    0.149E-01
RMM:  18    -0.232590261115E+04    0.55121E-04   -0.21519E-04 29375   0.271E-02    0.102E-01
RMM:  19    -0.232590264862E+04   -0.37468E-04   -0.24399E-04 30001   0.279E-02    0.120E-01
RMM:  20    -0.232590268183E+04   -0.33208E-04   -0.22722E-04 29224   0.270E-02    0.135E-01
RMM:  21    -0.232590263569E+04    0.46137E-04   -0.87803E-05 24647   0.204E-02    0.988E-02
RMM:  22    -0.232590262549E+04    0.10199E-04   -0.70258E-05 22645   0.101E-02    0.825E-02
RMM:  23    -0.232590261850E+04    0.69906E-05   -0.26574E-05 18286   0.877E-03
  15 F= -.23259026E+04 E0= -.23231281E+04  d E =-.420467E-01
