<?xml version="1.0" encoding="ISO-8859-1"?>
<modeling>
 <generator>
  <i name="program" type="string">vasp </i>
  <i name="version" type="string">5.4.4.18Apr17-6-g9f103f2a35  </i>
  <i name="subversion" type="string">(build May 29 2019 08:40:53) complex            parallel </i>
  <i name="platform" type="string">LinuxPGI </i>
  <i name="date" type="string">2021 11 22 </i>
  <i name="time" type="string">02:31:47 </i>
 </generator>
 <incar>
  <i type="int" name="ISTART">     2</i>
  <i type="string" name="PREC">accurate</i>
  <i type="string" name="ALGO"> Fast</i>
  <i type="int" name="ICHARG">     2</i>
  <i type="int" name="INIWAV">     1</i>
  <i type="int" name="NELM">   100</i>
  <i type="int" name="NELMIN">     4</i>
  <i type="int" name="IBRION">     2</i>
  <i name="EDIFF">      0.00001000</i>
  <i type="int" name="NSW">   500</i>
  <i type="int" name="ISIF">     2</i>
  <i type="int" name="ISYM">     2</i>
  <i name="ENCUT">    500.00000000</i>
  <i name="POTIM">      0.25000000</i>
  <i type="string" name="LREAL"> Auto</i>
  <i type="int" name="ISMEAR">     0</i>
  <i name="SIGMA">      0.15000000</i>
  <i type="logical" name="LWAVE"> F  </i>
  <i type="logical" name="LCHARG"> F  </i>
  <v type="int" name="KPOINT_BSE">    -1     0     0     0</v>
  <i type="int" name="NELM">   100</i>
 </incar>
 <structure name="primitive_cell" >
  <crystal>
   <varray name="basis" >
    <v>       9.72667800       0.00000000       0.00000000 </v>
    <v>       0.00000000       8.42355000       0.00000000 </v>
    <v>       0.00000000       0.00000000      45.00000000 </v>
   </varray>
   <i name="volume">   3686.99213101 </i>
   <varray name="rec_basis" >
    <v>       0.10281002       0.00000000       0.00000000 </v>
    <v>       0.00000000       0.11871479       0.00000000 </v>
    <v>       0.00000000       0.00000000       0.02222222 </v>
   </varray>
  </crystal>
  <varray name="positions" >
   <v>      -0.18776226       0.04144629      -0.38942541 </v>
   <v>      -0.06243010       0.29057551      -0.38931056 </v>
   <v>      -0.31254968       0.29128884      -0.38943827 </v>
   <v>      -0.43784405       0.04189139      -0.38938555 </v>
   <v>       0.06237180       0.04093168      -0.38928749 </v>
   <v>      -0.31281762      -0.20883194      -0.38943010 </v>
   <v>      -0.31284665       0.12459331      -0.34517573 </v>
   <v>      -0.18791007      -0.12481322      -0.34510736 </v>
   <v>      -0.06246653      -0.20943432      -0.38939060 </v>
   <v>      -0.06317831       0.12573188      -0.34506390 </v>
   <v>      -0.18750765       0.20679805      -0.43428826 </v>
   <v>      -0.31288604      -0.04361703      -0.43427136 </v>
   <v>      -0.06321073      -0.04381199      -0.43442165 </v>
   <v>      -0.43747069      -0.12489373      -0.34526802 </v>
   <v>       0.06185302      -0.12487489      -0.34510098 </v>
   <v>      -0.18787647       0.37461896      -0.34519079 </v>
   <v>       0.06177739       0.20680760      -0.43438143 </v>
   <v>      -0.43805094       0.20747474      -0.43470506 </v>
   <v>      -0.18743676      -0.29328831      -0.43449642 </v>
   <v>       0.43759878      -0.20857516      -0.38938767 </v>
   <v>       0.18640298       0.12467644      -0.34510456 </v>
   <v>       0.18728856       0.29072957      -0.38942752 </v>
   <v>       0.43740537       0.29135663      -0.38933805 </v>
   <v>      -0.18733037      -0.45867092      -0.38945350 </v>
   <v>       0.06197527       0.37460239      -0.34515448 </v>
   <v>      -0.06325649      -0.37536959      -0.34514694 </v>
   <v>      -0.43828306       0.37469253      -0.34521433 </v>
   <v>       0.18750664      -0.20941906      -0.38943070 </v>
   <v>      -0.31308802      -0.37526425      -0.34506564 </v>
   <v>      -0.06310263       0.45640700      -0.43446968 </v>
   <v>      -0.31217956       0.45698551      -0.43438552 </v>
   <v>       0.43678633       0.12536099      -0.34510821 </v>
   <v>       0.43735681      -0.04293853      -0.43438208 </v>
   <v>       0.18730849      -0.04339006      -0.43441029 </v>
   <v>       0.06194142      -0.29338182      -0.43440833 </v>
   <v>      -0.31177690      -0.04019877      -0.30041552 </v>
   <v>      -0.43805797      -0.29285472      -0.43450800 </v>
   <v>      -0.06203181      -0.04058456      -0.30051089 </v>
   <v>      -0.06256880       0.12228497      -0.47853249 </v>
   <v>      -0.31249429       0.12228595      -0.47857268 </v>
   <v>      -0.18703864       0.20986278      -0.30046536 </v>
   <v>      -0.18746584      -0.12733161      -0.47856962 </v>
   <v>       0.31274526       0.04126314      -0.38932843 </v>
   <v>       0.06237301      -0.45909360      -0.38950852 </v>
   <v>      -0.43752820      -0.45842900      -0.38946680 </v>
   <v>      -0.18695561      -0.28991453      -0.30064568 </v>
   <v>      -0.18812165       0.37223814      -0.47856082 </v>
   <v>      -0.43756597       0.20954216      -0.30054459 </v>
   <v>       0.06287996       0.20987764      -0.30048601 </v>
   <v>       0.06185544      -0.12697299      -0.47855734 </v>
   <v>      -0.43759768      -0.12772660      -0.47862650 </v>
   <v>       0.31145653      -0.12524690      -0.34516870 </v>
   <v>       0.18666427      -0.37567186      -0.34510512 </v>
   <v>       0.18655729       0.45673227      -0.43448129 </v>
   <v>       0.43728636       0.45722438      -0.43437139 </v>
   <v>       0.31250140       0.20754362      -0.43428147 </v>
   <v>       0.43657242      -0.37585154      -0.34520499 </v>
   <v>      -0.43747613      -0.28986648      -0.30040015 </v>
   <v>       0.06223786       0.37237561      -0.47853323 </v>
   <v>       0.43760304      -0.04000773      -0.30044632 </v>
   <v>       0.06292061      -0.29017832      -0.30042546 </v>
   <v>       0.18761349      -0.04001610      -0.30052783 </v>
   <v>      -0.43761827       0.37307503      -0.47862694 </v>
   <v>       0.18781217       0.12219388      -0.47842114 </v>
   <v>      -0.31245043       0.46042758      -0.30060130 </v>
   <v>       0.43646290       0.12219491      -0.47854732 </v>
   <v>      -0.06216515       0.46008091      -0.30039787 </v>
   <v>      -0.31313754      -0.37739674      -0.47855775 </v>
   <v>      -0.06257312      -0.37760733      -0.47861653 </v>
   <v>       0.31194617       0.37489562      -0.34520269 </v>
   <v>       0.31240786      -0.29318837      -0.43453654 </v>
   <v>      -0.18772636       0.04442362      -0.25613767 </v>
   <v>      -0.18708645       0.20572105       0.47837852 </v>
   <v>      -0.31281615      -0.04497382       0.47845935 </v>
   <v>      -0.06268361      -0.04442468       0.47839080 </v>
   <v>       0.31238667      -0.45864258      -0.38944475 </v>
   <v>       0.31274658       0.20975963      -0.30052276 </v>
   <v>       0.43804974       0.45964483      -0.30050188 </v>
   <v>       0.31237511      -0.12713737      -0.47858693 </v>
   <v>       0.18786650       0.45970973      -0.30050523 </v>
   <v>      -0.06257842      -0.20533451      -0.25613906 </v>
   <v>       0.06244718       0.04446251      -0.25626394 </v>
   <v>      -0.43809598       0.04432548      -0.25626705 </v>
   <v>      -0.31256185      -0.20528826      -0.25598762 </v>
   <v>       0.43716032      -0.37750196      -0.47859356 </v>
   <v>       0.18781244      -0.37765650      -0.47849826 </v>
   <v>      -0.06274534       0.29459744      -0.25624964 </v>
   <v>      -0.31287890       0.29423491      -0.25614354 </v>
   <v>      -0.43773302       0.20566409       0.47842170 </v>
   <v>       0.06207353       0.20514072       0.47838493 </v>
   <v>      -0.18799307      -0.29422109       0.47844440 </v>
   <v>       0.31297957      -0.28986295      -0.30049615 </v>
   <v>       0.31273094       0.37234956      -0.47860295 </v>
   <v>      -0.06256546       0.45492113       0.47841724 </v>
   <v>      -0.31233562       0.45553528       0.47839198 </v>
   <v>       0.18748184      -0.04446095       0.47854081 </v>
   <v>       0.43741216      -0.04461240       0.47831068 </v>
   <v>      -0.43737979      -0.29457351       0.47839075 </v>
   <v>       0.06267953      -0.29468211       0.47834304 </v>
   <v>      -0.18807955      -0.45538203      -0.25625332 </v>
   <v>       0.18701998      -0.20552869      -0.25617560 </v>
   <v>       0.43689204      -0.20550695      -0.25624182 </v>
   <v>       0.18677545       0.29434741      -0.25615897 </v>
   <v>       0.43724598       0.29399417      -0.25594009 </v>
   <v>       0.06212896      -0.45544906      -0.25620176 </v>
   <v>      -0.43780185      -0.45598967      -0.25616573 </v>
   <v>       0.31191360       0.04452989      -0.25610453 </v>
   <v>       0.18736329       0.45584786       0.47852442 </v>
   <v>       0.43700445       0.45560927       0.47837827 </v>
   <v>       0.31223901       0.20537247       0.47840777 </v>
   <v>      -0.31218405       0.12109618       0.43440768 </v>
   <v>      -0.06254827       0.12086848       0.43440999 </v>
   <v>      -0.18734473      -0.12900763       0.43421118 </v>
   <v>      -0.31148352       0.12954344      -0.21216520 </v>
   <v>      -0.18654086      -0.12125281      -0.21192343 </v>
   <v>      -0.06142914       0.12897304      -0.21204567 </v>
   <v>       0.31214026      -0.29490450       0.47833685 </v>
   <v>      -0.18789137       0.37071652       0.43421240 </v>
   <v>      -0.43768040      -0.12900554       0.43429881 </v>
   <v>       0.06234644      -0.12909378       0.43420969 </v>
   <v>      -0.43609805      -0.12170649      -0.21200054 </v>
   <v>       0.06317793      -0.12154364      -0.21210435 </v>
   <v>      -0.18619491       0.37838136      -0.21186660 </v>
   <v>      -0.43757314       0.37091002       0.43434451 </v>
   <v>       0.06256660       0.37066894       0.43428530 </v>
   <v>       0.18728855       0.12087996       0.43445813 </v>
   <v>       0.43725395       0.12079979       0.43439923 </v>
   <v>      -0.06243879      -0.37907381       0.43449231 </v>
   <v>      -0.31267288      -0.37915196       0.43423457 </v>
   <v>       0.31220023      -0.45589320      -0.25621978 </v>
   <v>      -0.31140814      -0.37099550      -0.21181799 </v>
   <v>      -0.06138332      -0.37092824      -0.21179861 </v>
   <v>       0.43835612       0.12937848      -0.21188657 </v>
   <v>       0.18888469       0.12925012      -0.21198933 </v>
   <v>      -0.43644598       0.37905192      -0.21193908 </v>
   <v>       0.06351849       0.37973831      -0.21198640 </v>
   <v>       0.31246424      -0.12916186       0.43430872 </v>
   <v>       0.43732455      -0.37928799       0.43438134 </v>
   <v>       0.18766169      -0.37941886       0.43423840 </v>
   <v>       0.43838981      -0.37060827      -0.21194261 </v>
   <v>       0.31373052      -0.12130753      -0.21193947 </v>
   <v>       0.18849178      -0.37044669      -0.21184826 </v>
   <v>       0.31274324       0.37043867       0.43433647 </v>
   <v>       0.31329112       0.37984674      -0.21209257 </v>
   <v>      -0.18730331       0.03677426       0.38926841 </v>
   <v>      -0.31219939      -0.03812408      -0.16688629 </v>
   <v>      -0.06239817      -0.03714556      -0.16688700 </v>
   <v>      -0.18764984       0.21181579      -0.16694680 </v>
   <v>      -0.31262436       0.28679843       0.38936935 </v>
   <v>      -0.06248524       0.28698882       0.38933142 </v>
   <v>      -0.43764909       0.03686409       0.38938992 </v>
   <v>       0.06226493       0.03676060       0.38934023 </v>
   <v>      -0.06252288      -0.21321979       0.38934882 </v>
   <v>      -0.31264089      -0.21283687       0.38930215 </v>
   <v>      -0.18765602      -0.28769472      -0.16698767 </v>
   <v>      -0.43747021       0.21210412      -0.16675755 </v>
   <v>       0.06331829       0.21274590      -0.16616004 </v>
   <v>       0.06248837      -0.28729704      -0.16716179 </v>
   <v>      -0.43688136      -0.28822148      -0.16711182 </v>
   <v>       0.18824918      -0.03701817      -0.16696542 </v>
   <v>       0.43739315      -0.03809097      -0.16677980 </v>
   <v>      -0.06159303       0.46166487      -0.16692925 </v>
   <v>      -0.31207282       0.46257715      -0.16682424 </v>
   <v>      -0.18749716      -0.46302591       0.38928397 </v>
   <v>       0.18729253       0.28685385       0.38941179 </v>
   <v>       0.43745817       0.28665664       0.38931157 </v>
   <v>       0.43739622      -0.21282350       0.38936384 </v>
   <v>       0.18743020      -0.21316412       0.38935411 </v>
   <v>       0.06227487      -0.46314219       0.38934650 </v>
   <v>      -0.43766540      -0.46294508       0.38920741 </v>
   <v>       0.31225106       0.03663892       0.38926980 </v>
   <v>       0.31269598       0.21165145      -0.16687518 </v>
   <v>       0.43759786       0.46263446      -0.16692130 </v>
   <v>       0.18716344       0.46256484      -0.16679907 </v>
   <v>       0.31308448      -0.28731452      -0.16682046 </v>
   <v>       0.31252069      -0.46325364       0.38926060 </v>
   <v>      -0.18633773       0.04677087      -0.12473642 </v>
   <v>      -0.18734034       0.20329334       0.34518185 </v>
   <v>      -0.06231881      -0.04691081       0.34515909 </v>
   <v>      -0.31214523      -0.04711633       0.34512613 </v>
   <v>      -0.06165421      -0.20393764      -0.12495555 </v>
   <v>      -0.31146027      -0.20458767      -0.12476218 </v>
   <v>      -0.43538700       0.04771499      -0.12481756 </v>
   <v>       0.06295426       0.04783176      -0.12471217 </v>
   <v>      -0.31230617       0.29623325      -0.12468945 </v>
   <v>      -0.06019254       0.29672815      -0.12449310 </v>
   <v>      -0.43729712       0.20310664       0.34524272 </v>
   <v>       0.06265144       0.20340487       0.34527700 </v>
   <v>      -0.18723447      -0.29718717       0.34514323 </v>
   <v>      -0.31204015       0.45302214       0.34517002 </v>
   <v>      -0.06227581       0.45303666       0.34515100 </v>
   <v>       0.43775119      -0.04707018       0.34525533 </v>
   <v>       0.18761800      -0.04705540       0.34520954 </v>
   <v>      -0.43722075      -0.29729665       0.34514370 </v>
   <v>       0.06271214      -0.29733639       0.34516066 </v>
   <v>      -0.18660902      -0.45238781      -0.12495760 </v>
   <v>       0.43861235      -0.20402783      -0.12480528 </v>
   <v>       0.18919387      -0.20443399      -0.12484402 </v>
   <v>       0.43980476       0.29659832      -0.12479563 </v>
   <v>       0.18760574       0.29679363      -0.12450072 </v>
   <v>       0.31364772       0.04650209      -0.12510579 </v>
   <v>      -0.43587643      -0.45314485      -0.12474610 </v>
   <v>       0.06384237      -0.45324588      -0.12484138 </v>
   <v>       0.18739760       0.45279055       0.34520580 </v>
   <v>       0.43774593       0.45269712       0.34513100 </v>
   <v>       0.31276735       0.20290088       0.34516295 </v>
   <v>       0.31261334      -0.29740808       0.34519530 </v>
   <v>       0.31389244      -0.45216749      -0.12481956 </v>
   <v>      -0.06280679       0.11755823       0.30060537 </v>
   <v>      -0.31274370       0.11801007       0.30048943 </v>
   <v>      -0.18776066      -0.13223649       0.30051373 </v>
   <v>      -0.18777444       0.36801051       0.30051655 </v>
   <v>       0.06230177      -0.13230813       0.30046193 </v>
   <v>      -0.43788101      -0.13168595       0.30043142 </v>
   <v>       0.06219146       0.36785310       0.30053074 </v>
   <v>      -0.43756914       0.36813710       0.30051638 </v>
   <v>       0.18718911       0.11777890       0.30055570 </v>
   <v>       0.43746382       0.11825486       0.30052625 </v>
   <v>      -0.31289789      -0.38179019       0.30058800 </v>
   <v>      -0.06277734      -0.38211173       0.30050590 </v>
   <v>       0.31215623      -0.13211044       0.30049256 </v>
   <v>       0.43724354      -0.38180466       0.30056566 </v>
   <v>       0.18743782      -0.38205506       0.30058646 </v>
   <v>       0.31222451       0.36783699       0.30046765 </v>
   <v>      -0.18735123       0.03334952       0.25628649 </v>
   <v>      -0.31234048       0.28376053       0.25629469 </v>
   <v>      -0.06230053       0.28360469       0.25627198 </v>
   <v>      -0.43722901       0.03342228       0.25627169 </v>
   <v>       0.06258464       0.03327644       0.25627315 </v>
   <v>      -0.31235290      -0.21684947       0.25620566 </v>
   <v>      -0.06226970      -0.21706978       0.25617649 </v>
   <v>      -0.18737750      -0.46672731       0.25624766 </v>
   <v>       0.18767176       0.28346624       0.25627087 </v>
   <v>       0.43762231       0.28389042       0.25620519 </v>
   <v>       0.43761628      -0.21624515       0.25626619 </v>
   <v>       0.18763547      -0.21647266       0.25623525 </v>
   <v>      -0.43704534      -0.46628879       0.25627360 </v>
   <v>       0.06242860      -0.46665393       0.25625891 </v>
   <v>       0.31279002       0.03357823       0.25622335 </v>
   <v>       0.31274632      -0.46636889       0.25625755 </v>
   <v>      -0.18814576       0.19858959       0.21196947 </v>
   <v>      -0.06315782      -0.05122604       0.21194762 </v>
   <v>      -0.31317886      -0.05140365       0.21192122 </v>
   <v>       0.06218470       0.19863536       0.21195886 </v>
   <v>      -0.43810123       0.19840315       0.21189888 </v>
   <v>      -0.18803392      -0.30121654       0.21197390 </v>
   <v>      -0.06314249       0.44847999       0.21217460 </v>
   <v>      -0.31333891       0.44856222       0.21195965 </v>
   <v>       0.18705041      -0.05136075       0.21189690 </v>
   <v>       0.43711106      -0.05134835       0.21189881 </v>
   <v>       0.06181174      -0.30124586       0.21196345 </v>
   <v>      -0.43781100      -0.30111706       0.21194260 </v>
   <v>       0.18720317       0.44876187       0.21196504 </v>
   <v>       0.43689832       0.44880658       0.21197037 </v>
   <v>       0.31190453       0.19844728       0.21193575 </v>
   <v>       0.31185026      -0.30085687       0.21199545 </v>
   <v>      -0.06244432       0.11543732       0.16705695 </v>
   <v>      -0.31274638       0.11555043       0.16700707 </v>
   <v>      -0.18741847      -0.13440795       0.16705797 </v>
   <v>      -0.18731530       0.36569018       0.16698451 </v>
   <v>      -0.43738605      -0.13468501       0.16697667 </v>
   <v>       0.06222838      -0.13453599       0.16697167 </v>
   <v>      -0.43767327       0.36525215       0.16702922 </v>
   <v>       0.06239833       0.36569108       0.16697833 </v>
   <v>       0.43744313       0.11553796       0.16695980 </v>
   <v>       0.18761383       0.11563607       0.16697541 </v>
   <v>      -0.31265240      -0.38459504       0.16701553 </v>
   <v>      -0.06248412      -0.38487993       0.16693116 </v>
   <v>       0.31248508      -0.13441265       0.16703235 </v>
   <v>       0.43756688      -0.38433292       0.16705198 </v>
   <v>       0.18746457      -0.38425401       0.16702980 </v>
   <v>       0.31256558       0.36557146       0.16697057 </v>
   <v>      -0.18789117       0.03139954       0.12486115 </v>
   <v>      -0.31342464       0.28099773       0.12481881 </v>
   <v>      -0.06304672       0.28162667       0.12480563 </v>
   <v>       0.06175205       0.03145034       0.12484233 </v>
   <v>      -0.43807380       0.03123875       0.12481522 </v>
   <v>      -0.31319683      -0.21848267       0.12488818 </v>
   <v>      -0.06285486      -0.21781848       0.12482829 </v>
   <v>      -0.18787061      -0.46891739       0.12482237 </v>
   <v>       0.18728993       0.28106305       0.12480293 </v>
   <v>       0.43697415       0.28111907       0.12476447 </v>
   <v>       0.18691873      -0.21859374       0.12484890 </v>
   <v>       0.43696057      -0.21880869       0.12483602 </v>
   <v>      -0.43822562      -0.46860648       0.12487140 </v>
   <v>       0.06181634      -0.46870899       0.12479729 </v>
   <v>       0.31193337       0.03117440       0.12482468 </v>
   <v>       0.31207734      -0.46881329       0.12490512 </v>
  </varray>
 </structure>
 <varray name="primitive_index" >
  <v type="int" >        1 </v>
  <v type="int" >      189 </v>
  <v type="int" >      257 </v>
  <v type="int" >       32 </v>
  <v type="int" >      230 </v>
  <v type="int" >       57 </v>
  <v type="int" >        8 </v>
  <v type="int" >      110 </v>
  <v type="int" >       34 </v>
  <v type="int" >      233 </v>
  <v type="int" >       46 </v>
  <v type="int" >      283 </v>
  <v type="int" >       70 </v>
  <v type="int" >      288 </v>
  <v type="int" >      126 </v>
  <v type="int" >       48 </v>
  <v type="int" >      124 </v>
  <v type="int" >      202 </v>
  <v type="int" >      221 </v>
  <v type="int" >      134 </v>
  <v type="int" >      158 </v>
  <v type="int" >      241 </v>
  <v type="int" >       12 </v>
  <v type="int" >       23 </v>
  <v type="int" >       51 </v>
  <v type="int" >       39 </v>
  <v type="int" >      159 </v>
  <v type="int" >      162 </v>
  <v type="int" >      115 </v>
  <v type="int" >      178 </v>
  <v type="int" >      111 </v>
  <v type="int" >      235 </v>
  <v type="int" >        7 </v>
  <v type="int" >      277 </v>
  <v type="int" >      205 </v>
  <v type="int" >       53 </v>
  <v type="int" >      209 </v>
  <v type="int" >      243 </v>
  <v type="int" >       49 </v>
  <v type="int" >      226 </v>
  <v type="int" >      240 </v>
  <v type="int" >      223 </v>
  <v type="int" >        9 </v>
  <v type="int" >      149 </v>
  <v type="int" >       52 </v>
  <v type="int" >      278 </v>
  <v type="int" >      106 </v>
  <v type="int" >      116 </v>
  <v type="int" >      181 </v>
  <v type="int" >      232 </v>
  <v type="int" >      211 </v>
  <v type="int" >      170 </v>
  <v type="int" >       16 </v>
  <v type="int" >      275 </v>
  <v type="int" >      206 </v>
  <v type="int" >      256 </v>
  <v type="int" >      280 </v>
  <v type="int" >      259 </v>
  <v type="int" >      171 </v>
  <v type="int" >      201 </v>
  <v type="int" >       66 </v>
  <v type="int" >      148 </v>
  <v type="int" >      104 </v>
  <v type="int" >       93 </v>
  <v type="int" >      118 </v>
  <v type="int" >       65 </v>
  <v type="int" >      147 </v>
  <v type="int" >      252 </v>
  <v type="int" >      276 </v>
  <v type="int" >       40 </v>
  <v type="int" >      199 </v>
  <v type="int" >      227 </v>
  <v type="int" >      266 </v>
  <v type="int" >      242 </v>
  <v type="int" >       97 </v>
  <v type="int" >       41 </v>
  <v type="int" >      188 </v>
  <v type="int" >      151 </v>
  <v type="int" >       61 </v>
  <v type="int" >      183 </v>
  <v type="int" >      133 </v>
  <v type="int" >      271 </v>
  <v type="int" >       27 </v>
  <v type="int" >      141 </v>
  <v type="int" >       91 </v>
  <v type="int" >      186 </v>
  <v type="int" >       54 </v>
  <v type="int" >      237 </v>
  <v type="int" >      285 </v>
  <v type="int" >       85 </v>
  <v type="int" >      161 </v>
  <v type="int" >      169 </v>
  <v type="int" >      197 </v>
  <v type="int" >      216 </v>
  <v type="int" >      150 </v>
  <v type="int" >      114 </v>
  <v type="int" >      165 </v>
  <v type="int" >      254 </v>
  <v type="int" >       43 </v>
  <v type="int" >      215 </v>
  <v type="int" >       76 </v>
  <v type="int" >      251 </v>
  <v type="int" >      224 </v>
  <v type="int" >      287 </v>
  <v type="int" >      105 </v>
  <v type="int" >      193 </v>
  <v type="int" >      204 </v>
  <v type="int" >      272 </v>
  <v type="int" >       96 </v>
  <v type="int" >      222 </v>
  <v type="int" >      244 </v>
  <v type="int" >       63 </v>
  <v type="int" >      128 </v>
  <v type="int" >      281 </v>
  <v type="int" >      139 </v>
  <v type="int" >        5 </v>
  <v type="int" >      168 </v>
  <v type="int" >       90 </v>
  <v type="int" >      155 </v>
  <v type="int" >      136 </v>
  <v type="int" >       62 </v>
  <v type="int" >      125 </v>
  <v type="int" >      217 </v>
  <v type="int" >      192 </v>
  <v type="int" >      166 </v>
  <v type="int" >       21 </v>
  <v type="int" >      175 </v>
  <v type="int" >       19 </v>
  <v type="int" >      117 </v>
  <v type="int" >       47 </v>
  <v type="int" >       55 </v>
  <v type="int" >      218 </v>
  <v type="int" >      247 </v>
  <v type="int" >      103 </v>
  <v type="int" >      137 </v>
  <v type="int" >       99 </v>
  <v type="int" >      180 </v>
  <v type="int" >       38 </v>
  <v type="int" >      184 </v>
  <v type="int" >      143 </v>
  <v type="int" >      187 </v>
  <v type="int" >       73 </v>
  <v type="int" >       35 </v>
  <v type="int" >       31 </v>
  <v type="int" >       11 </v>
  <v type="int" >      167 </v>
  <v type="int" >      258 </v>
  <v type="int" >      268 </v>
  <v type="int" >       13 </v>
  <v type="int" >      203 </v>
  <v type="int" >      214 </v>
  <v type="int" >      261 </v>
  <v type="int" >       68 </v>
  <v type="int" >       87 </v>
  <v type="int" >      153 </v>
  <v type="int" >       18 </v>
  <v type="int" >      282 </v>
  <v type="int" >       69 </v>
  <v type="int" >        2 </v>
  <v type="int" >       60 </v>
  <v type="int" >      263 </v>
  <v type="int" >      270 </v>
  <v type="int" >       84 </v>
  <v type="int" >       86 </v>
  <v type="int" >      194 </v>
  <v type="int" >      265 </v>
  <v type="int" >       74 </v>
  <v type="int" >       92 </v>
  <v type="int" >       80 </v>
  <v type="int" >      195 </v>
  <v type="int" >       71 </v>
  <v type="int" >      130 </v>
  <v type="int" >      156 </v>
  <v type="int" >      173 </v>
  <v type="int" >      122 </v>
  <v type="int" >      246 </v>
  <v type="int" >      236 </v>
  <v type="int" >      273 </v>
  <v type="int" >       95 </v>
  <v type="int" >      182 </v>
  <v type="int" >       20 </v>
  <v type="int" >       17 </v>
  <v type="int" >      101 </v>
  <v type="int" >       79 </v>
  <v type="int" >       94 </v>
  <v type="int" >       14 </v>
  <v type="int" >      120 </v>
  <v type="int" >        6 </v>
  <v type="int" >       33 </v>
  <v type="int" >      269 </v>
  <v type="int" >      245 </v>
  <v type="int" >      274 </v>
  <v type="int" >      112 </v>
  <v type="int" >      100 </v>
  <v type="int" >      144 </v>
  <v type="int" >       10 </v>
  <v type="int" >      163 </v>
  <v type="int" >      212 </v>
  <v type="int" >      113 </v>
  <v type="int" >      138 </v>
  <v type="int" >      279 </v>
  <v type="int" >       42 </v>
  <v type="int" >      208 </v>
  <v type="int" >        3 </v>
  <v type="int" >       45 </v>
  <v type="int" >      102 </v>
  <v type="int" >      146 </v>
  <v type="int" >       75 </v>
  <v type="int" >       44 </v>
  <v type="int" >      135 </v>
  <v type="int" >       22 </v>
  <v type="int" >       83 </v>
  <v type="int" >      129 </v>
  <v type="int" >       88 </v>
  <v type="int" >      179 </v>
  <v type="int" >      267 </v>
  <v type="int" >      164 </v>
  <v type="int" >      172 </v>
  <v type="int" >      190 </v>
  <v type="int" >      198 </v>
  <v type="int" >       64 </v>
  <v type="int" >        4 </v>
  <v type="int" >       30 </v>
  <v type="int" >      132 </v>
  <v type="int" >       59 </v>
  <v type="int" >       15 </v>
  <v type="int" >       72 </v>
  <v type="int" >      219 </v>
  <v type="int" >      121 </v>
  <v type="int" >      207 </v>
  <v type="int" >      152 </v>
  <v type="int" >       89 </v>
  <v type="int" >       37 </v>
  <v type="int" >      109 </v>
  <v type="int" >       50 </v>
  <v type="int" >      239 </v>
  <v type="int" >      131 </v>
  <v type="int" >      119 </v>
  <v type="int" >      284 </v>
  <v type="int" >      234 </v>
  <v type="int" >      191 </v>
  <v type="int" >       82 </v>
  <v type="int" >      262 </v>
  <v type="int" >      228 </v>
  <v type="int" >      140 </v>
  <v type="int" >       25 </v>
  <v type="int" >      286 </v>
  <v type="int" >      123 </v>
  <v type="int" >       29 </v>
  <v type="int" >      231 </v>
  <v type="int" >       36 </v>
  <v type="int" >      145 </v>
  <v type="int" >      260 </v>
  <v type="int" >       26 </v>
  <v type="int" >      238 </v>
  <v type="int" >      255 </v>
  <v type="int" >      196 </v>
  <v type="int" >      176 </v>
  <v type="int" >      200 </v>
  <v type="int" >      157 </v>
  <v type="int" >       77 </v>
  <v type="int" >      210 </v>
  <v type="int" >      107 </v>
  <v type="int" >      154 </v>
  <v type="int" >       24 </v>
  <v type="int" >      142 </v>
  <v type="int" >       98 </v>
  <v type="int" >      225 </v>
  <v type="int" >      127 </v>
  <v type="int" >       56 </v>
  <v type="int" >      264 </v>
  <v type="int" >      185 </v>
  <v type="int" >      220 </v>
  <v type="int" >      177 </v>
  <v type="int" >      108 </v>
  <v type="int" >       28 </v>
  <v type="int" >      213 </v>
  <v type="int" >      160 </v>
  <v type="int" >      248 </v>
  <v type="int" >      249 </v>
  <v type="int" >       78 </v>
  <v type="int" >       58 </v>
  <v type="int" >      174 </v>
  <v type="int" >       67 </v>
  <v type="int" >      229 </v>
  <v type="int" >       81 </v>
  <v type="int" >      253 </v>
  <v type="int" >      250 </v>
 </varray>
 <kpoints>
  <generation param="Gamma">
   <v type="int" name="divisions">       4        4        1 </v>
   <v name="usershift">      0.00000000       0.00000000       0.00000000 </v>
   <v name="genvec1">      0.25000000       0.00000000       0.00000000 </v>
   <v name="genvec2">      0.00000000       0.25000000       0.00000000 </v>
   <v name="genvec3">      0.00000000       0.00000000       1.00000000 </v>
   <v name="shift">      0.00000000       0.00000000       0.00000000 </v>
  </generation>
  <varray name="kpointlist" >
   <v>       0.00000000       0.00000000       0.00000000 </v>
   <v>       0.25000000       0.00000000       0.00000000 </v>
   <v>       0.50000000       0.00000000       0.00000000 </v>
   <v>       0.00000000       0.25000000       0.00000000 </v>
   <v>       0.25000000       0.25000000       0.00000000 </v>
   <v>       0.50000000       0.25000000       0.00000000 </v>
   <v>      -0.25000000       0.25000000       0.00000000 </v>
   <v>       0.00000000       0.50000000       0.00000000 </v>
   <v>       0.25000000       0.50000000       0.00000000 </v>
   <v>       0.50000000       0.50000000       0.00000000 </v>
  </varray>
  <varray name="weights" >
   <v>       0.06250000 </v>
   <v>       0.12500000 </v>
   <v>       0.06250000 </v>
   <v>       0.12500000 </v>
   <v>       0.12500000 </v>
   <v>       0.12500000 </v>
   <v>       0.12500000 </v>
   <v>       0.06250000 </v>
   <v>       0.12500000 </v>
   <v>       0.06250000 </v>
  </varray>
 </kpoints>
 <parameters>
  <separator name="general" >
   <i type="string" name="SYSTEM">unknown system</i>
   <i type="logical" name="LCOMPAT"> F  </i>
  </separator>
  <separator name="electronic" >
   <i type="string" name="PREC">accura</i>
   <i name="ENMAX">    500.00000000</i>
   <i name="ENAUG">    838.43500000</i>
   <i name="EDIFF">      0.00001000</i>
   <i type="int" name="IALGO">    68</i>
   <i type="int" name="IWAVPR">    11</i>
   <i type="int" name="NBANDS">  1380</i>
   <i name="NELECT">   2289.00000000</i>
   <i type="int" name="TURBO">     0</i>
   <i type="int" name="IRESTART">     0</i>
   <i type="int" name="NREBOOT">     0</i>
   <i type="int" name="NMIN">     0</i>
   <i name="EREF">      0.00000000</i>
   <separator name="electronic smearing" >
    <i type="int" name="ISMEAR">     0</i>
    <i name="SIGMA">      0.15000000</i>
    <i name="KSPACING">      0.50000000</i>
    <i type="logical" name="KGAMMA"> T  </i>
   </separator>
   <separator name="electronic projectors" >
    <i type="logical" name="LREAL"> T  </i>
    <v name="ROPT">     -0.00025000     -0.00025000</v>
    <i type="int" name="LMAXPAW">  -100</i>
    <i type="int" name="LMAXMIX">     2</i>
    <i type="logical" name="NLSPLINE"> F  </i>
   </separator>
   <separator name="electronic startup" >
    <i type="int" name="ISTART">     0</i>
    <i type="int" name="ICHARG">     2</i>
    <i type="int" name="INIWAV">     1</i>
   </separator>
   <separator name="electronic spin" >
    <i type="int" name="ISPIN">     1</i>
    <i type="logical" name="LNONCOLLINEAR"> F  </i>
    <v name="MAGMOM">      1.00000000      1.00000000      1.00000000      1.00000000      1.00000000      1.00000000      1.00000000      1.00000000      1.00000000      1.00000000      1.00000000      1.00000000      1.00000000      1.00000000      1.00000000      1.00000000      1.00000000      1.00000000      1.00000000      1.00000000
      1.00000000      1.00000000      1.00000000      1.00000000      1.00000000      1.00000000      1.00000000      1.00000000      1.00000000      1.00000000      1.00000000      1.00000000      1.00000000      1.00000000      1.00000000      1.00000000      1.00000000      1.00000000      1.00000000      1.00000000
      1.00000000      1.00000000      1.00000000      1.00000000      1.00000000      1.00000000      1.00000000      1.00000000      1.00000000      1.00000000      1.00000000      1.00000000      1.00000000      1.00000000      1.00000000      1.00000000      1.00000000      1.00000000      1.00000000      1.00000000
      1.00000000      1.00000000      1.00000000      1.00000000      1.00000000      1.00000000      1.00000000      1.00000000      1.00000000      1.00000000      1.00000000      1.00000000      1.00000000      1.00000000      1.00000000      1.00000000      1.00000000      1.00000000      1.00000000      1.00000000
      1.00000000      1.00000000      1.00000000      1.00000000      1.00000000      1.00000000      1.00000000      1.00000000      1.00000000      1.00000000      1.00000000      1.00000000      1.00000000      1.00000000      1.00000000      1.00000000      1.00000000      1.00000000      1.00000000      1.00000000
      1.00000000      1.00000000      1.00000000      1.00000000      1.00000000      1.00000000      1.00000000      1.00000000      1.00000000      1.00000000      1.00000000      1.00000000      1.00000000      1.00000000      1.00000000      1.00000000      1.00000000      1.00000000      1.00000000      1.00000000
      1.00000000      1.00000000      1.00000000      1.00000000      1.00000000      1.00000000      1.00000000      1.00000000      1.00000000      1.00000000      1.00000000      1.00000000      1.00000000      1.00000000      1.00000000      1.00000000      1.00000000      1.00000000      1.00000000      1.00000000
      1.00000000      1.00000000      1.00000000      1.00000000      1.00000000      1.00000000      1.00000000      1.00000000      1.00000000      1.00000000      1.00000000      1.00000000      1.00000000      1.00000000      1.00000000      1.00000000      1.00000000      1.00000000      1.00000000      1.00000000
      1.00000000      1.00000000      1.00000000      1.00000000      1.00000000      1.00000000      1.00000000      1.00000000      1.00000000      1.00000000      1.00000000      1.00000000      1.00000000      1.00000000      1.00000000      1.00000000      1.00000000      1.00000000      1.00000000      1.00000000
      1.00000000      1.00000000      1.00000000      1.00000000      1.00000000      1.00000000      1.00000000      1.00000000      1.00000000      1.00000000      1.00000000      1.00000000      1.00000000      1.00000000      1.00000000      1.00000000      1.00000000      1.00000000      1.00000000      1.00000000
      1.00000000      1.00000000      1.00000000      1.00000000      1.00000000      1.00000000      1.00000000      1.00000000      1.00000000      1.00000000      1.00000000      1.00000000      1.00000000      1.00000000      1.00000000      1.00000000      1.00000000      1.00000000      1.00000000      1.00000000
      1.00000000      1.00000000      1.00000000      1.00000000      1.00000000      1.00000000      1.00000000      1.00000000      1.00000000      1.00000000      1.00000000      1.00000000      1.00000000      1.00000000      1.00000000      1.00000000      1.00000000      1.00000000      1.00000000      1.00000000
      1.00000000      1.00000000      1.00000000      1.00000000      1.00000000      1.00000000      1.00000000      1.00000000      1.00000000      1.00000000      1.00000000      1.00000000      1.00000000      1.00000000      1.00000000      1.00000000      1.00000000      1.00000000      1.00000000      1.00000000
      1.00000000      1.00000000      1.00000000      1.00000000      1.00000000      1.00000000      1.00000000      1.00000000      1.00000000      1.00000000      1.00000000      1.00000000      1.00000000      1.00000000      1.00000000      1.00000000      1.00000000      1.00000000      1.00000000      1.00000000
      1.00000000      1.00000000      1.00000000      1.00000000      1.00000000      1.00000000      1.00000000      1.00000000</v>
    <i name="NUPDOWN">     -1.00000000</i>
    <i type="logical" name="LSORBIT"> F  </i>
    <v name="SAXIS">      0.00000000      0.00000000      1.00000000</v>
    <i type="logical" name="LSPIRAL"> F  </i>
    <v name="QSPIRAL">      0.00000000      0.00000000      0.00000000</v>
    <i type="logical" name="LZEROZ"> F  </i>
   </separator>
   <separator name="electronic exchange-correlation" >
    <i type="logical" name="LASPH"> F  </i>
    <i type="logical" name="LMETAGGA"> F  </i>
   </separator>
   <separator name="electronic convergence" >
    <i type="int" name="NELM">   100</i>
    <i type="int" name="NELMDL">     0</i>
    <i type="int" name="NELMIN">     4</i>
    <i name="ENINI">    500.00000000</i>
    <separator name="electronic convergence detail" >
     <i type="logical" name="LDIAG"> T  </i>
     <i type="logical" name="LSUBROT"> F  </i>
     <i name="WEIMIN">      0.00100000</i>
     <i name="EBREAK">      0.00000000</i>
     <i name="DEPER">      0.30000000</i>
     <i type="int" name="NRMM">     4</i>
     <i name="TIME">      0.40000000</i>
    </separator>
   </separator>
   <separator name="electronic mixer" >
    <i name="AMIX">      0.40000000</i>
    <i name="BMIX">      1.00000000</i>
    <i name="AMIN">      0.10000000</i>
    <i name="AMIX_MAG">      1.60000000</i>
    <i name="BMIX_MAG">      1.00000000</i>
    <separator name="electronic mixer details" >
     <i type="int" name="IMIX">     4</i>
     <i type="logical" name="MIXFIRST"> F  </i>
     <i type="int" name="MAXMIX">   -45</i>
     <i name="WC">    100.00000000</i>
     <i type="int" name="INIMIX">     1</i>
     <i type="int" name="MIXPRE">     1</i>
     <i type="int" name="MREMOVE">     5</i>
    </separator>
   </separator>
   <separator name="electronic dipolcorrection" >
    <i type="logical" name="LDIPOL"> F  </i>
    <i type="logical" name="LMONO"> F  </i>
    <i type="int" name="IDIPOL">     0</i>
    <i name="EPSILON">      1.00000000</i>
    <v name="DIPOL">   -100.00000000   -100.00000000   -100.00000000</v>
    <i name="EFIELD">      0.00000000</i>
   </separator>
  </separator>
  <separator name="grids" >
   <i type="int" name="NGX">    72</i>
   <i type="int" name="NGY">    64</i>
   <i type="int" name="NGZ">   336</i>
   <i type="int" name="NGXF">   144</i>
   <i type="int" name="NGYF">   128</i>
   <i type="int" name="NGZF">   672</i>
   <i type="logical" name="ADDGRID"> F  </i>
  </separator>
  <separator name="ionic" >
   <i type="int" name="NSW">   500</i>
   <i type="int" name="IBRION">     2</i>
   <i type="int" name="MDALGO">     0</i>
   <i type="int" name="ISIF">     2</i>
   <i name="PSTRESS">      0.00000000</i>
   <i name="EDIFFG">      0.00010000</i>
   <i type="int" name="NFREE">     1</i>
   <i name="POTIM">      0.25000000</i>
   <i name="SMASS">     -3.00000000</i>
   <i name="SCALEE">      1.00000000</i>
  </separator>
  <separator name="ionic md" >
   <i name="TEBEG">      0.00010000</i>
   <i name="TEEND">      0.00010000</i>
   <i type="int" name="NBLOCK">     1</i>
   <i type="int" name="KBLOCK">   500</i>
   <i type="int" name="NPACO">   256</i>
   <i name="APACO">     16.00000000</i>
  </separator>
  <separator name="symmetry" >
   <i type="int" name="ISYM">     2</i>
   <i name="SYMPREC">      0.00001000</i>
  </separator>
  <separator name="dos" >
   <i type="int" name="LORBIT">     0</i>
   <v name="RWIGS">     -1.00000000     -1.00000000</v>
   <i type="int" name="NEDOS">   301</i>
   <i name="EMIN">     10.00000000</i>
   <i name="EMAX">    -10.00000000</i>
   <i name="EFERMI">      0.00000000</i>
  </separator>
  <separator name="writing" >
   <i type="int" name="NWRITE">     2</i>
   <i type="logical" name="LWAVE"> F  </i>
   <i type="logical" name="LDOWNSAMPLE"> F  </i>
   <i type="logical" name="LCHARG"> F  </i>
   <i type="logical" name="LPARD"> F  </i>
   <i type="logical" name="LVTOT"> F  </i>
   <i type="logical" name="LVHAR"> F  </i>
   <i type="logical" name="LELF"> F  </i>
   <i type="logical" name="LOPTICS"> F  </i>
   <v name="STM">      0.00000000      0.00000000      0.00000000      0.00000000      0.00000000      0.00000000      0.00000000</v>
  </separator>
  <separator name="performance" >
   <i type="int" name="NPAR">    10</i>
   <i type="int" name="NSIM">     4</i>
   <i type="int" name="NBLK">    -1</i>
   <i type="logical" name="LPLANE"> T  </i>
   <i type="logical" name="LSCALAPACK"> F  </i>
   <i type="logical" name="LSCAAWARE"> F  </i>
   <i type="logical" name="LSCALU"> F  </i>
   <i type="logical" name="LASYNC"> F  </i>
   <i type="logical" name="LORBITALREAL"> F  </i>
  </separator>
  <separator name="miscellaneous" >
   <i type="int" name="IDIOT">     3</i>
   <i type="int" name="ISPECIAL">     0</i>
   <i type="logical" name="LMUSIC"> F  </i>
   <v name="POMASS">     55.84700000     54.93800000</v>
   <v name="DARWINR">      0.00000000      0.00000000</v>
   <v name="DARWINV">      1.00000000      1.00000000</v>
   <i type="logical" name="LCORR"> T  </i>
  </separator>
  <i type="logical" name="GGA_COMPAT"> T  </i>
  <i type="logical" name="LBERRY"> F  </i>
  <i type="int" name="ICORELEVEL">     0</i>
  <i type="logical" name="LDAU"> F  </i>
  <i type="int" name="I_CONSTRAINED_M">     0</i>
  <separator name="electronic exchange-correlation" >
   <i type="string" name="GGA">--</i>
   <i type="int" name="VOSKOWN">     0</i>
   <i type="logical" name="LHFCALC"> F  </i>
   <i type="string" name="PRECFOCK"></i>
   <i type="logical" name="LSYMGRAD"> F  </i>
   <i type="logical" name="LHFONE"> F  </i>
   <i type="logical" name="LRHFCALC"> F  </i>
   <i type="logical" name="LTHOMAS"> F  </i>
   <i type="logical" name="LMODELHF"> F  </i>
   <i name="ENCUT4O">     -1.00000000</i>
   <i type="int" name="EXXOEP">     0</i>
   <i type="int" name="FOURORBIT">     0</i>
   <i name="AEXX">      0.00000000</i>
   <i name="HFALPHA">      0.00000000</i>
   <i name="MCALPHA">      0.00000000</i>
   <i name="ALDAX">      1.00000000</i>
   <i name="AGGAX">      1.00000000</i>
   <i name="ALDAC">      1.00000000</i>
   <i name="AGGAC">      1.00000000</i>
   <i type="int" name="NKREDX">     1</i>
   <i type="int" name="NKREDY">     1</i>
   <i type="int" name="NKREDZ">     1</i>
   <i type="logical" name="SHIFTRED"> F  </i>
   <i type="logical" name="ODDONLY"> F  </i>
   <i type="logical" name="EVENONLY"> F  </i>
   <i type="int" name="LMAXFOCK">     0</i>
   <i type="int" name="NMAXFOCKAE">     0</i>
   <i type="logical" name="LFOCKAEDFT"> F  </i>
   <i name="HFSCREEN">      0.00000000</i>
   <i name="HFSCREENC">      0.00000000</i>
   <i type="int" name="NBANDSGWLOW">     0</i>
  </separator>
  <separator name="vdW DFT" >
   <i type="logical" name="LUSE_VDW"> F  </i>
   <i name="Zab_VDW">     -0.84910000</i>
   <i name="PARAM1">      0.12340000</i>
   <i name="PARAM2">      1.00000000</i>
   <i name="PARAM3">      0.00000000</i>
  </separator>
  <separator name="model GW" >
   <i type="int" name="MODEL_GW">     0</i>
   <i name="MODEL_EPS0">      7.68123361</i>
   <i name="MODEL_ALPHA">      1.00000000</i>
  </separator>
  <separator name="linear response parameters" >
   <i type="logical" name="LEPSILON"> F  </i>
   <i type="logical" name="LRPA"> F  </i>
   <i type="logical" name="LNABLA"> F  </i>
   <i type="logical" name="LVEL"> F  </i>
   <i type="int" name="KINTER">     0</i>
   <i name="CSHIFT">      0.10000000</i>
   <i name="OMEGAMAX">     -1.00000000</i>
   <i name="DEG_THRESHOLD">      0.00200000</i>
   <i name="RTIME">     -0.10000000</i>
   <i name="WPLASMAI">      0.00000000</i>
   <v name="DFIELD">      0.00000000      0.00000000      0.00000000</v>
   <v name="WPLASMA">      0.00000000      0.00000000      0.00000000      0.00000000      0.00000000      0.00000000      0.00000000      0.00000000      0.00000000</v>
  </separator>
  <separator name="orbital magnetization" >
   <i type="logical" name="NUCIND"> F  </i>
   <v name="MAGPOS">      0.00000000      0.00000000      0.00000000</v>
   <i type="logical" name="LNICSALL"> T  </i>
   <i type="logical" name="ORBITALMAG"> F  </i>
   <i type="logical" name="LMAGBLOCH"> F  </i>
   <i type="logical" name="LCHIMAG"> F  </i>
   <i type="logical" name="LGAUGE"> T  </i>
   <i type="int" name="MAGATOM">     0</i>
   <v name="MAGDIPOL">      0.00000000      0.00000000      0.00000000</v>
   <v name="AVECCONST">      0.00000000      0.00000000      0.00000000</v>
  </separator>
  <separator name="response functions" >
   <i type="logical" name="LADDER"> F  </i>
   <i type="logical" name="LRPAFORCE"> F  </i>
   <i type="logical" name="LFXC"> F  </i>
   <i type="logical" name="LHARTREE"> T  </i>
   <i type="int" name="IBSE">     0</i>
   <v type="int" name="KPOINT">    -1     0     0     0</v>
   <i type="logical" name="LTCTE"> F  </i>
   <i type="logical" name="LTETE"> F  </i>
   <i type="logical" name="LTRIPLET"> F  </i>
   <i type="logical" name="LFXCEPS"> F  </i>
   <i type="logical" name="LFXHEG"> F  </i>
   <i type="int" name="NATURALO">     2</i>
   <i type="logical" name="L2ORDER"> F  </i>
   <i type="logical" name="LMP2LT"> F  </i>
   <i type="logical" name="LUSEW"> F  </i>
   <i name="ENCUTGW">     -2.00000000</i>
   <i name="ENCUTGWSOFT">     -2.00000000</i>
   <i name="ENCUTLF">     -1.00000000</i>
   <i type="int" name="LMAXMP2">    -1</i>
   <i name="SCISSOR">      0.00000000</i>
   <i type="int" name="NOMEGA">     0</i>
   <i type="int" name="NOMEGAR">     0</i>
   <i type="int" name="NBANDSGW">    -1</i>
   <i type="int" name="NBANDSO">    -1</i>
   <i type="int" name="NBANDSV">    -1</i>
   <i type="int" name="NELM">   100</i>
   <i type="int" name="NELMHF">     1</i>
   <i type="int" name="DIM">     3</i>
   <i type="int" name="ANTIRES">     0</i>
   <i name="OMEGAMAX">    -30.00000000</i>
   <i name="OMEGAMIN">    -30.00000000</i>
   <i name="OMEGATL">   -200.00000000</i>
   <i type="int" name="OMEGAGRID">   140</i>
   <i name="CSHIFT">     -0.10000000</i>
   <i type="logical" name="SELFENERGY"> F  </i>
   <i type="logical" name="LSPECTRAL"> F  </i>
   <i type="logical" name="LSPECTRALGW"> F  </i>
   <i type="logical" name="LSINGLES"> F  </i>
   <i type="logical" name="LFERMIGW"> F  </i>
   <i type="logical" name="ODDONLYGW"> F  </i>
   <i type="logical" name="EVENONLYGW"> F  </i>
   <i type="int" name="NKREDLFX">     1</i>
   <i type="int" name="NKREDLFY">     1</i>
   <i type="int" name="NKREDLFZ">     1</i>
   <i type="int" name="MAXMEM">  2800</i>
   <i type="int" name="TELESCOPE">     0</i>
   <i type="int" name="TAUPAR">     1</i>
   <i type="int" name="OMEGAPAR">    -1</i>
   <i name="LAMBDA">      1.00000000</i>
  </separator>
  <separator name="External order field" >
   <i name="OFIELD_KAPPA">      0.00000000</i>
   <v name="OFIELD_K">      0.00000000      0.00000000      0.00000000</v>
   <i name="OFIELD_Q6_NEAR">      0.00000000</i>
   <i name="OFIELD_Q6_FAR">      0.00000000</i>
   <i name="OFIELD_A">      0.00000000</i>
  </separator>
 </parameters>
 <atominfo>
  <atoms>     288 </atoms>
  <types>       2 </types>
  <array name="atoms" >
   <dimension dim="1">ion</dimension>
   <field type="string">element</field>
   <field type="int">atomtype</field>
   <set>
    <rc><c>Fe</c><c>   1</c></rc>
    <rc><c>Fe</c><c>   1</c></rc>
    <rc><c>Fe</c><c>   1</c></rc>
    <rc><c>Fe</c><c>   1</c></rc>
    <rc><c>Fe</c><c>   1</c></rc>
    <rc><c>Fe</c><c>   1</c></rc>
    <rc><c>Fe</c><c>   1</c></rc>
    <rc><c>Fe</c><c>   1</c></rc>
    <rc><c>Fe</c><c>   1</c></rc>
    <rc><c>Fe</c><c>   1</c></rc>
    <rc><c>Fe</c><c>   1</c></rc>
    <rc><c>Fe</c><c>   1</c></rc>
    <rc><c>Fe</c><c>   1</c></rc>
    <rc><c>Fe</c><c>   1</c></rc>
    <rc><c>Fe</c><c>   1</c></rc>
    <rc><c>Fe</c><c>   1</c></rc>
    <rc><c>Fe</c><c>   1</c></rc>
    <rc><c>Fe</c><c>   1</c></rc>
    <rc><c>Fe</c><c>   1</c></rc>
    <rc><c>Fe</c><c>   1</c></rc>
    <rc><c>Fe</c><c>   1</c></rc>
    <rc><c>Fe</c><c>   1</c></rc>
    <rc><c>Fe</c><c>   1</c></rc>
    <rc><c>Fe</c><c>   1</c></rc>
    <rc><c>Fe</c><c>   1</c></rc>
    <rc><c>Fe</c><c>   1</c></rc>
    <rc><c>Fe</c><c>   1</c></rc>
    <rc><c>Fe</c><c>   1</c></rc>
    <rc><c>Fe</c><c>   1</c></rc>
    <rc><c>Fe</c><c>   1</c></rc>
    <rc><c>Fe</c><c>   1</c></rc>
    <rc><c>Fe</c><c>   1</c></rc>
    <rc><c>Fe</c><c>   1</c></rc>
    <rc><c>Fe</c><c>   1</c></rc>
    <rc><c>Fe</c><c>   1</c></rc>
    <rc><c>Fe</c><c>   1</c></rc>
    <rc><c>Fe</c><c>   1</c></rc>
    <rc><c>Fe</c><c>   1</c></rc>
    <rc><c>Fe</c><c>   1</c></rc>
    <rc><c>Fe</c><c>   1</c></rc>
    <rc><c>Fe</c><c>   1</c></rc>
    <rc><c>Fe</c><c>   1</c></rc>
    <rc><c>Fe</c><c>   1</c></rc>
    <rc><c>Fe</c><c>   1</c></rc>
    <rc><c>Fe</c><c>   1</c></rc>
    <rc><c>Fe</c><c>   1</c></rc>
    <rc><c>Fe</c><c>   1</c></rc>
    <rc><c>Fe</c><c>   1</c></rc>
    <rc><c>Fe</c><c>   1</c></rc>
    <rc><c>Fe</c><c>   1</c></rc>
    <rc><c>Fe</c><c>   1</c></rc>
    <rc><c>Fe</c><c>   1</c></rc>
    <rc><c>Fe</c><c>   1</c></rc>
    <rc><c>Fe</c><c>   1</c></rc>
    <rc><c>Fe</c><c>   1</c></rc>
    <rc><c>Fe</c><c>   1</c></rc>
    <rc><c>Fe</c><c>   1</c></rc>
    <rc><c>Fe</c><c>   1</c></rc>
    <rc><c>Fe</c><c>   1</c></rc>
    <rc><c>Fe</c><c>   1</c></rc>
    <rc><c>Fe</c><c>   1</c></rc>
    <rc><c>Fe</c><c>   1</c></rc>
    <rc><c>Fe</c><c>   1</c></rc>
    <rc><c>Fe</c><c>   1</c></rc>
    <rc><c>Fe</c><c>   1</c></rc>
    <rc><c>Fe</c><c>   1</c></rc>
    <rc><c>Fe</c><c>   1</c></rc>
    <rc><c>Fe</c><c>   1</c></rc>
    <rc><c>Fe</c><c>   1</c></rc>
    <rc><c>Fe</c><c>   1</c></rc>
    <rc><c>Fe</c><c>   1</c></rc>
    <rc><c>Fe</c><c>   1</c></rc>
    <rc><c>Fe</c><c>   1</c></rc>
    <rc><c>Fe</c><c>   1</c></rc>
    <rc><c>Fe</c><c>   1</c></rc>
    <rc><c>Fe</c><c>   1</c></rc>
    <rc><c>Fe</c><c>   1</c></rc>
    <rc><c>Fe</c><c>   1</c></rc>
    <rc><c>Fe</c><c>   1</c></rc>
    <rc><c>Fe</c><c>   1</c></rc>
    <rc><c>Fe</c><c>   1</c></rc>
    <rc><c>Fe</c><c>   1</c></rc>
    <rc><c>Fe</c><c>   1</c></rc>
    <rc><c>Fe</c><c>   1</c></rc>
    <rc><c>Fe</c><c>   1</c></rc>
    <rc><c>Fe</c><c>   1</c></rc>
    <rc><c>Fe</c><c>   1</c></rc>
    <rc><c>Fe</c><c>   1</c></rc>
    <rc><c>Fe</c><c>   1</c></rc>
    <rc><c>Fe</c><c>   1</c></rc>
    <rc><c>Fe</c><c>   1</c></rc>
    <rc><c>Fe</c><c>   1</c></rc>
    <rc><c>Fe</c><c>   1</c></rc>
    <rc><c>Fe</c><c>   1</c></rc>
    <rc><c>Fe</c><c>   1</c></rc>
    <rc><c>Fe</c><c>   1</c></rc>
    <rc><c>Fe</c><c>   1</c></rc>
    <rc><c>Fe</c><c>   1</c></rc>
    <rc><c>Fe</c><c>   1</c></rc>
    <rc><c>Fe</c><c>   1</c></rc>
    <rc><c>Fe</c><c>   1</c></rc>
    <rc><c>Fe</c><c>   1</c></rc>
    <rc><c>Fe</c><c>   1</c></rc>
    <rc><c>Fe</c><c>   1</c></rc>
    <rc><c>Fe</c><c>   1</c></rc>
    <rc><c>Fe</c><c>   1</c></rc>
    <rc><c>Fe</c><c>   1</c></rc>
    <rc><c>Fe</c><c>   1</c></rc>
    <rc><c>Fe</c><c>   1</c></rc>
    <rc><c>Fe</c><c>   1</c></rc>
    <rc><c>Fe</c><c>   1</c></rc>
    <rc><c>Fe</c><c>   1</c></rc>
    <rc><c>Fe</c><c>   1</c></rc>
    <rc><c>Fe</c><c>   1</c></rc>
    <rc><c>Fe</c><c>   1</c></rc>
    <rc><c>Fe</c><c>   1</c></rc>
    <rc><c>Fe</c><c>   1</c></rc>
    <rc><c>Fe</c><c>   1</c></rc>
    <rc><c>Fe</c><c>   1</c></rc>
    <rc><c>Fe</c><c>   1</c></rc>
    <rc><c>Fe</c><c>   1</c></rc>
    <rc><c>Fe</c><c>   1</c></rc>
    <rc><c>Fe</c><c>   1</c></rc>
    <rc><c>Fe</c><c>   1</c></rc>
    <rc><c>Fe</c><c>   1</c></rc>
    <rc><c>Fe</c><c>   1</c></rc>
    <rc><c>Fe</c><c>   1</c></rc>
    <rc><c>Fe</c><c>   1</c></rc>
    <rc><c>Fe</c><c>   1</c></rc>
    <rc><c>Fe</c><c>   1</c></rc>
    <rc><c>Fe</c><c>   1</c></rc>
    <rc><c>Fe</c><c>   1</c></rc>
    <rc><c>Fe</c><c>   1</c></rc>
    <rc><c>Fe</c><c>   1</c></rc>
    <rc><c>Fe</c><c>   1</c></rc>
    <rc><c>Fe</c><c>   1</c></rc>
    <rc><c>Fe</c><c>   1</c></rc>
    <rc><c>Fe</c><c>   1</c></rc>
    <rc><c>Fe</c><c>   1</c></rc>
    <rc><c>Fe</c><c>   1</c></rc>
    <rc><c>Fe</c><c>   1</c></rc>
    <rc><c>Fe</c><c>   1</c></rc>
    <rc><c>Fe</c><c>   1</c></rc>
    <rc><c>Fe</c><c>   1</c></rc>
    <rc><c>Fe</c><c>   1</c></rc>
    <rc><c>Fe</c><c>   1</c></rc>
    <rc><c>Fe</c><c>   1</c></rc>
    <rc><c>Fe</c><c>   1</c></rc>
    <rc><c>Fe</c><c>   1</c></rc>
    <rc><c>Fe</c><c>   1</c></rc>
    <rc><c>Fe</c><c>   1</c></rc>
    <rc><c>Fe</c><c>   1</c></rc>
    <rc><c>Fe</c><c>   1</c></rc>
    <rc><c>Fe</c><c>   1</c></rc>
    <rc><c>Fe</c><c>   1</c></rc>
    <rc><c>Fe</c><c>   1</c></rc>
    <rc><c>Fe</c><c>   1</c></rc>
    <rc><c>Fe</c><c>   1</c></rc>
    <rc><c>Fe</c><c>   1</c></rc>
    <rc><c>Fe</c><c>   1</c></rc>
    <rc><c>Fe</c><c>   1</c></rc>
    <rc><c>Fe</c><c>   1</c></rc>
    <rc><c>Fe</c><c>   1</c></rc>
    <rc><c>Fe</c><c>   1</c></rc>
    <rc><c>Fe</c><c>   1</c></rc>
    <rc><c>Fe</c><c>   1</c></rc>
    <rc><c>Fe</c><c>   1</c></rc>
    <rc><c>Fe</c><c>   1</c></rc>
    <rc><c>Fe</c><c>   1</c></rc>
    <rc><c>Fe</c><c>   1</c></rc>
    <rc><c>Fe</c><c>   1</c></rc>
    <rc><c>Fe</c><c>   1</c></rc>
    <rc><c>Fe</c><c>   1</c></rc>
    <rc><c>Fe</c><c>   1</c></rc>
    <rc><c>Fe</c><c>   1</c></rc>
    <rc><c>Fe</c><c>   1</c></rc>
    <rc><c>Fe</c><c>   1</c></rc>
    <rc><c>Fe</c><c>   1</c></rc>
    <rc><c>Fe</c><c>   1</c></rc>
    <rc><c>Fe</c><c>   1</c></rc>
    <rc><c>Fe</c><c>   1</c></rc>
    <rc><c>Fe</c><c>   1</c></rc>
    <rc><c>Fe</c><c>   1</c></rc>
    <rc><c>Fe</c><c>   1</c></rc>
    <rc><c>Fe</c><c>   1</c></rc>
    <rc><c>Fe</c><c>   1</c></rc>
    <rc><c>Fe</c><c>   1</c></rc>
    <rc><c>Fe</c><c>   1</c></rc>
    <rc><c>Fe</c><c>   1</c></rc>
    <rc><c>Fe</c><c>   1</c></rc>
    <rc><c>Fe</c><c>   1</c></rc>
    <rc><c>Fe</c><c>   1</c></rc>
    <rc><c>Fe</c><c>   1</c></rc>
    <rc><c>Fe</c><c>   1</c></rc>
    <rc><c>Fe</c><c>   1</c></rc>
    <rc><c>Fe</c><c>   1</c></rc>
    <rc><c>Fe</c><c>   1</c></rc>
    <rc><c>Fe</c><c>   1</c></rc>
    <rc><c>Fe</c><c>   1</c></rc>
    <rc><c>Fe</c><c>   1</c></rc>
    <rc><c>Fe</c><c>   1</c></rc>
    <rc><c>Fe</c><c>   1</c></rc>
    <rc><c>Fe</c><c>   1</c></rc>
    <rc><c>Fe</c><c>   1</c></rc>
    <rc><c>Fe</c><c>   1</c></rc>
    <rc><c>Fe</c><c>   1</c></rc>
    <rc><c>Fe</c><c>   1</c></rc>
    <rc><c>Fe</c><c>   1</c></rc>
    <rc><c>Fe</c><c>   1</c></rc>
    <rc><c>Fe</c><c>   1</c></rc>
    <rc><c>Fe</c><c>   1</c></rc>
    <rc><c>Fe</c><c>   1</c></rc>
    <rc><c>Fe</c><c>   1</c></rc>
    <rc><c>Fe</c><c>   1</c></rc>
    <rc><c>Fe</c><c>   1</c></rc>
    <rc><c>Fe</c><c>   1</c></rc>
    <rc><c>Fe</c><c>   1</c></rc>
    <rc><c>Fe</c><c>   1</c></rc>
    <rc><c>Fe</c><c>   1</c></rc>
    <rc><c>Fe</c><c>   1</c></rc>
    <rc><c>Fe</c><c>   1</c></rc>
    <rc><c>Fe</c><c>   1</c></rc>
    <rc><c>Fe</c><c>   1</c></rc>
    <rc><c>Fe</c><c>   1</c></rc>
    <rc><c>Fe</c><c>   1</c></rc>
    <rc><c>Fe</c><c>   1</c></rc>
    <rc><c>Fe</c><c>   1</c></rc>
    <rc><c>Fe</c><c>   1</c></rc>
    <rc><c>Fe</c><c>   1</c></rc>
    <rc><c>Fe</c><c>   1</c></rc>
    <rc><c>Fe</c><c>   1</c></rc>
    <rc><c>Fe</c><c>   1</c></rc>
    <rc><c>Fe</c><c>   1</c></rc>
    <rc><c>Fe</c><c>   1</c></rc>
    <rc><c>Fe</c><c>   1</c></rc>
    <rc><c>Fe</c><c>   1</c></rc>
    <rc><c>Fe</c><c>   1</c></rc>
    <rc><c>Fe</c><c>   1</c></rc>
    <rc><c>Fe</c><c>   1</c></rc>
    <rc><c>Fe</c><c>   1</c></rc>
    <rc><c>Fe</c><c>   1</c></rc>
    <rc><c>Fe</c><c>   1</c></rc>
    <rc><c>Fe</c><c>   1</c></rc>
    <rc><c>Fe</c><c>   1</c></rc>
    <rc><c>Fe</c><c>   1</c></rc>
    <rc><c>Fe</c><c>   1</c></rc>
    <rc><c>Fe</c><c>   1</c></rc>
    <rc><c>Fe</c><c>   1</c></rc>
    <rc><c>Fe</c><c>   1</c></rc>
    <rc><c>Fe</c><c>   1</c></rc>
    <rc><c>Fe</c><c>   1</c></rc>
    <rc><c>Fe</c><c>   1</c></rc>
    <rc><c>Fe</c><c>   1</c></rc>
    <rc><c>Fe</c><c>   1</c></rc>
    <rc><c>Fe</c><c>   1</c></rc>
    <rc><c>Fe</c><c>   1</c></rc>
    <rc><c>Fe</c><c>   1</c></rc>
    <rc><c>Fe</c><c>   1</c></rc>
    <rc><c>Fe</c><c>   1</c></rc>
    <rc><c>Fe</c><c>   1</c></rc>
    <rc><c>Fe</c><c>   1</c></rc>
    <rc><c>Fe</c><c>   1</c></rc>
    <rc><c>Fe</c><c>   1</c></rc>
    <rc><c>Fe</c><c>   1</c></rc>
    <rc><c>Fe</c><c>   1</c></rc>
    <rc><c>Fe</c><c>   1</c></rc>
    <rc><c>Fe</c><c>   1</c></rc>
    <rc><c>Fe</c><c>   1</c></rc>
    <rc><c>Fe</c><c>   1</c></rc>
    <rc><c>Fe</c><c>   1</c></rc>
    <rc><c>Fe</c><c>   1</c></rc>
    <rc><c>Fe</c><c>   1</c></rc>
    <rc><c>Fe</c><c>   1</c></rc>
    <rc><c>Mn</c><c>   2</c></rc>
    <rc><c>Mn</c><c>   2</c></rc>
    <rc><c>Mn</c><c>   2</c></rc>
    <rc><c>Mn</c><c>   2</c></rc>
    <rc><c>Mn</c><c>   2</c></rc>
    <rc><c>Mn</c><c>   2</c></rc>
    <rc><c>Mn</c><c>   2</c></rc>
    <rc><c>Mn</c><c>   2</c></rc>
    <rc><c>Mn</c><c>   2</c></rc>
    <rc><c>Mn</c><c>   2</c></rc>
    <rc><c>Mn</c><c>   2</c></rc>
    <rc><c>Mn</c><c>   2</c></rc>
    <rc><c>Mn</c><c>   2</c></rc>
    <rc><c>Mn</c><c>   2</c></rc>
    <rc><c>Mn</c><c>   2</c></rc>
   </set>
  </array>
  <array name="atomtypes" >
   <dimension dim="1">type</dimension>
   <field type="int">atomspertype</field>
   <field type="string">element</field>
   <field>mass</field>
   <field>valence</field>
   <field type="string">pseudopotential</field>
   <set>
    <rc><c> 273</c><c>Fe</c><c>     55.84700000</c><c>      8.00000000</c><c>  PAW_PBE Fe_GW 31Mar2010               </c></rc>
    <rc><c>  15</c><c>Mn</c><c>     54.93800000</c><c>      7.00000000</c><c>  PAW_PBE Mn_GW 31Mar2010               </c></rc>
   </set>
  </array>
 </atominfo>
 <structure name="initialpos" >
  <crystal>
   <varray name="basis" >
    <v>       9.72667800       0.00000000       0.00000000 </v>
    <v>       0.00000000       8.42355000       0.00000000 </v>
    <v>       0.00000000       0.00000000      45.00000000 </v>
   </varray>
   <i name="volume">   3686.99213101 </i>
   <varray name="rec_basis" >
    <v>       0.10281002       0.00000000       0.00000000 </v>
    <v>       0.00000000       0.11871479       0.00000000 </v>
    <v>       0.00000000       0.00000000       0.02222222 </v>
   </varray>
  </crystal>
  <varray name="positions" >
   <v>       0.81223774       0.04144629       0.61057459 </v>
   <v>       0.56311864       0.71177852       0.83288818 </v>
   <v>       0.18739760       0.45279055       0.34520580 </v>
   <v>       0.43724354       0.61819534       0.30056566 </v>
   <v>       0.93857086       0.12897304       0.78795433 </v>
   <v>       0.06265144       0.20340487       0.34527700 </v>
   <v>       0.43735681       0.95706147       0.56561792 </v>
   <v>       0.68715335       0.12459331       0.65482427 </v>
   <v>       0.31274526       0.04126314       0.61067157 </v>
   <v>       0.81339098       0.54761219       0.87504240 </v>
   <v>       0.81269669       0.03677426       0.38926841 </v>
   <v>       0.43740537       0.29135663       0.61066195 </v>
   <v>       0.68737564       0.28679843       0.38936935 </v>
   <v>       0.93980746       0.29672815       0.87550690 </v>
   <v>       0.68765952       0.28376053       0.25629469 </v>
   <v>       0.18666427       0.62432814       0.65489488 </v>
   <v>       0.68853973       0.79541233       0.87523782 </v>
   <v>       0.56252979       0.21210412       0.83324245 </v>
   <v>       0.93756121       0.62092619       0.43449231 </v>
   <v>       0.93834579       0.79606236       0.87504445 </v>
   <v>       0.18728855       0.12087996       0.43445813 </v>
   <v>       0.81223934       0.86776351       0.30051373 </v>
   <v>       0.81266963       0.54132908       0.61054650 </v>
   <v>       0.43744313       0.11553796       0.16695980 </v>
   <v>       0.81196608       0.69878346       0.21197390 </v>
   <v>       0.43689832       0.44880658       0.21197037 </v>
   <v>       0.56190402       0.04432548       0.74373295 </v>
   <v>       0.06175205       0.03145034       0.12484233 </v>
   <v>       0.18705041       0.94863925       0.21189690 </v>
   <v>       0.18743782       0.61794494       0.30058646 </v>
   <v>       0.31329112       0.37984674       0.78790743 </v>
   <v>       0.56215595       0.04189139       0.61061445 </v>
   <v>       0.81276553       0.70281283       0.34514323 </v>
   <v>       0.93753347       0.79056568       0.61060940 </v>
   <v>       0.31274324       0.37043867       0.43433647 </v>
   <v>       0.06181174       0.69875414       0.21196345 </v>
   <v>       0.18767176       0.28346624       0.25627087 </v>
   <v>       0.43732455       0.62071201       0.43438134 </v>
   <v>       0.93674351       0.62463041       0.65485306 </v>
   <v>       0.31194617       0.37489562       0.65479731 </v>
   <v>       0.31238667       0.54135742       0.61055525 </v>
   <v>       0.56412357       0.54685515       0.87525390 </v>
   <v>       0.06267953       0.70531789       0.47834304 </v>
   <v>       0.93719321       0.11755823       0.30060537 </v>
   <v>       0.43774593       0.45269712       0.34513100 </v>
   <v>       0.81249235       0.20679805       0.56571174 </v>
   <v>       0.31220023       0.54410680       0.74378022 </v>
   <v>       0.81212353       0.37461896       0.65480921 </v>
   <v>       0.93743120       0.12228497       0.52146751 </v>
   <v>       0.43761628       0.78375485       0.25626619 </v>
   <v>       0.06197527       0.37460239       0.65484552 </v>
   <v>       0.56247180       0.54157100       0.61053320 </v>
   <v>       0.68822310       0.95980123       0.69958448 </v>
   <v>       0.93725466       0.29459744       0.74375036 </v>
   <v>       0.68859186       0.62900450       0.78818201 </v>
   <v>       0.43756688       0.61566708       0.16705198 </v>
   <v>       0.68718238       0.79116806       0.61056990 </v>
   <v>       0.43697415       0.28111907       0.12476447 </v>
   <v>       0.81264877       0.03334952       0.25628649 </v>
   <v>       0.18824918       0.96298183       0.83303458 </v>
   <v>       0.31237511       0.87286263       0.52141307 </v>
   <v>       0.56390195       0.87829351       0.78799946 </v>
   <v>       0.93745173       0.12086848       0.43440999 </v>
   <v>       0.31215623       0.86788956       0.30049256 </v>
   <v>       0.43646290       0.12219491       0.52145268 </v>
   <v>       0.06292061       0.70982168       0.69957454 </v>
   <v>       0.43696057       0.78119131       0.12483602 </v>
   <v>       0.93747712       0.78678021       0.38934882 </v>
   <v>       0.06248837       0.71270296       0.83283821 </v>
   <v>       0.93678927       0.95618801       0.56557835 </v>
   <v>       0.31225106       0.03663892       0.38926980 </v>
   <v>       0.93769947       0.28360469       0.25627198 </v>
   <v>       0.18849178       0.62955331       0.78815174 </v>
   <v>       0.43739622       0.78717650       0.38936384 </v>
   <v>       0.31389244       0.54783251       0.87518044 </v>
   <v>       0.18701998       0.79447131       0.74382440 </v>
   <v>       0.56261395       0.86531499       0.16697667 </v>
   <v>       0.18728993       0.28106305       0.12480293 </v>
   <v>       0.06295426       0.04783176       0.87528783 </v>
   <v>       0.06227487       0.53685781       0.38934650 </v>
   <v>       0.06181634       0.53129101       0.12479729 </v>
   <v>       0.93684218       0.94877396       0.21194762 </v>
   <v>       0.81222556       0.36801051       0.30051655 </v>
   <v>       0.68792718       0.46257715       0.83317576 </v>
   <v>       0.06207353       0.20514072       0.47838493 </v>
   <v>       0.81250284       0.53697409       0.38928397 </v>
   <v>       0.68735911       0.78716313       0.38930215 </v>
   <v>       0.56211899       0.86831405       0.30043142 </v>
   <v>       0.81262250       0.53327269       0.25624766 </v>
   <v>       0.81210863       0.37071652       0.43421240 </v>
   <v>       0.43716032       0.62249804       0.52140644 </v>
   <v>       0.18743020       0.78683588       0.38935411 </v>
   <v>       0.18781217       0.12219388       0.52157886 </v>
   <v>       0.68769383       0.29623325       0.87531055 </v>
   <v>       0.93768119       0.95308919       0.34515909 </v>
   <v>       0.43700445       0.45560927       0.47837827 </v>
   <v>       0.93731639       0.95557532       0.47839080 </v>
   <v>       0.68734760       0.61540496       0.16701553 </v>
   <v>       0.06351849       0.37973831       0.78801360 </v>
   <v>       0.56277925       0.70270335       0.34514370 </v>
   <v>       0.56461300       0.04771499       0.87518244 </v>
   <v>       0.31276735       0.20290088       0.34516295 </v>
   <v>       0.18888469       0.12925012       0.78801067 </v>
   <v>       0.56238173       0.37307503       0.52137306 </v>
   <v>       0.06212896       0.54455094       0.74379824 </v>
   <v>       0.81187835       0.37223814       0.52143918 </v>
   <v>       0.56232673       0.36525215       0.16702922 </v>
   <v>       0.93695328       0.28162667       0.12480563 </v>
   <v>       0.43762231       0.28389042       0.25620519 </v>
   <v>       0.81208993       0.87518678       0.65489264 </v>
   <v>       0.68782044       0.45698551       0.56561448 </v>
   <v>       0.18761800       0.95294460       0.34520954 </v>
   <v>       0.43980476       0.29659832       0.87520437 </v>
   <v>       0.18748184       0.95553905       0.47854081 </v>
   <v>       0.68691198       0.62473575       0.65493436 </v>
   <v>       0.56243403       0.20954216       0.69945541 </v>
   <v>       0.68732712       0.62084804       0.43423457 </v>
   <v>       0.68754957       0.46042758       0.69939870 </v>
   <v>       0.06242860       0.53334607       0.25625891 </v>
   <v>       0.56270288       0.20310664       0.34524272 </v>
   <v>       0.06258464       0.03327644       0.25627315 </v>
   <v>       0.31308448       0.71268548       0.83317954 </v>
   <v>       0.68666109       0.44856222       0.21195965 </v>
   <v>       0.06177739       0.20680760       0.56561857 </v>
   <v>       0.06317793       0.87845636       0.78789565 </v>
   <v>       0.06185302       0.87512511       0.65489902 </v>
   <v>       0.31248508       0.86558735       0.16703235 </v>
   <v>       0.81265527       0.87099237       0.43421118 </v>
   <v>       0.06230177       0.86769187       0.30046193 </v>
   <v>       0.31269598       0.21165145       0.83312482 </v>
   <v>       0.56295466       0.53371121       0.25627360 </v>
   <v>       0.31222451       0.36783699       0.30046765 </v>
   <v>       0.93742158       0.79466549       0.74386094 </v>
   <v>       0.43759878       0.79142484       0.61061233 </v>
   <v>       0.68725630       0.11801007       0.30048943 </v>
   <v>       0.06234644       0.87090622       0.43420969 </v>
   <v>       0.56355402       0.37905192       0.78806092 </v>
   <v>       0.18760574       0.29679363       0.87549928 </v>
   <v>       0.81345914       0.87874719       0.78807657 </v>
   <v>       0.56189877       0.19840315       0.21189888 </v>
   <v>       0.68743815       0.79471174       0.74401238 </v>
   <v>       0.18761383       0.11563607       0.16697541 </v>
   <v>       0.43838981       0.62939173       0.78805739 </v>
   <v>       0.06271214       0.70266361       0.34516066 </v>
   <v>       0.56218900       0.69888294       0.21194260 </v>
   <v>       0.31261334       0.70259192       0.34519530 </v>
   <v>       0.93783485       0.46008091       0.69960213 </v>
   <v>       0.18761349       0.95998390       0.69947217 </v>
   <v>       0.06237301       0.54090640       0.61049148 </v>
   <v>       0.68766438       0.45553528       0.47839198 </v>
   <v>       0.43804974       0.45964483       0.69949812 </v>
   <v>       0.93773030       0.78293022       0.25617649 </v>
   <v>       0.81234398       0.71230528       0.83301233 </v>
   <v>       0.06239833       0.36569108       0.16697833 </v>
   <v>       0.56231960       0.87099446       0.43429881 </v>
   <v>       0.43759786       0.46263446       0.83307870 </v>
   <v>       0.81268470       0.36569018       0.16698451 </v>
   <v>       0.18640298       0.12467644       0.65489544 </v>
   <v>       0.56171694       0.37469253       0.65478567 </v>
   <v>       0.68680317       0.78151733       0.12488818 </v>
   <v>       0.81200693       0.70577891       0.47844440 </v>
   <v>       0.18750664       0.79058094       0.61056930 </v>
   <v>       0.43861235       0.79597217       0.87519472 </v>
   <v>       0.18718911       0.11777890       0.30055570 </v>
   <v>       0.43741216       0.95538760       0.47831068 </v>
   <v>       0.06256660       0.37066894       0.43428530 </v>
   <v>       0.68780061       0.96187592       0.83311371 </v>
   <v>       0.31214026       0.70509550       0.47833685 </v>
   <v>       0.31297957       0.71013705       0.69950385 </v>
   <v>       0.31145653       0.87475310       0.65483130 </v>
   <v>       0.06223786       0.37237561       0.52146677 </v>
   <v>       0.43746382       0.11825486       0.30052625 </v>
   <v>       0.18716344       0.46256484       0.83320093 </v>
   <v>       0.18691873       0.78140626       0.12484890 </v>
   <v>       0.43725395       0.12079979       0.43439923 </v>
   <v>       0.68725362       0.11555043       0.16700707 </v>
   <v>       0.68657536       0.28099773       0.12481881 </v>
   <v>       0.93689737       0.45640700       0.56553032 </v>
   <v>       0.06219146       0.36785310       0.30053074 </v>
   <v>       0.31246424       0.87083814       0.43430872 </v>
   <v>       0.06287996       0.20987764       0.69951399 </v>
   <v>       0.68785477       0.95288367       0.34512613 </v>
   <v>       0.18786650       0.45970973       0.69949477 </v>
   <v>       0.18766169       0.62058114       0.43423840 </v>
   <v>       0.31256558       0.36557146       0.16697057 </v>
   <v>       0.18781244       0.62234350       0.52150174 </v>
   <v>       0.31373052       0.87869247       0.78806053 </v>
   <v>       0.31274658       0.20975963       0.69947724 </v>
   <v>       0.93756990       0.29057551       0.61068944 </v>
   <v>       0.68710211       0.61820981       0.30058800 </v>
   <v>       0.81185424       0.19858959       0.21196947 </v>
   <v>       0.56242686       0.37091002       0.43434451 </v>
   <v>       0.56219815       0.54401033       0.74383427 </v>
   <v>       0.18729253       0.28685385       0.38941179 </v>
   <v>       0.56233460       0.53705492       0.38920741 </v>
   <v>       0.93755568       0.11543732       0.16705695 </v>
   <v>       0.31273094       0.37234956       0.52139705 </v>
   <v>       0.93722266       0.61788827       0.30050590 </v>
   <v>       0.31240786       0.70681163       0.56546346 </v>
   <v>       0.81258153       0.86559205       0.16705797 </v>
   <v>       0.43760304       0.95999227       0.69955368 </v>
   <v>       0.56194906       0.20747474       0.56529494 </v>
   <v>       0.93751476       0.28698882       0.38933142 </v>
   <v>       0.31191360       0.04452989       0.74389547 </v>
   <v>       0.06194142       0.70661818       0.56559167 </v>
   <v>       0.43728636       0.45722438       0.56562861 </v>
   <v>       0.68764710       0.78315053       0.25620566 </v>
   <v>       0.06384237       0.54675412       0.87515862 </v>
   <v>       0.56194203       0.70714528       0.56549200 </v>
   <v>       0.06222838       0.86546401       0.16697167 </v>
   <v>       0.56240232       0.87227340       0.52137350 </v>
   <v>       0.18919387       0.79556601       0.87515598 </v>
   <v>       0.56192620       0.03123875       0.12481522 </v>
   <v>       0.56235091       0.03686409       0.38938992 </v>
   <v>       0.81192045       0.54461797       0.74374668 </v>
   <v>       0.93743454       0.45492113       0.47841724 </v>
   <v>       0.81380509       0.37838136       0.78813340 </v>
   <v>       0.93861668       0.62907176       0.78820139 </v>
   <v>       0.56277099       0.03342228       0.25627169 </v>
   <v>       0.81210883       0.03139954       0.12486115 </v>
   <v>       0.81256324       0.70671169       0.56550358 </v>
   <v>       0.31223901       0.20537247       0.47840777 </v>
   <v>       0.81253416       0.87266839       0.52143038 </v>
   <v>       0.18677545       0.29434741       0.74384103 </v>
   <v>       0.93751588       0.61512007       0.16693116 </v>
   <v>       0.68750571       0.12228595       0.52142732 </v>
   <v>       0.81227364       0.04442362       0.74386233 </v>
   <v>       0.06218470       0.19863536       0.21195886 </v>
   <v>       0.56177438       0.53139352       0.12487140 </v>
   <v>       0.06237180       0.04093168       0.61071251 </v>
   <v>       0.43711106       0.94865165       0.21189881 </v>
   <v>       0.06185544       0.87302701       0.52144266 </v>
   <v>       0.93682169       0.12573188       0.65493610 </v>
   <v>       0.31274632       0.53363111       0.25625755 </v>
   <v>       0.43678633       0.12536099       0.65489179 </v>
   <v>       0.81366227       0.04677087       0.87526358 </v>
   <v>       0.68712110       0.29423491       0.74385646 </v>
   <v>       0.31190453       0.19844728       0.21193575 </v>
   <v>       0.18763547       0.78352734       0.25623525 </v>
   <v>       0.81296136       0.20986278       0.69953464 </v>
   <v>       0.18728856       0.29072957       0.61057248 </v>
   <v>       0.68718385       0.95502618       0.47845935 </v>
   <v>       0.93796819       0.95941544       0.69948911 </v>
   <v>       0.68781595       0.12109618       0.43440768 </v>
   <v>       0.93772419       0.45303666       0.34515100 </v>
   <v>       0.31252069       0.53674636       0.38926060 </v>
   <v>       0.43835612       0.12937848       0.78811343 </v>
   <v>       0.93714514       0.78218152       0.12482829 </v>
   <v>       0.81212939       0.53108261       0.12482237 </v>
   <v>       0.31207734       0.53118671       0.12490512 </v>
   <v>       0.43689204       0.79449305       0.74375818 </v>
   <v>       0.68686246       0.62260326       0.52144225 </v>
   <v>       0.31193337       0.03117440       0.12482468 </v>
   <v>       0.56262021       0.70542649       0.47839075 </v>
   <v>       0.31185026       0.69914313       0.21199545 </v>
   <v>       0.31250140       0.20754362       0.56571853 </v>
   <v>       0.68745032       0.29128884       0.61056173 </v>
   <v>       0.93760183       0.96285444       0.83311300 </v>
   <v>       0.56252387       0.71013352       0.69959985 </v>
   <v>       0.18720317       0.44876187       0.21196504 </v>
   <v>       0.06226493       0.03676060       0.38934023 </v>
   <v>       0.68682114       0.94859635       0.21192122 </v>
   <v>       0.43739315       0.96190903       0.83322020 </v>
   <v>       0.18746457       0.61574599       0.16702980 </v>
   <v>       0.43745817       0.28665664       0.38931157 </v>
   <v>       0.81291355       0.20572105       0.47837852 </v>
   <v>       0.56243086       0.36813710       0.30051638 </v>
   <v>       0.81235016       0.21181579       0.83305320 </v>
   <v>       0.68795985       0.45302214       0.34517002 </v>
   <v>       0.93840697       0.46166487       0.83307075 </v>
   <v>       0.06244718       0.04446251       0.74373606 </v>
   <v>       0.18736329       0.45584786       0.47852442 </v>
   <v>       0.81265966       0.20329334       0.34518185 </v>
   <v>       0.43775119       0.95292982       0.34525533 </v>
   <v>       0.18655729       0.45673227       0.56551871 </v>
   <v>       0.93742688       0.62239267       0.52138347 </v>
   <v>       0.18730849       0.95660994       0.56558971 </v>
   <v>       0.81304439       0.71008547       0.69935432 </v>
   <v>       0.31364772       0.04650209       0.87489421 </v>
   <v>       0.43657242       0.62414846       0.65479501 </v>
   <v>       0.68851648       0.12954344       0.78783480 </v>
   <v>       0.06331829       0.21274590       0.83383996 </v>
   <v>       0.68711396       0.95638297       0.56572864 </v>
   <v>       0.31279002       0.03357823       0.25622335 </v>
   <v>       0.56226698       0.20566409       0.47842170 </v>
   <v>       0.93685751       0.44847999       0.21217460 </v>
   <v>       0.43724598       0.29399417       0.74405991 </v>
   <v>       0.56252931       0.87510627       0.65473198 </v>
  </varray>
 </structure>
 <calculation>
  <scstep>
   <time name="dav">  147.54  147.54</time>
   <time name="total">  147.96  147.96</time>
   <energy>
    <i name="alphaZ">  16277.55763135 </i>
    <i name="ewald"> 727352.41368706 </i>
    <i name="hartreedc">-917675.76352055 </i>
    <i name="XCdc">  -6528.82966235 </i>
    <i name="pawpsdc"> 162148.49262465 </i>
    <i name="pawaedc">-159453.03229289 </i>
    <i name="eentropy">     -0.96730282 </i>
    <i name="bandstr">  39760.14379843 </i>
    <i name="atom"> 168497.18126305 </i>
    <i name="e_fr_energy">  30377.19622593 </i>
    <i name="e_wo_entrp">  30378.16352875 </i>
    <i name="e_0_energy">  30377.67987734 </i>
   </energy>
  </scstep>
  <scstep>
   <time name="dav">  142.20  142.19</time>
   <time name="total">  142.20  142.20</time>
   <energy>
    <i name="e_fr_energy">   1520.52660741 </i>
    <i name="e_wo_entrp">   1521.90839298 </i>
    <i name="e_0_energy">   1521.21750020 </i>
   </energy>
  </scstep>
  <scstep>
   <time name="dav">  179.58  179.57</time>
   <time name="total">  179.58  179.58</time>
   <energy>
    <i name="e_fr_energy">  -1898.01729053 </i>
    <i name="e_wo_entrp">  -1894.46802336 </i>
    <i name="e_0_energy">  -1896.24265694 </i>
   </energy>
  </scstep>
  <scstep>
   <time name="dav">  219.35  219.34</time>
   <time name="total">  219.36  219.35</time>
   <energy>
    <i name="e_fr_energy">  -2609.82851099 </i>
    <i name="e_wo_entrp">  -2606.34540499 </i>
    <i name="e_0_energy">  -2608.08695799 </i>
   </energy>
  </scstep>
  <scstep>
   <time name="dav">  208.93  208.93</time>
   <time name="total">  213.53  213.52</time>
   <energy>
    <i name="e_fr_energy">  -2739.84823330 </i>
    <i name="e_wo_entrp">  -2736.26348967 </i>
    <i name="e_0_energy">  -2738.05586149 </i>
   </energy>
  </scstep>
  <scstep>
   <time name="diag">   30.53   30.53</time>
   <time name="diis">   74.89   74.89</time>
   <time name="orth">    8.78    8.78</time>
   <time name="total">  119.21  119.21</time>
   <energy>
    <i name="e_fr_energy">  -6578.68529814 </i>
    <i name="e_wo_entrp">  -6575.56335765 </i>
    <i name="e_0_energy">  -6577.12432790 </i>
   </energy>
  </scstep>
  <scstep>
   <time name="diag">   30.20   30.20</time>
   <time name="diis">   76.98   76.98</time>
   <time name="orth">    9.07    9.07</time>
   <time name="total">  121.23  121.23</time>
   <energy>
    <i name="e_fr_energy">  -5547.80331160 </i>
    <i name="e_wo_entrp">  -5543.59371568 </i>
    <i name="e_0_energy">  -5545.69851364 </i>
   </energy>
  </scstep>
  <scstep>
[...]
   <v>       0.00197831       0.00629777      -0.01491803 </v>
   <v>      -0.00182521      -0.00515783      -0.02202690 </v>
   <v>      -0.00200134       0.00576114      -0.00122996 </v>
   <v>      -0.01301248      -0.00006226       0.00309084 </v>
   <v>      -0.01109126      -0.00848484       0.01051032 </v>
   <v>      -0.01335840      -0.00428582      -0.00536510 </v>
   <v>       0.00079393       0.00209405       0.03395897 </v>
   <v>      -0.00617642      -0.01018110       0.00936710 </v>
   <v>       0.00019569       0.00579350      -0.01085172 </v>
   <v>       0.00480513       0.02177156      -0.00294323 </v>
   <v>       0.00515794      -0.00317679      -0.01107574 </v>
   <v>      -0.00526586       0.01172219      -0.01253459 </v>
   <v>      -0.00011904      -0.00626368       0.00103523 </v>
   <v>      -0.00420736       0.01028546       0.02214952 </v>
   <v>       0.00450499      -0.00728356      -0.00124908 </v>
   <v>       0.00363705       0.00911607       0.00326062 </v>
   <v>      -0.00377347       0.00112282       0.02074420 </v>
   <v>       0.00266617      -0.00516326       0.01419858 </v>
   <v>       0.00499305      -0.00250445       0.02366516 </v>
   <v>       0.00642765      -0.00616922      -0.00642189 </v>
   <v>       0.01518557      -0.01324442      -0.03802953 </v>
   <v>      -0.08088836      -0.01766468       0.01653841 </v>
   <v>      -0.00167566       0.00486048       0.00238948 </v>
   <v>       0.00232723       0.00536416      -0.00742254 </v>
   <v>       0.00047400       0.01717043      -0.00948602 </v>
   <v>      -0.00685108       0.00550621      -0.00027975 </v>
   <v>      -0.00268094      -0.01469559       0.02622932 </v>
   <v>       0.07893658       0.07336780       0.05863803 </v>
   <v>       0.00295929       0.00383835       0.00596947 </v>
   <v>       0.00227293      -0.00884585       0.00870175 </v>
   <v>       0.00305904      -0.00736716      -0.01517329 </v>
   <v>      -0.00054428      -0.01146557       0.00817095 </v>
   <v>       0.00312712      -0.01070861      -0.03379136 </v>
   <v>       0.01094207       0.00171306      -0.04391400 </v>
   <v>       0.00151555       0.00069590       0.01493176 </v>
   <v>      -0.00342311      -0.01448402       0.00511950 </v>
   <v>      -0.00273412      -0.00441294       0.03045596 </v>
   <v>      -0.00143263      -0.00482193      -0.00252202 </v>
   <v>      -0.01543692      -0.00764850      -0.00605289 </v>
   <v>       0.01239242       0.01782668      -0.01646596 </v>
   <v>       0.00158832       0.00959692       0.00421581 </v>
   <v>       0.00879996      -0.00455696      -0.02102319 </v>
   <v>       0.00600773      -0.00550488      -0.00359610 </v>
   <v>       0.09389597      -0.00600839      -0.02240440 </v>
   <v>      -0.01252309       0.00454700       0.01536041 </v>
   <v>      -0.00383494       0.00613616       0.01460149 </v>
   <v>      -0.00145539       0.00400414      -0.00524490 </v>
   <v>      -0.01793468      -0.00904119       0.03461310 </v>
   <v>       0.01223172      -0.00252825       0.01277695 </v>
   <v>      -0.00350550       0.01137112       0.00143018 </v>
   <v>       0.00483891       0.00566942       0.00543510 </v>
   <v>       0.00694605       0.00627933      -0.03085737 </v>
   <v>      -0.00133717      -0.00493185       0.00246131 </v>
   <v>      -0.00251763      -0.01280272      -0.02615038 </v>
   <v>      -0.00421913      -0.00706925      -0.01427298 </v>
   <v>      -0.00115170       0.01454948       0.00547793 </v>
   <v>      -0.00157460       0.00145752       0.02715790 </v>
   <v>       0.00537843      -0.03420350       0.00509689 </v>
   <v>       0.00827096      -0.00086833      -0.00387778 </v>
   <v>      -0.00009450       0.00226903       0.01958008 </v>
   <v>      -0.00641446      -0.00994940       0.01152021 </v>
   <v>      -0.00703610       0.00279041      -0.01070164 </v>
   <v>       0.00115179       0.01915503       0.01723234 </v>
   <v>       0.03026676      -0.05613068       0.00644603 </v>
   <v>      -0.00486648       0.00350075       0.00290605 </v>
   <v>      -0.00328980      -0.00340890      -0.00698938 </v>
   <v>       0.00071089      -0.00200377      -0.01120850 </v>
   <v>       0.00261564       0.01120090       0.00660455 </v>
   <v>       0.00336882      -0.00908438       0.02586939 </v>
   <v>      -0.04804600       0.03108708       0.01026298 </v>
   <v>       0.00282078       0.00094121      -0.00284378 </v>
   <v>      -0.04333925       0.02746245      -0.00598974 </v>
   <v>       0.00611459       0.00722837      -0.03380318 </v>
   <v>       0.00043776       0.00665491      -0.00188237 </v>
   <v>      -0.09015757      -0.00132629      -0.06369787 </v>
   <v>       0.03976939      -0.14118931      -0.03828830 </v>
   <v>       0.00766944       0.00093660       0.00427224 </v>
   <v>       0.00710783       0.02079094       0.01414509 </v>
   <v>      -0.00095211      -0.00218693      -0.00982735 </v>
   <v>       0.00701790      -0.02593113      -0.02734735 </v>
   <v>       0.00629437       0.01471375       0.00008716 </v>
   <v>       0.00926478       0.00869697      -0.03260501 </v>
   <v>       0.11354594      -0.10726431       0.03092478 </v>
   <v>      -0.00121486      -0.00383903      -0.01304185 </v>
   <v>      -0.05432702      -0.03377385      -0.00198993 </v>
   <v>       0.00072598       0.00596128      -0.00337355 </v>
   <v>      -0.00240106       0.00298986       0.02845716 </v>
   <v>       0.00387978       0.00259886       0.00708035 </v>
   <v>      -0.00348856      -0.00111879       0.00996857 </v>
   <v>      -0.01540936       0.00167981      -0.00778743 </v>
   <v>       0.00275172       0.00771633      -0.00044608 </v>
   <v>       0.00387502       0.00139825      -0.03155211 </v>
   <v>       0.04949387      -0.02750229      -0.02981739 </v>
   <v>       0.00545060      -0.01683346      -0.01093289 </v>
   <v>      -0.01252748      -0.00326874       0.00993445 </v>
   <v>      -0.00973041       0.01248877      -0.00299488 </v>
   <v>       0.01074679      -0.00267327       0.01403584 </v>
   <v>       0.00263123       0.00655400       0.00401735 </v>
   <v>      -0.00904558       0.01747811      -0.01505726 </v>
   <v>      -0.00089735       0.00224741      -0.00066000 </v>
   <v>      -0.01072636      -0.02328156       0.00090118 </v>
   <v>      -0.00601223       0.00103496       0.00263474 </v>
   <v>      -0.00956908      -0.00915023      -0.02189133 </v>
   <v>       0.01472563      -0.00529560       0.00648482 </v>
   <v>      -0.01220393      -0.01274476       0.01780738 </v>
   <v>      -0.00059529       0.01177329      -0.00102679 </v>
   <v>      -0.00077183       0.01059625       0.04400639 </v>
   <v>      -0.00340598       0.00296091      -0.01752683 </v>
   <v>      -0.00044018       0.00651358       0.01475343 </v>
   <v>      -0.00332545       0.00587510       0.01813114 </v>
   <v>       0.01162691       0.01259133      -0.01046322 </v>
   <v>       0.00353671      -0.01487727      -0.04104597 </v>
   <v>       0.00655640      -0.01603573       0.00899683 </v>
   <v>      -0.00313277       0.01163911      -0.00813564 </v>
   <v>      -0.01139379       0.00999194       0.04117974 </v>
   <v>       0.00319212       0.01834965       0.00369652 </v>
   <v>       0.00676128       0.01403557      -0.02505331 </v>
   <v>       0.00493456      -0.00022309       0.01697886 </v>
   <v>      -0.00684373      -0.00987937      -0.00081282 </v>
   <v>      -0.01453417      -0.01052916      -0.01847745 </v>
   <v>       0.00145866       0.00219197      -0.00077836 </v>
   <v>       0.01126866       0.00855471      -0.03435539 </v>
   <v>       0.00562173       0.00787949      -0.00592970 </v>
   <v>      -0.00780836      -0.00606064      -0.00103638 </v>
   <v>       0.00496764      -0.00040604      -0.01144863 </v>
   <v>      -0.00521298      -0.00646208       0.01484109 </v>
   <v>      -0.00844742      -0.00783928       0.02078716 </v>
   <v>      -0.00611679       0.00247594      -0.00977765 </v>
   <v>       0.03091527      -0.09025055       0.00878624 </v>
   <v>      -0.00277068      -0.01227875      -0.00085389 </v>
   <v>      -0.00184935       0.00509751       0.01684975 </v>
   <v>       0.00635327      -0.02979248       0.02594648 </v>
   <v>       0.00549167      -0.00113354       0.00173199 </v>
   <v>       0.01065015      -0.00669759       0.03299166 </v>
   <v>      -0.01023266       0.00526280       0.01111392 </v>
   <v>       0.00002063       0.00620841       0.00064847 </v>
   <v>      -0.00007969      -0.00056835       0.00167643 </v>
   <v>      -0.01281452      -0.01355007       0.00687476 </v>
   <v>      -0.00306318       0.00492773       0.01687548 </v>
   <v>       0.08416177       0.04961143       0.01432868 </v>
   <v>       0.00486259      -0.00211481       0.01206094 </v>
   <v>       0.01283590       0.00546989      -0.02273160 </v>
   <v>       0.00775049       0.01085757      -0.00046462 </v>
   <v>      -0.06082321       0.00061389      -0.00164371 </v>
   <v>       0.00170313       0.00285734      -0.00001498 </v>
   <v>      -0.01142547      -0.00486721       0.00560179 </v>
   <v>      -0.00267604      -0.02791685      -0.01243845 </v>
   <v>      -0.01112737      -0.00530926       0.01954219 </v>
   <v>      -0.00460168      -0.00258429       0.00494855 </v>
   <v>      -0.04394636       0.04207264       0.03185984 </v>
   <v>       0.00311085       0.02005431      -0.00473309 </v>
   <v>       0.00134848       0.01005803       0.00566232 </v>
   <v>      -0.00013047       0.00895638       0.01796471 </v>
   <v>      -0.00893480      -0.00172398       0.03702024 </v>
   <v>      -0.00017199       0.00364252      -0.00101655 </v>
   <v>      -0.00207568       0.00015822       0.02736656 </v>
   <v>       0.00576278       0.00684476      -0.00029823 </v>
   <v>       0.00545399       0.00900445      -0.00649362 </v>
   <v>       0.00217222       0.00600121       0.04481398 </v>
   <v>      -0.00719726      -0.01007855       0.01468239 </v>
   <v>       0.00507979       0.00696910      -0.00583609 </v>
   <v>      -0.00746305      -0.00925650       0.02147423 </v>
   <v>       0.00152863      -0.00740015       0.02780895 </v>
   <v>       0.00401465       0.00559135       0.00648455 </v>
   <v>      -0.03894640      -0.02167990      -0.01189111 </v>
   <v>       0.00893462       0.00103858       0.00126856 </v>
   <v>       0.00695890      -0.00904479       0.01520098 </v>
   <v>      -0.00151526       0.00048925       0.00112854 </v>
   <v>       0.00080183       0.00333526      -0.00892238 </v>
   <v>      -0.00234302      -0.01013788       0.00486669 </v>
   <v>       0.00677424       0.00456241       0.01247706 </v>
   <v>      -0.00720900       0.00117837       0.00040392 </v>
   <v>       0.00521234       0.01005590      -0.00597722 </v>
   <v>      -0.01010429       0.00698206      -0.01102159 </v>
   <v>       0.00604048      -0.00539869      -0.00328057 </v>
   <v>      -0.01411800       0.03744584      -0.00720150 </v>
   <v>      -0.00244603       0.01671271      -0.01098168 </v>
   <v>       0.00769079      -0.00324061      -0.00915700 </v>
   <v>       0.00276968       0.01615415       0.00103445 </v>
   <v>       0.00590832       0.00346512       0.02545598 </v>
   <v>       0.01027518       0.01018137      -0.05321141 </v>
   <v>       0.00587103       0.00148767      -0.00712919 </v>
   <v>      -0.01132011      -0.00346875      -0.01953568 </v>
   <v>      -0.00361721      -0.00204963      -0.01788803 </v>
   <v>       0.00881592       0.00744591       0.02456659 </v>
   <v>      -0.00417783       0.00819034       0.00671415 </v>
   <v>       0.00673212      -0.01446924      -0.02534162 </v>
   <v>       0.01388045      -0.00711982       0.00008354 </v>
   <v>       0.00870383       0.01336596       0.00055320 </v>
   <v>       0.02672578       0.05894536      -0.00061785 </v>
   <v>      -0.01106055       0.00345140      -0.02344764 </v>
   <v>      -0.00245217       0.01020098       0.02441068 </v>
   <v>      -0.00155742       0.00733295      -0.00446172 </v>
   <v>      -0.00446883      -0.00892434      -0.00906691 </v>
   <v>       0.03373879       0.09180949      -0.00392532 </v>
   <v>       0.00485312       0.02799296       0.00024725 </v>
   <v>       0.00250941       0.00824753      -0.02686654 </v>
   <v>       0.00188054      -0.00251362       0.00062327 </v>
   <v>      -0.00465225       0.00661220       0.02516103 </v>
   <v>      -0.01836873       0.00370563      -0.00826903 </v>
   <v>       0.02474117      -0.05215237      -0.04010970 </v>
   <v>      -0.02232190      -0.07807814      -0.02104048 </v>
   <v>      -0.00112296      -0.01704616      -0.01287490 </v>
   <v>      -0.00168236       0.00851243       0.00259135 </v>
   <v>      -0.12234043       0.13296553       0.00764058 </v>
   <v>      -0.00077399       0.00804038      -0.01166927 </v>
   <v>      -0.00427814      -0.00808151      -0.00240003 </v>
   <v>      -0.00107904       0.00198700       0.01678046 </v>
   <v>       0.00008746      -0.00304148      -0.01035403 </v>
   <v>      -0.00361298      -0.01589161       0.01364051 </v>
   <v>      -0.02359640      -0.00032910      -0.01316522 </v>
   <v>      -0.00993548      -0.01095774       0.00909977 </v>
   <v>       0.00668646       0.00542564       0.01241589 </v>
   <v>      -0.00070959       0.00291728       0.00535961 </v>
   <v>      -0.00059998      -0.02058979      -0.02777762 </v>
   <v>      -0.00739711      -0.00631127      -0.02410311 </v>
   <v>      -0.00711170      -0.00250773      -0.00226161 </v>
   <v>       0.01127686       0.00088006       0.00659377 </v>
   <v>       0.00869405      -0.00304881       0.01179802 </v>
   <v>      -0.00151848      -0.00240123       0.00484405 </v>
   <v>      -0.01314704      -0.09319459      -0.02071198 </v>
   <v>       0.00091246      -0.00554230       0.01351399 </v>
   <v>       0.00676609      -0.00102376       0.01717123 </v>
   <v>      -0.00152656       0.00714753      -0.00154861 </v>
   <v>       0.00520216       0.00258799       0.00070011 </v>
   <v>       0.00511561      -0.01059614      -0.03402773 </v>
   <v>      -0.00219390       0.00122435       0.02159666 </v>
   <v>      -0.00424756       0.00244153       0.02441185 </v>
   <v>      -0.00313742       0.00303923       0.01311001 </v>
   <v>      -0.00646997      -0.01527431      -0.02041520 </v>
   <v>       0.02110891       0.04015999       0.04804401 </v>
   <v>      -0.00106703       0.00813054       0.02772450 </v>
   <v>       0.01110612       0.02868548      -0.03814453 </v>
   <v>       0.00110433      -0.01228508      -0.00636568 </v>
   <v>      -0.00675588      -0.00213672       0.00588750 </v>
   <v>       0.00835179       0.00424102      -0.00077061 </v>
   <v>      -0.00892773      -0.01626628       0.00076687 </v>
   <v>       0.00216017      -0.00084436       0.01249823 </v>
   <v>       0.00051042      -0.00712056       0.00392830 </v>
   <v>      -0.00061448       0.01418551      -0.00116922 </v>
   <v>       0.00137436      -0.01010893       0.01160459 </v>
   <v>       0.01060737       0.00300373       0.00227135 </v>
   <v>      -0.00152479       0.00454550       0.00875051 </v>
   <v>      -0.00631790       0.01358894      -0.01318920 </v>
   <v>      -0.07660616       0.05908901      -0.01497437 </v>
   <v>      -0.00909707       0.01588624      -0.00494146 </v>
   <v>      -0.01028163      -0.00213938       0.02991155 </v>
   <v>      -0.01563856       0.00722218      -0.01338498 </v>
   <v>      -0.01293412       0.01750567      -0.00559666 </v>
   <v>       0.00088516      -0.00459907      -0.03021699 </v>
   <v>       0.03193654       0.04736992      -0.00535524 </v>
   <v>      -0.00084128       0.00464222      -0.00970568 </v>
   <v>      -0.01015582       0.01317400      -0.01965882 </v>
   <v>      -0.00512966       0.01002945       0.00610475 </v>
   <v>       0.05772368      -0.01108443      -0.05931278 </v>
   <v>      -0.01088293       0.00349266       0.00845589 </v>
   <v>       0.01094275      -0.01227052       0.00990538 </v>
   <v>       0.01663414      -0.00573020      -0.00370122 </v>
   <v>      -0.00416488      -0.01832441       0.00940594 </v>
   <v>       0.00468981      -0.00437067      -0.02097779 </v>
   <v>      -0.01630532       0.00236898      -0.01338228 </v>
   <v>      -0.00215806      -0.01205271       0.00196993 </v>
   <v>       0.00708425      -0.00054996      -0.00964302 </v>
   <v>       0.00938336      -0.01337242       0.06483882 </v>
   <v>      -0.00047480      -0.01406176       0.00147479 </v>
   <v>      -0.00919562      -0.02106136      -0.03329803 </v>
   <v>       0.00656374      -0.01507493       0.01113973 </v>
  </varray>
  <varray name="stress" >
   <v>      -3.57370875       0.02042071       0.02607910 </v>
   <v>       0.02042140      -1.65372566      -2.78210464 </v>
   <v>       0.02607829      -2.78210484     -12.71249091 </v>
  </varray>
  <energy>
   <i name="e_fr_energy">  -2325.90261850 </i>
   <i name="e_wo_entrp">  -2323.12809762 </i>
   <i name="e_0_energy">     -5.54904176 </i>
  </energy>
  <time name="totalsc"> 2289.92 2289.88</time>
 </calculation>
 <calculation>
  <scstep>
   <time name="dav">  136.07  136.07</time>
   <time name="total">  142.01  142.00</time>
   <energy>
    <i name="alphaZ">  16277.55763135 </i>
    <i name="ewald"> 756795.65008434 </i>
    <i name="hartreedc">-943922.64392088 </i>
    <i name="XCdc">  -6673.39483976 </i>
    <i name="pawpsdc"> 201257.94818722 </i>
    <i name="pawaedc">-198814.97149440 </i>
    <i name="eentropy">     -5.54382908 </i>
    <i name="bandstr">   4262.32854908 </i>
    <i name="atom"> 168497.18126305 </i>
    <i name="e_fr_energy">  -2325.88836908 </i>
    <i name="e_wo_entrp">  -2320.34454001 </i>
    <i name="e_0_energy">  -2323.11645454 </i>
   </energy>
  </scstep>
  <scstep>
   <time name="diag">   29.87   29.87</time>
   <time name="diis">   47.74   47.74</time>
   <time name="orth">    9.30    9.30</time>
   <time name="total">   92.21   92.21</time>
   <energy>
    <i name="e_fr_energy">  -2337.41406186 </i>
    <i name="e_wo_entrp">  -2331.79553638 </i>
    <i name="e_0_energy">  -2334.60479912 </i>
   </energy>
  </scstep>
  <scstep>
   <time name="diag">   29.44   29.44</time>
   <time name="diis">   45.84   45.84</time>
   <time name="orth">    8.62    8.62</time>
   <time name="total">   89.92   89.92</time>
   <energy>
    <i name="e_fr_energy">  -2326.86262295 </i>
    <i name="e_wo_entrp">  -2321.29945858 </i>
    <i name="e_0_energy">  -2324.08104077 </i>
   </energy>
  </scstep>
  <scstep>
   <time name="diag">   30.22   30.22</time>
   <time name="diis">   44.79   44.79</time>
   <time name="orth">    9.25    9.25</time>
   <time name="total">   89.63   89.63</time>
   <energy>
    <i name="e_fr_energy">  -2326.34584707 </i>
    <i name="e_wo_entrp">  -2320.80813543 </i>
    <i name="e_0_energy">  -2323.57699125 </i>
   </energy>
  </scstep>
  <scstep>
   <time name="diag">   29.62   29.62</time>
   <time name="diis">   61.04   61.04</time>
   <time name="orth">    8.83    8.83</time>
   <time name="total">  105.06  105.06</time>
   <energy>
    <i name="e_fr_energy">  -2327.28131006 </i>
    <i name="e_wo_entrp">  -2321.73826810 </i>
    <i name="e_0_energy">  -2324.50978908 </i>
   </energy>
  </scstep>
  <scstep>
   <time name="diag">   29.70   29.69</time>
   <time name="diis">   44.82   44.82</time>
   <time name="orth">    8.97    8.97</time>
   <time name="total">   88.85   88.85</time>
   <energy>
    <i name="e_fr_energy">  -2326.24732609 </i>
    <i name="e_wo_entrp">  -2320.68363991 </i>
    <i name="e_0_energy">  -2323.46548300 </i>
   </energy>
  </scstep>
  <scstep>
   <time name="diag">   29.00   29.00</time>
   <time name="diis">   49.40   49.39</time>
   <time name="orth">    8.63    8.63</time