unknown system                          
            1
     9.726678    0.000000    0.000000
     0.000000    8.423550    0.000000
     0.000000    0.000000   45.000000
   Fe   Mn
 273  15
Direct configuration=     1
   0.81223774  0.04144629  0.61057459
   0.56311864  0.71177852  0.83288818
   0.18739760  0.45279055  0.34520580
   0.43724354  0.61819534  0.30056566
   0.93857086  0.12897304  0.78795433
   0.06265144  0.20340487  0.34527700
   0.43735681  0.95706147  0.56561792
   0.68715335  0.12459331  0.65482427
   0.31274526  0.04126314  0.61067157
   0.81339098  0.54761219  0.87504240
   0.81269669  0.03677426  0.38926841
   0.43740537  0.29135663  0.61066195
   0.68737564  0.28679843  0.38936935
   0.93980746  0.29672815  0.87550690
   0.68765952  0.28376053  0.25629469
   0.18666427  0.62432814  0.65489488
   0.68853973  0.79541233  0.87523782
   0.56252979  0.21210412  0.83324245
   0.93756121  0.62092619  0.43449231
   0.93834579  0.79606236  0.87504445
   0.18728855  0.12087996  0.43445813
   0.81223934  0.86776351  0.30051373
   0.81266963  0.54132908  0.61054650
   0.43744313  0.11553796  0.16695980
   0.81196608  0.69878346  0.21197390
   0.43689832  0.44880658  0.21197037
   0.56190402  0.04432548  0.74373295
   0.06175205  0.03145034  0.12484233
   0.18705041  0.94863925  0.21189690
   0.18743782  0.61794494  0.30058646
   0.31329112  0.37984674  0.78790743
   0.56215595  0.04189139  0.61061445
   0.81276553  0.70281283  0.34514323
   0.93753347  0.79056568  0.61060940
   0.31274324  0.37043867  0.43433647
   0.06181174  0.69875414  0.21196345
   0.18767176  0.28346624  0.25627087
   0.43732455  0.62071201  0.43438134
   0.93674351  0.62463041  0.65485306
   0.31194617  0.37489562  0.65479731
   0.31238667  0.54135742  0.61055525
   0.56412357  0.54685515  0.87525390
   0.06267953  0.70531789  0.47834304
   0.93719321  0.11755823  0.30060537
   0.43774593  0.45269712  0.34513100
   0.81249235  0.20679805  0.56571174
   0.31220023  0.54410680  0.74378022
   0.81212353  0.37461896  0.65480921
   0.93743120  0.12228497  0.52146751
   0.43761628  0.78375485  0.25626619
   0.06197527  0.37460239  0.65484552
   0.56247180  0.54157100  0.61053320
   0.68822310  0.95980123  0.69958448
   0.93725466  0.29459744  0.74375036
   0.68859186  0.62900450  0.78818201
   0.43756688  0.61566708  0.16705198
   0.68718238  0.79116806  0.61056990
   0.43697415  0.28111907  0.12476447
   0.81264877  0.03334952  0.25628649
   0.18824918  0.96298183  0.83303458
   0.31237511  0.87286263  0.52141307
   0.56390195  0.87829351  0.78799946
   0.93745173  0.12086848  0.43440999
   0.31215623  0.86788956  0.30049256
   0.43646290  0.12219491  0.52145268
   0.06292061  0.70982168  0.69957454
   0.43696057  0.78119131  0.12483602
   0.93747712  0.78678021  0.38934882
   0.06248837  0.71270296  0.83283821
   0.93678927  0.95618801  0.56557835
   0.31225106  0.03663892  0.38926980
   0.93769947  0.28360469  0.25627198
   0.18849178  0.62955331  0.78815174
   0.43739622  0.78717650  0.38936384
   0.31389244  0.54783251  0.87518044
   0.18701998  0.79447131  0.74382440
   0.56261395  0.86531499  0.16697667
   0.18728993  0.28106305  0.12480293
   0.06295426  0.04783176  0.87528783
   0.06227487  0.53685781  0.38934650
   0.06181634  0.53129101  0.12479729
   0.93684218  0.94877396  0.21194762
   0.81222556  0.36801051  0.30051655
   0.68792718  0.46257715  0.83317576
   0.06207353  0.20514072  0.47838493
   0.81250284  0.53697409  0.38928397
   0.68735911  0.78716313  0.38930215
   0.56211899  0.86831405  0.30043142
   0.81262250  0.53327269  0.25624766
   0.81210863  0.37071652  0.43421240
   0.43716032  0.62249804  0.52140644
   0.18743020  0.78683588  0.38935411
   0.18781217  0.12219388  0.52157886
   0.68769383  0.29623325  0.87531055
   0.93768119  0.95308919  0.34515909
   0.43700445  0.45560927  0.47837827
   0.93731639  0.95557532  0.47839080
   0.68734760  0.61540496  0.16701553
   0.06351849  0.37973831  0.78801360
   0.56277925  0.70270335  0.34514370
   0.56461300  0.04771499  0.87518244
   0.31276735  0.20290088  0.34516295
   0.18888469  0.12925012  0.78801067
   0.56238173  0.37307503  0.52137306
   0.06212896  0.54455094  0.74379824
   0.81187835  0.37223814  0.52143918
   0.56232673  0.36525215  0.16702922
   0.93695328  0.28162667  0.12480563
   0.43762231  0.28389042  0.25620519
   0.81208993  0.87518678  0.65489264
   0.68782044  0.45698551  0.56561448
   0.18761800  0.95294460  0.34520954
   0.43980476  0.29659832  0.87520437
   0.18748184  0.95553905  0.47854081
   0.68691198  0.62473575  0.65493436
   0.56243403  0.20954216  0.69945541
   0.68732712  0.62084804  0.43423457
   0.68754957  0.46042758  0.69939870
   0.06242860  0.53334607  0.25625891
   0.56270288  0.20310664  0.34524272
   0.06258464  0.03327644  0.25627315
   0.31308448  0.71268548  0.83317954
   0.68666109  0.44856222  0.21195965
   0.06177739  0.20680760  0.56561857
   0.06317793  0.87845636  0.78789565
   0.06185302  0.87512511  0.65489902
   0.31248508  0.86558735  0.16703235
   0.81265527  0.87099237  0.43421118
   0.06230177  0.86769187  0.30046193
   0.31269598  0.21165145  0.83312482
   0.56295466  0.53371121  0.25627360
   0.31222451  0.36783699  0.30046765
   0.93742158  0.79466549  0.74386094
   0.43759878  0.79142484  0.61061233
   0.68725630  0.11801007  0.30048943
   0.06234644  0.87090622  0.43420969
   0.56355402  0.37905192  0.78806092
   0.18760574  0.29679363  0.87549928
   0.81345914  0.87874719  0.78807657
   0.56189877  0.19840315  0.21189888
   0.68743815  0.79471174  0.74401238
   0.18761383  0.11563607  0.16697541
   0.43838981  0.62939173  0.78805739
   0.06271214  0.70266361  0.34516066
   0.56218900  0.69888294  0.21194260
   0.31261334  0.70259192  0.34519530
   0.93783485  0.46008091  0.69960213
   0.18761349  0.95998390  0.69947217
   0.06237301  0.54090640  0.61049148
   0.68766438  0.45553528  0.47839198
   0.43804974  0.45964483  0.69949812
   0.93773030  0.78293022  0.25617649
   0.81234398  0.71230528  0.83301233
   0.06239833  0.36569108  0.16697833
   0.56231960  0.87099446  0.43429881
   0.43759786  0.46263446  0.83307870
   0.81268470  0.36569018  0.16698451
   0.18640298  0.12467644  0.65489544
   0.56171694  0.37469253  0.65478567
   0.68680317  0.78151733  0.12488818
   0.81200693  0.70577891  0.47844440
   0.18750664  0.79058094  0.61056930
   0.43861235  0.79597217  0.87519472
   0.18718911  0.11777890  0.30055570
   0.43741216  0.95538760  0.47831068
   0.06256660  0.37066894  0.43428530
   0.68780061  0.96187592  0.83311371
   0.31214026  0.70509550  0.47833685
   0.31297957  0.71013705  0.69950385
   0.31145653  0.87475310  0.65483130
   0.06223786  0.37237561  0.52146677
   0.43746382  0.11825486  0.30052625
   0.18716344  0.46256484  0.83320093
   0.18691873  0.78140626  0.12484890
   0.43725395  0.12079979  0.43439923
   0.68725362  0.11555043  0.16700707
   0.68657536  0.28099773  0.12481881
   0.93689737  0.45640700  0.56553032
   0.06219146  0.36785310  0.30053074
   0.31246424  0.87083814  0.43430872
   0.06287996  0.20987764  0.69951399
   0.68785477  0.95288367  0.34512613
   0.18786650  0.45970973  0.69949477
   0.18766169  0.62058114  0.43423840
   0.31256558  0.36557146  0.16697057
   0.18781244  0.62234350  0.52150174
   0.31373052  0.87869247  0.78806053
   0.31274658  0.20975963  0.69947724
   0.93756990  0.29057551  0.61068944
   0.68710211  0.61820981  0.30058800
   0.81185424  0.19858959  0.21196947
   0.56242686  0.37091002  0.43434451
   0.56219815  0.54401033  0.74383427
   0.18729253  0.28685385  0.38941179
   0.56233460  0.53705492  0.38920741
   0.93755568  0.11543732  0.16705695
   0.31273094  0.37234956  0.52139705
   0.93722266  0.61788827  0.30050590
   0.31240786  0.70681163  0.56546346
   0.81258153  0.86559205  0.16705797
   0.43760304  0.95999227  0.69955368
   0.56194906  0.20747474  0.56529494
   0.93751476  0.28698882  0.38933142
   0.31191360  0.04452989  0.74389547
   0.06194142  0.70661818  0.56559167
   0.43728636  0.45722438  0.56562861
   0.68764710  0.78315053  0.25620566
   0.06384237  0.54675412  0.87515862
   0.56194203  0.70714528  0.56549200
   0.06222838  0.86546401  0.16697167
   0.56240232  0.87227340  0.52137350
   0.18919387  0.79556601  0.87515598
   0.56192620  0.03123875  0.12481522
   0.56235091  0.03686409  0.38938992
   0.81192045  0.54461797  0.74374668
   0.93743454  0.45492113  0.47841724
   0.81380509  0.37838136  0.78813340
   0.93861668  0.62907176  0.78820139
   0.56277099  0.03342228  0.25627169
   0.81210883  0.03139954  0.12486115
   0.81256324  0.70671169  0.56550358
   0.31223901  0.20537247  0.47840777
   0.81253416  0.87266839  0.52143038
   0.18677545  0.29434741  0.74384103
   0.93751588  0.61512007  0.16693116
   0.68750571  0.12228595  0.52142732
   0.81227364  0.04442362  0.74386233
   0.06218470  0.19863536  0.21195886
   0.56177438  0.53139352  0.12487140
   0.06237180  0.04093168  0.61071251
   0.43711106  0.94865165  0.21189881
   0.06185544  0.87302701  0.52144266
   0.93682169  0.12573188  0.65493610
   0.31274632  0.53363111  0.25625755
   0.43678633  0.12536099  0.65489179
   0.81366227  0.04677087  0.87526358
   0.68712110  0.29423491  0.74385646
   0.31190453  0.19844728  0.21193575
   0.18763547  0.78352734  0.25623525
   0.81296136  0.20986278  0.69953464
   0.18728856  0.29072957  0.61057248
   0.68718385  0.95502618  0.47845935
   0.93796819  0.95941544  0.69948911
   0.68781595  0.12109618  0.43440768
   0.93772419  0.45303666  0.34515100
   0.31252069  0.53674636  0.38926060
   0.43835612  0.12937848  0.78811343
   0.93714514  0.78218152  0.12482829
   0.81212939  0.53108261  0.12482237
   0.31207734  0.53118671  0.12490512
   0.43689204  0.79449305  0.74375818
   0.68686246  0.62260326  0.52144225
   0.31193337  0.03117440  0.12482468
   0.56262021  0.70542649  0.47839075
   0.31185026  0.69914313  0.21199545
   0.31250140  0.20754362  0.56571853
   0.68745032  0.29128884  0.61056173
   0.93760183  0.96285444  0.83311300
   0.56252387  0.71013352  0.69959985
   0.18720317  0.44876187  0.21196504
   0.06226493  0.03676060  0.38934023
   0.68682114  0.94859635  0.21192122
   0.43739315  0.96190903  0.83322020
   0.18746457  0.61574599  0.16702980
   0.43745817  0.28665664  0.38931157
   0.81291355  0.20572105  0.47837852
   0.56243086  0.36813710  0.30051638
   0.81235016  0.21181579  0.83305320
   0.68795985  0.45302214  0.34517002
   0.93840697  0.46166487  0.83307075
   0.06244718  0.04446251  0.74373606
   0.18736329  0.45584786  0.47852442
   0.81265966  0.20329334  0.34518185
   0.43775119  0.95292982  0.34525533
   0.18655729  0.45673227  0.56551871
   0.93742688  0.62239267  0.52138347
   0.18730849  0.95660994  0.56558971
   0.81304439  0.71008547  0.69935432
   0.31364772  0.04650209  0.87489421
   0.43657242  0.62414846  0.65479501
   0.68851648  0.12954344  0.78783480
   0.06331829  0.21274590  0.83383996
   0.68711396  0.95638297  0.56572864
   0.31279002  0.03357823  0.25622335
   0.56226698  0.20566409  0.47842170
   0.93685751  0.44847999  0.21217460
   0.43724598  0.29399417  0.74405991
   0.56252931  0.87510627  0.65473198
Direct configuration=     2
   0.81220621  0.04143417  0.61056487
   0.56314331  0.71181539  0.83287190
   0.18736101  0.45275458  0.34521610
   0.43724857  0.61819180  0.30057607
   0.93853685  0.12888255  0.78794724
   0.06262261  0.20335055  0.34528592
   0.43738583  0.95702525  0.56561385
   0.68719848  0.12460187  0.65480773
   0.31272297  0.04126060  0.61066063
   0.81334305  0.54748886  0.87506321
   0.81269214  0.03677304  0.38927901
   0.43737219  0.29134637  0.61065016
   0.68738400  0.28679238  0.38938245
   0.93977097  0.29670562  0.87549750
   0.68763878  0.28375020  0.25629015
   0.18671509  0.62437872  0.65488046
   0.68849893  0.79542249  0.87522880
   0.56257302  0.21210784  0.83321954
   0.93752721  0.62093955  0.43450411
   0.93833210  0.79607499  0.87504460
   0.18727805  0.12093971  0.43445758
   0.81225760  0.86777290  0.30052460
   0.81264352  0.54131000  0.61053987
   0.43742390  0.11551281  0.16698208
   0.81198385  0.69882881  0.21197566
   0.43693128  0.44886288  0.21197516
   0.56201071  0.04432274  0.74373991
   0.06177174  0.03149596  0.12484637
   0.18709393  0.94870196  0.21190612
   0.18744017  0.61795377  0.30060154
   0.31325973  0.37981182  0.78790927
   0.56213836  0.04187844  0.61060178
   0.81273660  0.70277285  0.34515864
   0.93751197  0.79057907  0.61059896
   0.31273340  0.37046673  0.43433855
   0.06185272  0.69880374  0.21196781
   0.18761250  0.28345692  0.25626768
   0.43735649  0.62072375  0.43438305
   0.93676735  0.62466901  0.65484246
   0.31195591  0.37495093  0.65478475
   0.31236241  0.54135350  0.61054406
   0.56408810  0.54673659  0.87526226
   0.06264541  0.70531000  0.47835290
   0.93722711  0.11756978  0.30062487
   0.43771756  0.45266723  0.34514832
   0.81252545  0.20677103  0.56570497
   0.31223539  0.54410750  0.74378261
   0.81218121  0.37469765  0.65479695
   0.93733996  0.12231535  0.52149388
   0.43759588  0.78376133  0.25626404
   0.06202748  0.37465365  0.65482666
   0.56242414  0.54156513  0.61052433
   0.68816851  0.95981800  0.69956131
   0.93730845  0.29457221  0.74375550
   0.68855371  0.62889686  0.78817208
   0.43754632  0.61563249  0.16707220
   0.68714880  0.79114760  0.61056557
   0.43700395  0.28117844  0.12477470
   0.81263199  0.03335087  0.25628557
   0.18831793  0.96308040  0.83300938
   0.31237305  0.87274864  0.52141420
   0.56384733  0.87832684  0.78799987
   0.93743169  0.12089819  0.43439964
   0.31217437  0.86789305  0.30051120
   0.43672894  0.12226783  0.52146545
   0.06290985  0.70980333  0.69955366
   0.43699797  0.78123083  0.12484850
   0.93747223  0.78678401  0.38935696
   0.06254629  0.71275965  0.83282721
   0.93679597  0.95618750  0.56557540
   0.31225452  0.03665173  0.38928349
   0.93767763  0.28360640  0.25627150
   0.18844002  0.62945820  0.78814303
   0.43740780  0.78716803  0.38937986
   0.31383985  0.54768481  0.87519154
   0.18704128  0.79447143  0.74382514
   0.56259219  0.86527197  0.16699539
   0.18730941  0.28111966  0.12480862
   0.06290704  0.04770301  0.87529599
   0.06227300  0.53685813  0.38935668
   0.06182631  0.53133638  0.12480452
   0.93687822  0.94883202  0.21195176
   0.81225593  0.36799609  0.30053389
   0.68795693  0.46262363  0.83314316
   0.06222908  0.20510822  0.47837906
   0.81250329  0.53696382  0.38929720
   0.68737346  0.78715275  0.38931334
   0.56212804  0.86831877  0.30044871
   0.81261789  0.53328129  0.25624682
   0.81210250  0.37075418  0.43421531
   0.43718368  0.62257322  0.52141923
   0.18743272  0.78682913  0.38936561
   0.18772361  0.12245354  0.52158720
   0.68769449  0.29623445  0.87530738
   0.93765318  0.95306693  0.34517382
   0.43705588  0.45556745  0.47836167
   0.93726224  0.95545271  0.47838367
   0.68733840  0.61536876  0.16703594
   0.06345955  0.37971773  0.78801426
   0.56277542  0.70267713  0.34515878
   0.56457459  0.04759140  0.87519695
   0.31271716  0.20284962  0.34517312
   0.18883376  0.12917639  0.78800807
   0.56236551  0.37299274  0.52138570
   0.06217813  0.54456525  0.74379791
   0.81187043  0.37232496  0.52144755
   0.56233217  0.36525496  0.16704765
   0.93696580  0.28166866  0.12481228
   0.43760768  0.28386091  0.25620016
   0.81212100  0.87521782  0.65487395
   0.68779654  0.45696585  0.56560749
   0.18759017  0.95292287  0.34522352
   0.43975988  0.29659571  0.87520372
   0.18747651  0.95535933  0.47852246
   0.68696955  0.62476244  0.65491755
   0.56240211  0.20954161  0.69943624
   0.68731200  0.62087016  0.43423764
   0.68749966  0.46042618  0.69937848
   0.06237195  0.53335098  0.25625909
   0.56271426  0.20305401  0.34525363
   0.06253805  0.03328508  0.25627459
   0.31313988  0.71273648  0.83315295
   0.68668877  0.44860699  0.21195968
   0.06179963  0.20679492  0.56561070
   0.06312667  0.87847671  0.78790255
   0.06190485  0.87516595  0.65488373
   0.31246173  0.86553411  0.16705283
   0.81262894  0.87105911  0.43421287
   0.06232950  0.86770246  0.30047232
   0.31275826  0.21161437  0.83310909
   0.56293262  0.53370925  0.25627435
   0.31222489  0.36784027  0.30048226
   0.93745210  0.79464635  0.74385730
   0.43757166  0.79139929  0.61060348
   0.68726686  0.11801851  0.30050910
   0.06236195  0.87097082  0.43421232
   0.56347090  0.37899925  0.78805901
   0.18755733  0.29678297  0.87548605
   0.81343670  0.87875802  0.78807545
   0.56192471  0.19845436  0.21190344
   0.68751213  0.79469571  0.74400818
   0.18757561  0.11560270  0.16699935
   0.43832483  0.62927580  0.78805128
   0.06269631  0.70262875  0.34517434
   0.56221923  0.69893284  0.21194381
   0.31257383  0.70255835  0.34520565
   0.93781646  0.46008219  0.69957703
   0.18760355  0.96001494  0.69945395
   0.06237003  0.54089350  0.61048213
   0.68774874  0.45552133  0.47838425
   0.43800617  0.45967024  0.69947727
   0.93770356  0.78296268  0.25618239
   0.81236385  0.71231792  0.83298941
   0.06235849  0.36566859  0.16699581
   0.56231403  0.87104111  0.43430071
   0.43763537  0.46267331  0.83304769
   0.81266458  0.36566963  0.16700189
   0.18644771  0.12471043  0.65487536
   0.56178068  0.37476053  0.65476904
   0.68682378  0.78154800  0.12489699
   0.81212547  0.70562013  0.47843443
   0.18751248  0.79057764  0.61056394
   0.43858965  0.79595233  0.87518766
   0.18720860  0.11779036  0.30057223
   0.43742966  0.95527930  0.47830791
   0.06256622  0.37069181  0.43428072
   0.68783676  0.96193372  0.83307833
   0.31213108  0.70519491  0.47833287
   0.31295088  0.71012525  0.69947817
   0.31150010  0.87478783  0.65481691
   0.06233008  0.37239639  0.52147870
   0.43747034  0.11825601  0.30054086
   0.18722075  0.46259877  0.83317340
   0.18693876  0.78143920  0.12485787
   0.43727303  0.12083022  0.43439757
   0.68724628  0.11551906  0.16703041
   0.68660250  0.28105760  0.12482564
   0.93690354  0.45637293  0.56552402
   0.06220146  0.36784816  0.30054828
   0.31246803  0.87086920  0.43431609
   0.06286265  0.20984678  0.69949165
   0.68784882  0.95286744  0.34514352
   0.18785383  0.45973667  0.69947781
   0.18766436  0.62062952  0.43423540
   0.31251691  0.36557136  0.16698803
   0.18771713  0.62249611  0.52152062
   0.31365827  0.87870345  0.78806868
   0.31270956  0.20973315  0.69945713
   0.93756540  0.29057174  0.61068131
   0.68713051  0.61822223  0.30060399
   0.81186866  0.19865836  0.21197389
   0.56242590  0.37096839  0.43434276
   0.56226247  0.54402503  0.74383893
   0.18729717  0.28683484  0.38942383
   0.56234925  0.53705970  0.38922086
   0.93752418  0.11539689  0.16707845
   0.31264697  0.37229721  0.52140688
   0.93724620  0.61790265  0.30052140
   0.31242531  0.70678553  0.56545857
   0.81255384  0.86556709  0.16707793
   0.43757604  0.95999447  0.69952948
   0.56194490  0.20744606  0.56527685
   0.93751498  0.28697943  0.38934177
   0.31195654  0.04451243  0.74389245
   0.06197694  0.70661356  0.56558242
   0.43731049  0.45719993  0.56562940
   0.68763145  0.78316227  0.25620499
   0.06380289  0.54662093  0.87516518
   0.56191308  0.70710720  0.56549397
   0.06220338  0.86543449  0.16699238
   0.56233778  0.87248623  0.52137974
   0.18912639  0.79556579  0.87514460
   0.56195765  0.03128484  0.12481998
   0.56236891  0.03688487  0.38940394
   0.81199491  0.54462739  0.74375112
   0.93731408  0.45501786  0.47840898
   0.81377073  0.37836136  0.78813398
   0.93858191  0.62899327  0.78819288
   0.56274513  0.03343716  0.25626842
   0.81213305  0.03144613  0.12486537
   0.81257464  0.70667411  0.56550189
   0.31216942  0.20542161  0.47839476
   0.81252336  0.87281069  0.52143409
   0.18682456  0.29433890  0.74383896
   0.93748350  0.61509122  0.16695293
   0.68739695  0.12234523  0.52143562
   0.81229642  0.04440971  0.74386772
   0.06222386  0.19869814  0.21196292
   0.56181290  0.53143719  0.12487785
   0.06236038  0.04092621  0.61070560
   0.43711895  0.94871243  0.21190912
   0.06192364  0.87295039  0.52144351
   0.93688018  0.12576595  0.65491806
   0.31270446  0.53364006  0.25625928
   0.43679634  0.12535673  0.65487806
   0.81363965  0.04670534  0.87526915
   0.68719521  0.29420803  0.74385642
   0.31192524  0.19849370  0.21194024
   0.18758153  0.78353387  0.25623496
   0.81291112  0.20984400  0.69950968
   0.18726907  0.29071363  0.61056395
   0.68722978  0.95499467  0.47845695
   0.93794409  0.95943663  0.69946994
   0.68781965  0.12112524  0.43440606
   0.93769997  0.45298707  0.34516581
   0.31253109  0.53673945  0.38927621
   0.43828050  0.12930659  0.78810890
   0.93715759  0.78220167  0.12483989
   0.81214851  0.53113195  0.12482764
   0.31210269  0.53122707  0.12491143
   0.43696870  0.79447892  0.74375314
   0.68690762  0.62257109  0.52145854
   0.31196033  0.03122380  0.12482897
   0.56254378  0.70534490  0.47837910
   0.31186928  0.69918485  0.21199523
   0.31250131  0.20752877  0.56571392
   0.68744327  0.29125019  0.61055011
   0.93765702  0.96291823  0.83308038
   0.56244719  0.71012810  0.69957308
   0.18723335  0.44881196  0.21196821
   0.06227281  0.03678152  0.38935355
   0.68684427  0.94865436  0.21192496
   0.43738981  0.96199258  0.83319302
   0.18743036  0.61570216  0.16705084
   0.43746920  0.28665654  0.38932892
   0.81287984  0.20563755  0.47837090
   0.56244515  0.36812975  0.30052997
   0.81241342  0.21184111  0.83304171
   0.68796326  0.45298424  0.34518624
   0.93843877  0.46170662  0.83303855
   0.06248861  0.04445871  0.74373503
   0.18734522  0.45566062  0.47851968
   0.81264786  0.20323241  0.34519338
   0.43771569  0.95290102  0.34526555
   0.18657974  0.45670071  0.56551746
   0.93745282  0.62239567  0.52137819
   0.18731410  0.95659365  0.56559398
   0.81297925  0.71006427  0.69933347
   0.31360053  0.04645709  0.87489478
   0.43662809  0.62421399  0.65478212
   0.68847523  0.12946506  0.78782507
   0.06334352  0.21272091  0.83382315
   0.68712737  0.95639638  0.56572099
   0.31274267  0.03357327  0.25621753
   0.56221266  0.20557384  0.47843857
   0.93689015  0.44854649  0.21217520
   0.43732121  0.29398241  0.74405639
   0.56260401  0.87514572  0.65471734
Direct configuration=     3
   0.81211162  0.04139781  0.61053572
   0.56321731  0.71192597  0.83282306
   0.18725121  0.45264666  0.34524700
   0.43726367  0.61818118  0.30060732
   0.93843482  0.12861105  0.78792596
   0.06253611  0.20318759  0.34531269
   0.43747290  0.95691658  0.56560165
   0.68733387  0.12462756  0.65475809
   0.31265613  0.04125296  0.61062784
   0.81319924  0.54711885  0.87512562
   0.81267851  0.03676937  0.38931080
   0.43727264  0.29131557  0.61061480
   0.68740907  0.28677423  0.38942176
   0.93966151  0.29663800  0.87546931
   0.68757656  0.28371920  0.25627654
   0.18686754  0.62453048  0.65483717
   0.68837654  0.79545297  0.87520174
   0.56270274  0.21211899  0.83315079
   0.93742521  0.62097963  0.43453949
   0.93829104  0.79611287  0.87504506
   0.18724655  0.12111898  0.43445596
   0.81231238  0.86780107  0.30055723
   0.81256518  0.54125278  0.61051995
   0.43736623  0.11543736  0.16704893
   0.81203713  0.69896487  0.21198095
   0.43703017  0.44903178  0.21198955
   0.56233081  0.04431452  0.74376079
   0.06183080  0.03163281  0.12485848
   0.18722447  0.94889006  0.21193380
   0.18744724  0.61798028  0.30064676
   0.31316554  0.37970705  0.78791478
   0.56208561  0.04183961  0.61056378
   0.81264983  0.70265290  0.34520486
   0.93744747  0.79061923  0.61056763
   0.31270389  0.37055090  0.43434480
   0.06197568  0.69895255  0.21198089
   0.18743471  0.28342897  0.25625812
   0.43745229  0.62075899  0.43438818
   0.93683889  0.62478480  0.65481069
   0.31198514  0.37511686  0.65474709
   0.31228966  0.54134175  0.61051050
   0.56398166  0.54638091  0.87528734
   0.06254305  0.70528632  0.47838250
   0.93732880  0.11760445  0.30068336
   0.43763245  0.45257756  0.34520026
   0.81262476  0.20668997  0.56568467
   0.31234088  0.54410957  0.74378977
   0.81235428  0.37493372  0.65476015
   0.93706623  0.12240647  0.52157298
   0.43753467  0.78378077  0.25625760
   0.06218411  0.37480744  0.65477006
   0.56228116  0.54154751  0.61049773
   0.68800476  0.95986831  0.69949177
   0.93746983  0.29449652  0.74377093
   0.68843925  0.62857395  0.78814228
   0.43748464  0.61552873  0.16713285
   0.68704806  0.79108622  0.61055257
   0.43709335  0.28135654  0.12480539
   0.81258162  0.03335492  0.25628281
   0.18852420  0.96337610  0.83293377
   0.31236687  0.87240666  0.52141762
   0.56368346  0.87842685  0.78800110
   0.93737157  0.12098732  0.43436859
   0.31222880  0.86790350  0.30056712
   0.43752707  0.12248658  0.52150376
   0.06287760  0.70974829  0.69949102
   0.43711019  0.78134938  0.12488596
   0.93745759  0.78679543  0.38938138
   0.06272003  0.71292972  0.83279421
   0.93681604  0.95618596  0.56556656
   0.31226488  0.03669017  0.38932456
   0.93761211  0.28361154  0.25627009
   0.18828474  0.62917286  0.78811688
   0.43744253  0.78714261  0.38942791
   0.31368207  0.54724172  0.87522484
   0.18710516  0.79447177  0.74382735
   0.56252689  0.86514292  0.16705153
   0.18736787  0.28128951  0.12482569
   0.06276536  0.04731675  0.87532046
   0.06226738  0.53685911  0.38938724
   0.06185621  0.53147248  0.12482623
   0.93698635  0.94900622  0.21196418
   0.81234704  0.36795282  0.30058592
   0.68804617  0.46276308  0.83304535
   0.06269570  0.20501073  0.47836146
   0.81250465  0.53693302  0.38933690
   0.68741651  0.78712161  0.38934691
   0.56215518  0.86833294  0.30050057
   0.81260405  0.53330709  0.25624433
   0.81208408  0.37086718  0.43422402
   0.43725375  0.62279875  0.52145758
   0.18744029  0.78680891  0.38940013
   0.18745794  0.12323252  0.52161222
   0.68769650  0.29623804  0.87529787
   0.93756914  0.95300014  0.34521802
   0.43721018  0.45544199  0.47831188
   0.93709980  0.95508486  0.47836227
   0.68731080  0.61526019  0.16709718
   0.06328272  0.37965600  0.78801626
   0.56276392  0.70259845  0.34520399
   0.56445938  0.04722065  0.87524048
   0.31256659  0.20269581  0.34520362
   0.18868097  0.12895521  0.78800027
   0.56231687  0.37274586  0.52142362
   0.06232564  0.54460818  0.74379693
   0.81184668  0.37258543  0.52147268
   0.56234849  0.36526339  0.16710293
   0.93700335  0.28179464  0.12483226
   0.43756380  0.28377235  0.25618508
   0.81221419  0.87531095  0.65481788
   0.68772484  0.45690689  0.56558652
   0.18750667  0.95285770  0.34526544
   0.43962523  0.29658787  0.87520176
   0.18746052  0.95482018  0.47846742
   0.68714226  0.62484249  0.65486714
   0.56230633  0.20953996  0.69937871
   0.68726664  0.62093652  0.43424684
   0.68734996  0.46042197  0.69931782
   0.06220200  0.53336570  0.25625964
   0.56274840  0.20289611  0.34528636
   0.06239827  0.03331100  0.25627890
   0.31330607  0.71288949  0.83307317
   0.68677183  0.44874129  0.21195977
   0.06186636  0.20675690  0.56558707
   0.06297290  0.87853776  0.78792325
   0.06206033  0.87528847  0.65483785
   0.31239167  0.86537438  0.16711426
   0.81254998  0.87125931  0.43421796
   0.06241272  0.86773423  0.30050348
   0.31294507  0.21150311  0.83306189
   0.56286651  0.53370339  0.25627659
   0.31222604  0.36785012  0.30052608
   0.93754367  0.79458893  0.74384636
   0.43749029  0.79132263  0.61057694
   0.68729856  0.11804382  0.30056809
   0.06240846  0.87116464  0.43422022
   0.56322154  0.37884126  0.78805327
   0.18741209  0.29675099  0.87544637
   0.81336941  0.87879050  0.78807212
   0.56200252  0.19860797  0.21191711
   0.68773408  0.79464762  0.74399560
   0.18746095  0.11550260  0.16707119
   0.43812990  0.62892801  0.78803294
   0.06264884  0.70252419  0.34521536
   0.56230994  0.69908257  0.21194743
   0.31245531  0.70245766  0.34523668
   0.93776130  0.46008604  0.69950172
   0.18757373  0.96010807  0.69939928
   0.06236108  0.54085479  0.61045407
   0.68800183  0.45547945  0.47836105
   0.43787547  0.45974649  0.69941473
   0.93762334  0.78306005  0.25620009
   0.81242345  0.71235583  0.83292067
   0.06223899  0.36560111  0.16704825
   0.56229730  0.87118103  0.43430640
   0.43774790  0.46278985  0.83295467
   0.81260425  0.36560796  0.16705403
   0.18658189  0.12481242  0.65481512
   0.56197189  0.37496453  0.65471916
   0.68688562  0.78164004  0.12492344
   0.81248106  0.70514381  0.47840453
   0.18753002  0.79056774  0.61054786
   0.43852153  0.79589280  0.87516645
   0.18726709  0.11782473  0.30062182
   0.43748214  0.95495440  0.47829961
   0.06256509  0.37076039  0.43426699
   0.68794522  0.96210714  0.83297217
   0.31210354  0.70549317  0.47832093
   0.31286482  0.71008984  0.69940114
   0.31163080  0.87489203  0.65477377
   0.06260673  0.37245871  0.52151451
   0.43748992  0.11825947  0.30058470
   0.18739269  0.46270057  0.83309079
   0.18699885  0.78153802  0.12488478
   0.43733026  0.12092151  0.43439258
   0.68722425  0.11542495  0.16710041
   0.68668392  0.28123721  0.12484612
   0.93692206  0.45627074  0.56550512
   0.06223145  0.36783334  0.30060092
   0.31247941  0.87096240  0.43433819
   0.06281073  0.20975420  0.69942462
   0.68783100  0.95281877  0.34519570
   0.18781582  0.45981750  0.69942695
   0.18767236  0.62077467  0.43422640
   0.31237092  0.36557107  0.16704041
   0.18743121  0.62295394  0.52157726
   0.31344150  0.87873640  0.78809313
   0.31259848  0.20965372  0.69939681
   0.93755192  0.29056044  0.61065694
   0.68721569  0.61825946  0.30065199
   0.81191193  0.19886466  0.21198716
   0.56242303  0.37114350  0.43433754
   0.56245544  0.54406916  0.74385290
   0.18731109  0.28677782  0.38945993
   0.56239320  0.53707402  0.38926118
   0.93742968  0.11527561  0.16714294
   0.31239504  0.37214017  0.52143637
   0.93731679  0.61794581  0.30056788
   0.31247767  0.70670723  0.56544391
   0.81247079  0.86549221  0.16713779
   0.43749504  0.96000107  0.69945689
   0.56193241  0.20736004  0.56522258
   0.93751565  0.28695129  0.38937283
   0.31208534  0.04446005  0.74388338
   0.06208348  0.70659970  0.56555465
   0.43738290  0.45712658  0.56563178