 288 288   0   0
  0.1280206E+02  0.9726678E-09  0.8423550E-09  0.4500000E-08  0.2500000E-15
  1.000000000000000E-004
  CAR 
 unknown system                          
      6.81766048     -6.02426030  301      4.29300733      1.00000000
     -6.024  0.0000E+00  0.0000E+00
     -5.981  0.0000E+00  0.0000E+00
     -5.939  0.0000E+00  0.0000E+00
     -5.896  0.0000E+00  0.0000E+00
     -5.853  0.0000E+00  0.0000E+00
     -5.810  0.0000E+00  0.0000E+00
     -5.767  0.0000E+00  0.0000E+00
     -5.725  0.0000E+00  0.0000E+00
     -5.682  0.0000E+00  0.0000E+00
     -5.639  0.0000E+00  0.0000E+00
     -5.596  0.0000E+00  0.0000E+00
     -5.553  0.0000E+00  0.0000E+00
     -5.511  0.0000E+00  0.0000E+00
     -5.468  0.0000E+00  0.0000E+00
     -5.425  0.0000E+00  0.0000E+00
     -5.382  0.1621E-15  0.6939E-17
     -5.339  0.4312E-14  0.1915E-15
     -5.297  0.9240E-13  0.4147E-14
     -5.254  0.1687E-11  0.7637E-13
     -5.211  0.2623E-10  0.1199E-11
     -5.168  0.3473E-09  0.1606E-10
     -5.125  0.3917E-08  0.1837E-09
     -5.083  0.3765E-07  0.1795E-08
     -5.040  0.3086E-06  0.1501E-07
     -4.997  0.2159E-05  0.1074E-06
     -4.954  0.1291E-04  0.6602E-06
     -4.911  0.6609E-04  0.3489E-05
     -4.868  0.2903E-03  0.1592E-04
     -4.826  0.1098E-02  0.6293E-04
     -4.783  0.3594E-02  0.2168E-03
     -4.740  0.1024E-01  0.6553E-03
     -4.697  0.2564E-01  0.1753E-02
     -4.654  0.5690E-01  0.4188E-02
     -4.612  0.1133E+00  0.9038E-02
     -4.569  0.2046E+00  0.1780E-01
     -4.526  0.3387E+00  0.3229E-01
     -4.483  0.5180E+00  0.5447E-01
     -4.440  0.7364E+00  0.8599E-01
     -4.398  0.9781E+00  0.1279E+00
     -4.355  0.1219E+01  0.1800E+00
     -4.312  0.1434E+01  0.2414E+00
     -4.269  0.1601E+01  0.3099E+00
     -4.226  0.1713E+01  0.3833E+00
     -4.184  0.1783E+01  0.4596E+00
     -4.141  0.1837E+01  0.5382E+00
     -4.098  0.1915E+01  0.6202E+00
     -4.055  0.2048E+01  0.7078E+00
     -4.012  0.2250E+01  0.8042E+00
     -3.970  0.2505E+01  0.9114E+00
     -3.927  0.2774E+01  0.1030E+01
     -3.884  0.3005E+01  0.1159E+01
     -3.841  0.3153E+01  0.1294E+01
     -3.798  0.3198E+01  0.1431E+01
     -3.756  0.3159E+01  0.1566E+01
     -3.713  0.3084E+01  0.1698E+01
     -3.670  0.3034E+01  0.1828E+01
     -3.627  0.3062E+01  0.1959E+01
     -3.584  0.3188E+01  0.2095E+01
     -3.541  0.3395E+01  0.2241E+01
     -3.499  0.3635E+01  0.2396E+01
     -3.456  0.3856E+01  0.2561E+01
     -3.413  0.4017E+01  0.2733E+01
     -3.370  0.4108E+01  0.2909E+01
     -3.327  0.4143E+01  0.3086E+01
     -3.285  0.4149E+01  0.3264E+01
     -3.242  0.4161E+01  0.3442E+01
     -3.199  0.4207E+01  0.3622E+01
     -3.156  0.4303E+01  0.3806E+01
     -3.113  0.4449E+01  0.3997E+01
     -3.071  0.4635E+01  0.4195E+01
     -3.028  0.4838E+01  0.4402E+01
     -2.985  0.5028E+01  0.4618E+01
     -2.942  0.5179E+01  0.4839E+01
     -2.899  0.5279E+01  0.5065E+01
     -2.857  0.5337E+01  0.5294E+01
     -2.814  0.5384E+01  0.5524E+01
     -2.771  0.5452E+01  0.5758E+01
     -2.728  0.5558E+01  0.5995E+01
     -2.685  0.5677E+01  0.6238E+01
     -2.643  0.5746E+01  0.6484E+01
     -2.600  0.5706E+01  0.6729E+01
     -2.557  0.5562E+01  0.6967E+01
     -2.514  0.5401E+01  0.7198E+01
     -2.471  0.5367E+01  0.7428E+01
     -2.429  0.5581E+01  0.7667E+01
     -2.386  0.6064E+01  0.7926E+01
     -2.343  0.6700E+01  0.8213E+01
     -2.300  0.7286E+01  0.8525E+01
     -2.257  0.7620E+01  0.8851E+01
     -2.214  0.7610E+01  0.9177E+01
     -2.172  0.7326E+01  0.9490E+01
     -2.129  0.6967E+01  0.9789E+01
     -2.086  0.6764E+01  0.1008E+02
     -2.043  0.6864E+01  0.1037E+02
     -2.000  0.7268E+01  0.1068E+02
     -1.958  0.7844E+01  0.1102E+02
     -1.915  0.8397E+01  0.1138E+02
     -1.872  0.8763E+01  0.1175E+02
     -1.829  0.8883E+01  0.1213E+02
     -1.786  0.8822E+01  0.1251E+02
     -1.744  0.8715E+01  0.1288E+02
     -1.701  0.8688E+01  0.1326E+02
     -1.658  0.8788E+01  0.1363E+02
     -1.615  0.8991E+01  0.1402E+02
     -1.572  0.9246E+01  0.1441E+02
     -1.530  0.9520E+01  0.1482E+02
     -1.487  0.9806E+01  0.1524E+02
     -1.444  0.1009E+02  0.1567E+02
     -1.401  0.1033E+02  0.1611E+02
     -1.358  0.1047E+02  0.1656E+02
     -1.316  0.1055E+02  0.1701E+02
     -1.273  0.1070E+02  0.1747E+02
     -1.230  0.1115E+02  0.1795E+02
     -1.187  0.1202E+02  0.1846E+02
     -1.144  0.1322E+02  0.1903E+02
     -1.102  0.1443E+02  0.1965E+02
     -1.059  0.1529E+02  0.2030E+02
     -1.016  0.1562E+02  0.2097E+02
     -0.973  0.1557E+02  0.2164E+02
     -0.930  0.1554E+02  0.2230E+02
     -0.887  0.1593E+02  0.2298E+02
     -0.845  0.1695E+02  0.2371E+02
     -0.802  0.1855E+02  0.2450E+02
     -0.759  0.2064E+02  0.2539E+02
     -0.716  0.2323E+02  0.2638E+02
     -0.673  0.2650E+02  0.2752E+02
     -0.631  0.3062E+02  0.2883E+02
     -0.588  0.3541E+02  0.3034E+02
     -0.545  0.4035E+02  0.3207E+02
     -0.502  0.4475E+02  0.3399E+02
     -0.459  0.4820E+02  0.3605E+02
     -0.417  0.5070E+02  0.3822E+02
     -0.374  0.5258E+02  0.4047E+02
     -0.331  0.5412E+02  0.4279E+02
     -0.288  0.5543E+02  0.4516E+02
     -0.245  0.5642E+02  0.4757E+02
     -0.203  0.5695E+02  0.5001E+02
     -0.160  0.5707E+02  0.5246E+02
     -0.117  0.5694E+02  0.5489E+02
     -0.074  0.5684E+02  0.5733E+02
     -0.031  0.5707E+02  0.5977E+02
      0.011  0.5787E+02  0.6225E+02
      0.054  0.5938E+02  0.6479E+02
      0.097  0.6165E+02  0.6743E+02
      0.140  0.6460E+02  0.7019E+02
      0.183  0.6805E+02  0.7310E+02
      0.225  0.7178E+02  0.7618E+02
      0.268  0.7552E+02  0.7941E+02
      0.311  0.7894E+02  0.8279E+02
      0.354  0.8181E+02  0.8629E+02
      0.397  0.8400E+02  0.8989E+02
      0.440  0.8558E+02  0.9355E+02
      0.482  0.8665E+02  0.9726E+02
      0.525  0.8725E+02  0.1010E+03
      0.568  0.8736E+02  0.1047E+03
      0.611  0.8699E+02  0.1085E+03
      0.654  0.8621E+02  0.1121E+03
      0.696  0.8509E+02  0.1158E+03
      0.739  0.8362E+02  0.1194E+03
      0.782  0.8180E+02  0.1229E+03
      0.825  0.7975E+02  0.1263E+03
      0.868  0.7781E+02  0.1296E+03
      0.910  0.7637E+02  0.1329E+03
      0.953  0.7570E+02  0.1361E+03
      0.996  0.7572E+02  0.1394E+03
      1.039  0.7607E+02  0.1426E+03
      1.082  0.7631E+02  0.1459E+03
      1.124  0.7615E+02  0.1491E+03
      1.167  0.7556E+02  0.1524E+03
      1.210  0.7472E+02  0.1556E+03
      1.253  0.7387E+02  0.1587E+03
      1.296  0.7313E+02  0.1619E+03
      1.338  0.7245E+02  0.1650E+03
      1.381  0.7165E+02  0.1680E+03
      1.424  0.7050E+02  0.1711E+03
      1.467  0.6896E+02  0.1740E+03
      1.510  0.6727E+02  0.1769E+03
      1.552  0.6601E+02  0.1797E+03
      1.595  0.6575E+02  0.1825E+03
      1.638  0.6680E+02  0.1854E+03
      1.681  0.6903E+02  0.1883E+03
      1.724  0.7200E+02  0.1914E+03
      1.767  0.7521E+02  0.1946E+03
      1.809  0.7834E+02  0.1980E+03
      1.852  0.8125E+02  0.2015E+03
      1.895  0.8387E+02  0.2051E+03
      1.938  0.8618E+02  0.2088E+03
      1.981  0.8822E+02  0.2125E+03
      2.023  0.9005E+02  0.2164E+03
      2.066  0.9171E+02  0.2203E+03
      2.109  0.9313E+02  0.2243E+03
      2.152  0.9429E+02  0.2283E+03
      2.195  0.9530E+02  0.2324E+03
      2.237  0.9654E+02  0.2366E+03
      2.280  0.9843E+02  0.2408E+03
      2.323  0.1013E+03  0.2451E+03
      2.366  0.1051E+03  0.2496E+03
      2.409  0.1096E+03  0.2543E+03
      2.451  0.1140E+03  0.2592E+03
      2.494  0.1179E+03  0.2642E+03
      2.537  0.1211E+03  0.2694E+03
      2.580  0.1235E+03  0.2747E+03
      2.623  0.1256E+03  0.2801E+03
      2.665  0.1274E+03  0.2855E+03
      2.708  0.1293E+03  0.2911E+03
      2.751  0.1314E+03  0.2967E+03
      2.794  0.1339E+03  0.3024E+03
      2.837  0.1368E+03  0.3083E+03
      2.879  0.1397E+03  0.3142E+03
      2.922  0.1417E+03  0.3203E+03
      2.965  0.1420E+03  0.3264E+03
      3.008  0.1396E+03  0.3324E+03
      3.051  0.1344E+03  0.3381E+03
      3.094  0.1268E+03  0.3436E+03
      3.136  0.1179E+03  0.3486E+03
      3.179  0.1089E+03  0.3533E+03
      3.222  0.1009E+03  0.3576E+03
      3.265  0.9460E+02  0.3616E+03
      3.308  0.9013E+02  0.3655E+03
      3.350  0.8727E+02  0.3692E+03
      3.393  0.8559E+02  0.3729E+03
      3.436  0.8466E+02  0.3765E+03
      3.479  0.8409E+02  0.3801E+03
      3.522  0.8355E+02  0.3837E+03
      3.564  0.8289E+02  0.3872E+03
      3.607  0.8231E+02  0.3908E+03
      3.650  0.8227E+02  0.3943E+03
      3.693  0.8334E+02  0.3978E+03
      3.736  0.8585E+02  0.4015E+03
      3.778  0.8964E+02  0.4054E+03
      3.821  0.9414E+02  0.4094E+03
      3.864  0.9862E+02  0.4136E+03
      3.907  0.1025E+03  0.4180E+03
      3.950  0.1056E+03  0.4225E+03
      3.992  0.1078E+03  0.4271E+03
      4.035  0.1090E+03  0.4318E+03
      4.078  0.1093E+03  0.4365E+03
      4.121  0.1089E+03  0.4411E+03
      4.164  0.1080E+03  0.4458E+03
      4.206  0.1068E+03  0.4503E+03
      4.249  0.1054E+03  0.4549E+03
      4.292  0.1040E+03  0.4593E+03
      4.335  0.1028E+03  0.4637E+03
      4.378  0.1019E+03  0.4681E+03
      4.421  0.1013E+03  0.4724E+03
      4.463  0.1008E+03  0.4767E+03
      4.506  0.1001E+03  0.4810E+03
      4.549  0.9904E+02  0.4852E+03
      4.592  0.9793E+02  0.4894E+03
      4.635  0.9719E+02  0.4936E+03
      4.677  0.9726E+02  0.4978E+03
      4.720  0.9836E+02  0.5020E+03
      4.763  0.1004E+03  0.5063E+03
      4.806  0.1029E+03  0.5107E+03
      4.849  0.1055E+03  0.5152E+03
      4.891  0.1076E+03  0.5198E+03
      4.934  0.1090E+03  0.5244E+03
      4.977  0.1092E+03  0.5291E+03
      5.020  0.1077E+03  0.5337E+03
      5.063  0.1036E+03  0.5382E+03
      5.105  0.9588E+02  0.5423E+03
      5.148  0.8405E+02  0.5459E+03
      5.191  0.6869E+02  0.5488E+03
      5.234  0.5162E+02  0.5510E+03
      5.277  0.3526E+02  0.5525E+03
      5.319  0.2172E+02  0.5535E+03
      5.362  0.1199E+02  0.5540E+03
      5.405  0.5909E+01  0.5542E+03
      5.448  0.2594E+01  0.5543E+03
      5.491  0.1013E+01  0.5544E+03
      5.533  0.3523E+00  0.5544E+03
      5.576  0.1091E+00  0.5544E+03
      5.619  0.3009E-01  0.5544E+03
      5.662  0.7394E-02  0.5544E+03
      5.705  0.1615E-02  0.5544E+03
      5.748  0.3127E-03  0.5544E+03
      5.790  0.5343E-04  0.5544E+03
      5.833  0.8011E-05  0.5544E+03
      5.876  0.1049E-05  0.5544E+03
      5.919  0.1192E-06  0.5544E+03
      5.962  0.1172E-07  0.5544E+03
      6.004  0.9930E-09  0.5544E+03
      6.047  0.7227E-10  0.5544E+03
      6.090  0.4508E-11  0.5544E+03
      6.133  0.2399E-12  0.5544E+03
      6.176  0.1070E-13  0.5544E+03
      6.218  0.3890E-15  0.5544E+03
      6.261  0.0000E+00  0.5544E+03
      6.304  0.0000E+00  0.5544E+03
      6.347  0.0000E+00  0.5544E+03
      6.390  0.0000E+00  0.5544E+03
      6.432  0.0000E+00  0.5544E+03
      6.475  0.0000E+00  0.5544E+03
      6.518  0.0000E+00  0.5544E+03
      6.561  0.0000E+00  0.5544E+03
      6.604  0.0000E+00  0.5544E+03
      6.646  0.0000E+00  0.5544E+03
      6.689  0.0000E+00  0.5544E+03
      6.732  0.0000E+00  0.5544E+03
      6.775  0.0000E+00  0.5544E+03
      6.818  0.0000E+00  0.5544E+03
