       N       E                     dE             d eps       ncg     rms          rms(c)
DAV:   1     0.292201687307E+05    0.29220E+05   -0.86583E+05 27930   0.197E+03
DAV:   2     0.119423773072E+04   -0.28026E+05   -0.27414E+05 27720   0.604E+02
DAV:   3    -0.194008513725E+04   -0.31343E+04   -0.27242E+04 39102   0.279E+02
DAV:   4    -0.260712915863E+04   -0.66704E+03   -0.60698E+03 50974   0.976E+01
DAV:   5    -0.272702835946E+04   -0.11990E+03   -0.11203E+03 48300   0.396E+01    0.203E+02
RMM:   6    -0.564172680284E+04   -0.29147E+04   -0.11903E+04 48154   0.247E+02    0.648E+02
RMM:   7    -0.383264492351E+04    0.18091E+04   -0.38140E+03 43966   0.104E+02    0.407E+02
RMM:   8    -0.110042025243E+05   -0.71716E+04   -0.18903E+04 45510   0.351E+02    0.115E+03
RMM:   9    -0.136694064833E+05   -0.26652E+04   -0.16356E+04 49986   0.168E+02    0.762E+02
RMM:  10    -0.788196520477E+04    0.57874E+04   -0.62036E+03 34521   0.154E+02    0.505E+02
RMM:  11    -0.985537124501E+04   -0.19734E+04   -0.16123E+04 44121   0.274E+02    0.838E+02
RMM:  12    -0.116679262353E+05   -0.18126E+04   -0.16728E+04 49465   0.141E+02    0.812E+02
RMM:  13    -0.115388733232E+05    0.12905E+03   -0.85148E+03 47958   0.148E+02    0.663E+02
RMM:  14    -0.105587477824E+05    0.98013E+03   -0.12346E+04 34781   0.248E+02    0.599E+02
RMM:  15    -0.642378941533E+04    0.41350E+04   -0.71454E+03 37727   0.178E+02    0.541E+02
RMM:  16    -0.579891537666E+04    0.62487E+03   -0.35682E+03 43490   0.781E+01    0.453E+02
RMM:  17    -0.505261525848E+04    0.74630E+03   -0.40749E+03 43293   0.119E+02    0.409E+02
RMM:  18    -0.421780273826E+04    0.83481E+03   -0.23958E+03 31971   0.818E+01    0.375E+02
RMM:  19    -0.357482870061E+04    0.64297E+03   -0.18317E+03 36839   0.480E+01    0.334E+02
RMM:  20    -0.285251020568E+04    0.72232E+03   -0.77690E+02 37459   0.333E+01    0.270E+02
RMM:  21    -0.250693654475E+04    0.34557E+03   -0.79368E+02 38348   0.292E+01    0.191E+02
RMM:  22    -0.241980021068E+04    0.87136E+02   -0.54774E+02 37265   0.267E+01    0.158E+02
RMM:  23    -0.241632714426E+04    0.34731E+01   -0.51220E+02 40026   0.224E+01    0.149E+02
RMM:  24    -0.237892305217E+04    0.37404E+02   -0.19701E+02 34105   0.185E+01    0.110E+02
RMM:  25    -0.235139527066E+04    0.27528E+02   -0.15137E+02 40372   0.117E+01    0.902E+01
RMM:  26    -0.234994692640E+04    0.14483E+01   -0.72689E+01 34805   0.982E+00    0.851E+01
RMM:  27    -0.234587599840E+04    0.40709E+01   -0.44846E+01 32972   0.813E+00    0.683E+01
RMM:  28    -0.235634929044E+04   -0.10473E+02   -0.49666E+01 33986   0.819E+00    0.746E+01
RMM:  29    -0.234571649438E+04    0.10633E+02   -0.21944E+01 38648   0.476E+00    0.645E+01
RMM:  30    -0.234169643113E+04    0.40201E+01   -0.13781E+01 40922   0.311E+00    0.614E+01
RMM:  31    -0.233910458748E+04    0.25918E+01   -0.55107E+00 30556   0.401E+00    0.590E+01
RMM:  32    -0.233981921360E+04   -0.71463E+00   -0.54994E+00 32637   0.336E+00    0.604E+01
RMM:  33    -0.233560952892E+04    0.42097E+01   -0.47968E+00 41492   0.186E+00    0.555E+01
RMM:  34    -0.233260585645E+04    0.30037E+01   -0.19675E+00 34933   0.154E+00    0.519E+01
RMM:  35    -0.232272431174E+04    0.98815E+01   -0.63548E+00 31024   0.411E+00    0.386E+01
RMM:  36    -0.231837540713E+04    0.43489E+01   -0.70970E+00 37382   0.301E+00    0.315E+01
RMM:  37    -0.231820844869E+04    0.16696E+00   -0.50509E+00 38118   0.217E+00    0.325E+01
RMM:  38    -0.232099754681E+04   -0.27891E+01   -0.52666E+00 32792   0.318E+00    0.409E+01
RMM:  39    -0.232014021961E+04    0.85733E+00   -0.33022E+00 33431   0.242E+00    0.397E+01
RMM:  40    -0.231891531817E+04    0.12249E+01   -0.28200E+00 37900   0.172E+00    0.370E+01
RMM:  41    -0.231754515253E+04    0.13702E+01   -0.24331E+00 38694   0.146E+00    0.333E+01
RMM:  42    -0.231684488283E+04    0.70027E+00   -0.15800E+00 42651   0.836E-01    0.313E+01
RMM:  43    -0.231640405095E+04    0.44083E+00   -0.69038E-01 32182   0.102E+00    0.294E+01
RMM:  44    -0.231668153512E+04   -0.27748E+00   -0.56292E-01 30378   0.123E+00    0.306E+01
RMM:  45    -0.231723885722E+04   -0.55732E+00   -0.65565E-01 30430   0.139E+00    0.330E+01
RMM:  46    -0.231723315834E+04    0.56989E-02   -0.85291E-01 29221   0.177E+00    0.327E+01
RMM:  47    -0.231687895136E+04    0.35421E+00   -0.85549E-01 32805   0.132E+00    0.318E+01
RMM:  48    -0.231617157660E+04    0.70737E+00   -0.59302E-01 32729   0.112E+00    0.293E+01
RMM:  49    -0.231571956435E+04    0.45201E+00   -0.29149E-01 32368   0.785E-01    0.275E+01
RMM:  50    -0.231558148841E+04    0.13808E+00   -0.36237E-01 37033   0.702E-01    0.268E+01
RMM:  51    -0.235991821403E+04   -0.44337E+02   -0.38813E+01 31129   0.957E+00    0.848E+01
RMM:  52    -0.236574479933E+04   -0.58266E+01   -0.38078E+01 39963   0.517E+00    0.900E+01
RMM:  53    -0.236551880709E+04    0.22599E+00   -0.14535E+01 33934   0.434E+00    0.927E+01
RMM:  54    -0.235325970426E+04    0.12259E+02   -0.12962E+01 30742   0.586E+00    0.797E+01
RMM:  55    -0.234367411850E+04    0.95856E+01   -0.13967E+01 31619   0.589E+00    0.683E+01
RMM:  56    -0.236567496668E+04   -0.22001E+02   -0.25511E+01 28472   0.978E+00    0.944E+01
RMM:  57    -0.233306091221E+04    0.32614E+02   -0.29453E+01 35651   0.706E+00    0.606E+01
RMM:  58    -0.234703903233E+04   -0.13978E+02   -0.40511E+01 32353   0.897E+00    0.767E+01
RMM:  59    -0.234724959710E+04   -0.21056E+00   -0.24327E+01 32855   0.675E+00    0.772E+01
RMM:  60    -0.234822639490E+04   -0.97680E+00   -0.16500E+01 34293   0.506E+00    0.785E+01
RMM:  61    -0.236147749020E+04   -0.13251E+02   -0.49240E+01 32976   0.968E+00    0.853E+01
RMM:  62    -0.235344809984E+04    0.80294E+01   -0.32144E+01 40229   0.560E+00    0.796E+01
RMM:  63    -0.234015581597E+04    0.13292E+02   -0.59657E+00 29611   0.445E+00    0.680E+01
RMM:  64    -0.233203334943E+04    0.81225E+01   -0.10866E+01 27933   0.690E+00    0.574E+01
RMM:  65    -0.232500651024E+04    0.70268E+01   -0.12807E+01 28450   0.694E+00    0.442E+01
RMM:  66    -0.233778004452E+04   -0.12774E+02   -0.24140E+01 29073   0.932E+00    0.651E+01
RMM:  67    -0.231943236953E+04    0.18348E+02   -0.18433E+01 29114   0.777E+00    0.308E+01
RMM:  68    -0.232040220791E+04   -0.96984E+00   -0.14510E+01 34294   0.470E+00    0.323E+01
RMM:  69    -0.231792396505E+04    0.24782E+01   -0.40488E+00 32673   0.292E+00    0.238E+01
RMM:  70    -0.231714200302E+04    0.78196E+00   -0.21674E+00 35528   0.175E+00    0.208E+01
RMM:  71    -0.231826027354E+04   -0.11183E+01   -0.27848E+00 33027   0.236E+00    0.263E+01
RMM:  72    -0.231612552604E+04    0.21347E+01   -0.11133E+00 27768   0.243E+00    0.156E+01
RMM:  73    -0.231577215942E+04    0.35337E+00   -0.95038E-01 31982   0.145E+00    0.136E+01
RMM:  74    -0.231555553653E+04    0.21662E+00   -0.45226E-01 29898   0.119E+00    0.123E+01
RMM:  75    -0.231556488344E+04   -0.93469E-02   -0.35353E-01 33207   0.837E-01    0.124E+01
RMM:  76    -0.231875473541E+04   -0.31899E+01   -0.21109E+00 28481   0.290E+00    0.273E+01
RMM:  77    -0.231547399822E+04    0.32807E+01   -0.10501E+00 27738   0.271E+00    0.103E+01
RMM:  78    -0.231535015009E+04    0.12385E+00   -0.33562E-01 28632   0.125E+00    0.101E+01
RMM:  79    -0.231552401375E+04   -0.17386E+00   -0.39549E-01 28276   0.127E+00    0.108E+01
RMM:  80    -0.231559002433E+04   -0.66011E-01   -0.25280E-01 27770   0.117E+00    0.112E+01
RMM:  81    -0.231534951055E+04    0.24051E+00   -0.31610E-01 29592   0.996E-01    0.906E+00
RMM:  82    -0.231523045087E+04    0.11906E+00   -0.18012E-01 29458   0.807E-01    0.767E+00
RMM:  83    -0.231506798600E+04    0.16246E+00   -0.23450E-01 39042   0.386E-01    0.512E+00
RMM:  84    -0.231499184926E+04    0.76137E-01   -0.60382E-02 33191   0.326E-01    0.359E+00
RMM:  85    -0.231498404467E+04    0.78046E-02   -0.69468E-02 30949   0.415E-01    0.314E+00
RMM:  86    -0.231516365535E+04   -0.17961E+00   -0.34272E-01 30817   0.932E-01    0.648E+00
RMM:  87    -0.231501428740E+04    0.14937E+00   -0.88521E-02 28143   0.714E-01    0.378E+00
RMM:  88    -0.231499102811E+04    0.23259E-01   -0.65099E-02 31528   0.400E-01    0.320E+00
RMM:  89    -0.231495581892E+04    0.35209E-01   -0.26849E-02 28325   0.366E-01    0.194E+00
RMM:  90    -0.231494920645E+04    0.66125E-02   -0.27821E-02 30140   0.293E-01    0.155E+00
RMM:  91    -0.231495678015E+04   -0.75737E-02   -0.35618E-02 28900   0.372E-01    0.184E+00
RMM:  92    -0.231494237319E+04    0.14407E-01   -0.16232E-02 27995   0.306E-01    0.861E-01
RMM:  93    -0.231494467958E+04   -0.23064E-02   -0.18023E-02 35437   0.156E-01    0.104E+00
RMM:  94    -0.231494615626E+04   -0.14767E-02   -0.92415E-03 33834   0.128E-01    0.111E+00
RMM:  95    -0.231494407484E+04    0.20814E-02   -0.42451E-03 31854   0.962E-02    0.915E-01
RMM:  96    -0.231494573310E+04   -0.16583E-02   -0.93869E-03 30722   0.161E-01    0.103E+00
RMM:  97    -0.231494222189E+04    0.35112E-02   -0.44173E-03 28011   0.158E-01    0.651E-01
RMM:  98    -0.231494284380E+04   -0.62191E-03   -0.26196E-03 30496   0.867E-02    0.728E-01
RMM:  99    -0.231494157733E+04    0.12665E-02   -0.24478E-03 30407   0.855E-02    0.524E-01
RMM: 100    -0.231494042256E+04    0.11548E-02   -0.10068E-03 28460   0.711E-02    0.262E-01
RMM: 101    -0.231494194349E+04   -0.15209E-02   -0.27243E-03 29142   0.990E-02    0.579E-01
RMM: 102    -0.231494103705E+04    0.90644E-03   -0.14648E-03 28208   0.866E-02    0.406E-01
RMM: 103    -0.231494058439E+04    0.45265E-03   -0.69147E-04 29623   0.514E-02    0.288E-01
RMM: 104    -0.231494056843E+04    0.15968E-04   -0.81672E-04 36558   0.301E-02    0.270E-01
RMM: 105    -0.231494043259E+04    0.13584E-03   -0.27987E-04 30633   0.279E-02    0.211E-01
RMM: 106    -0.231494064815E+04   -0.21556E-03   -0.54750E-04 29307   0.429E-02    0.286E-01
RMM: 107    -0.231494031607E+04    0.33208E-03   -0.24455E-04 27910   0.372E-02    0.137E-01
RMM: 108    -0.231494038101E+04   -0.64942E-04   -0.10848E-04 29109   0.208E-02    0.178E-01
RMM: 109    -0.231494035163E+04    0.29374E-04   -0.14226E-04 32943   0.162E-02    0.154E-01
RMM: 110    -0.231494027825E+04    0.73387E-04   -0.67534E-05 29816   0.150E-02    0.896E-02
RMM: 111    -0.231494033433E+04   -0.56086E-04   -0.90552E-05 28874   0.187E-02    0.137E-01
RMM: 112    -0.231494026693E+04    0.67400E-04   -0.41543E-05 27991   0.154E-02    0.726E-02
RMM: 113    -0.231494025020E+04    0.16737E-04   -0.33535E-05 31779   0.737E-03    0.335E-02
RMM: 114    -0.231494025088E+04   -0.68135E-06   -0.20581E-05 29722   0.522E-03    0.277E-02
RMM: 115    -0.231494025115E+04   -0.27282E-06   -0.10957E-05 25571   0.507E-03    0.199E-02
RMM: 116    -0.231494025617E+04   -0.50135E-05   -0.14258E-05 28640   0.584E-03    0.332E-02
RMM: 117    -0.231494025221E+04    0.39532E-05   -0.51945E-06 19776   0.469E-03    0.138E-02
RMM: 118    -0.231494025340E+04   -0.11855E-05   -0.36215E-06 18611   0.253E-03    0.143E-02
RMM: 119    -0.231494025476E+04   -0.13637E-05   -0.27317E-06 16998   0.279E-03    0.107E-02
RMM: 120    -0.231494025560E+04   -0.84066E-06   -0.21264E-06 16692   0.220E-03
   1 F= -.23149403E+04 E0= -.23120546E+04  d E =-.231494E+04
       N       E                     dE             d eps       ncg     rms          rms(c)
DAV:   1    -0.231517792497E+04   -0.23767E+00   -0.56232E+01 27944   0.785E+00    0.113E+00
RMM:   2    -0.231552531809E+04   -0.34739E+00   -0.84595E-01 28001   0.191E+00    0.735E+00
RMM:   3    -0.231601691049E+04   -0.49159E+00   -0.29038E-01 39635   0.627E-01    0.122E+01
RMM:   4    -0.231537667409E+04    0.64024E+00   -0.83841E-02 27896   0.571E-01    0.483E+00
RMM:   5    -0.231643733828E+04   -0.10607E+01   -0.12844E-01 29923   0.590E-01    0.150E+01
RMM:   6    -0.231551555655E+04    0.92178E+00   -0.16600E-01 39039   0.442E-01    0.674E+00
RMM:   7    -0.231535656385E+04    0.15899E+00   -0.11770E-01 27747   0.714E-01    0.456E+00
RMM:   8    -0.231536772560E+04   -0.11162E-01   -0.60135E-02 27766   0.540E-01    0.501E+00
RMM:   9    -0.231528944326E+04    0.78282E-01   -0.41424E-02 30682   0.328E-01    0.299E+00
RMM:  10    -0.231528414685E+04    0.52964E-02   -0.52795E-02 28134   0.444E-01    0.279E+00
RMM:  11    -0.231526469506E+04    0.19452E-01   -0.31550E-02 28098   0.360E-01    0.209E+00
RMM:  12    -0.231524402431E+04    0.20671E-01   -0.11555E-02 27723   0.260E-01    0.852E-01
RMM:  13    -0.231524114379E+04    0.28805E-02   -0.58564E-03 29322   0.145E-01    0.546E-01
RMM:  14    -0.231524204479E+04   -0.90100E-03   -0.87747E-03 34063   0.123E-01    0.639E-01
RMM:  15    -0.231524025981E+04    0.17850E-02   -0.26304E-03 28790   0.101E-01    0.259E-01
RMM:  16    -0.231524021199E+04    0.47820E-04   -0.26044E-03 37277   0.543E-02    0.174E-01
RMM:  17    -0.231524045586E+04   -0.24388E-03   -0.15165E-03 33812   0.498E-02    0.254E-01
RMM:  18    -0.231524018679E+04    0.26908E-03   -0.55628E-04 30165   0.419E-02    0.997E-02
RMM:  19    -0.231524021841E+04   -0.31627E-04   -0.62189E-04 38480   0.235E-02    0.962E-02
RMM:  20    -0.231524023749E+04   -0.19072E-04   -0.25534E-04 32168   0.234E-02    0.103E-01
RMM:  21    -0.231524020190E+04    0.35582E-04   -0.10853E-04 30487   0.181E-02    0.593E-02
RMM:  22    -0.231524020429E+04   -0.23852E-05   -0.12866E-04 39729   0.102E-02    0.489E-02
RMM:  23    -0.231524020752E+04   -0.32259E-05   -0.54598E-05 33233   0.983E-03    0.487E-02
RMM:  24    -0.231524019817E+04    0.93434E-05   -0.21558E-05 29871   0.797E-03    0.230E-02
RMM:  25    -0.231524019971E+04   -0.15428E-05   -0.22135E-05 29502   0.424E-03    0.226E-02
RMM:  26    -0.231524019988E+04   -0.16953E-06   -0.10539E-05 26490   0.458E-03    0.193E-02
RMM:  27    -0.231524019842E+04    0.14668E-05   -0.41967E-06 20114   0.391E-03    0.689E-03
RMM:  28    -0.231524019872E+04   -0.30364E-06   -0.31759E-06 19182   0.228E-03
   2 F= -.23152402E+04 E0= -.23123498E+04  d E =-.299943E+00
       N       E                     dE             d eps       ncg     rms          rms(c)
DAV:   1    -0.231510534027E+04    0.13486E+00   -0.50480E+02 27720   0.237E+01    0.403E+00
RMM:   2    -0.231867981473E+04   -0.35745E+01   -0.10996E+01 27874   0.679E+00    0.232E+01
RMM:   3    -0.232867593821E+04   -0.99961E+01   -0.37287E+00 39191   0.242E+00    0.472E+01
RMM:   4    -0.231908572378E+04    0.95902E+01   -0.13971E+00 27941   0.226E+00    0.243E+01
RMM:   5    -0.234027375954E+04   -0.21188E+02   -0.20730E+00 30798   0.230E+00    0.679E+01
RMM:   6    -0.231921393112E+04    0.21060E+02   -0.21539E+00 36922   0.185E+00    0.228E+01
RMM:   7    -0.231852295437E+04    0.69098E+00   -0.14391E+00 27771   0.256E+00    0.226E+01
RMM:   8    -0.231749923886E+04    0.10237E+01   -0.87797E-01 29179   0.167E+00    0.175E+01
RMM:   9    -0.231648118657E+04    0.10181E+01   -0.90165E-01 27785   0.197E+00    0.104E+01
RMM:  10    -0.231633317355E+04    0.14801E+00   -0.75130E-01 27920   0.180E+00    0.900E+00
RMM:  11    -0.231599716353E+04    0.33601E+00   -0.27311E-01 27721   0.131E+00    0.484E+00
RMM:  12    -0.231589716783E+04    0.99996E-01   -0.95371E-02 28456   0.605E-01    0.240E+00
RMM:  13    -0.231588806869E+04    0.90991E-02   -0.10068E-01 32244   0.451E-01    0.198E+00
RMM:  14    -0.231589000503E+04   -0.19363E-02   -0.71653E-02 32011   0.407E-01    0.195E+00
RMM:  15    -0.231587409988E+04    0.15905E-01   -0.24999E-02 28475   0.341E-01    0.998E-01
RMM:  16    -0.231587482456E+04   -0.72468E-03   -0.28700E-02 35630   0.203E-01    0.936E-01
RMM:  17    -0.231587712155E+04   -0.22970E-02   -0.18876E-02 32758   0.188E-01    0.107E+00
RMM:  18    -0.231587563967E+04    0.14819E-02   -0.88429E-03 30221   0.165E-01    0.910E-01
RMM:  19    -0.231587424277E+04    0.13969E-02   -0.10460E-02 34122   0.138E-01    0.698E-01
RMM:  20    -0.231587207829E+04    0.21645E-02   -0.36184E-03 29887   0.113E-01    0.313E-01
RMM:  21    -0.231587224522E+04   -0.16693E-03   -0.36398E-03 37434   0.604E-02    0.297E-01
RMM:  22    -0.231587237409E+04   -0.12887E-03   -0.20992E-03 36575   0.525E-02    0.303E-01
RMM:  23    -0.231587207276E+04    0.30133E-03   -0.70129E-04 30872   0.441E-02    0.175E-01
RMM:  24    -0.231587206819E+04    0.45658E-05   -0.74647E-04 39564   0.271E-02    0.147E-01
RMM:  25    -0.231587206692E+04    0.12751E-05   -0.35690E-04 32192   0.271E-02    0.143E-01
RMM:  26    -0.231587204037E+04    0.26546E-04   -0.16719E-04 31114   0.209E-02    0.123E-01
RMM:  27    -0.231587203685E+04    0.35235E-05   -0.19143E-04 40251   0.128E-02    0.110E-01
RMM:  28    -0.231587199092E+04    0.45929E-04   -0.63317E-05 32149   0.112E-02    0.458E-02
RMM:  29    -0.231587198607E+04    0.48490E-05   -0.43015E-05 34499   0.743E-03    0.281E-02
RMM:  30    -0.231587198754E+04   -0.14764E-05   -0.31190E-05 34507   0.615E-03    0.287E-02
RMM:  31    -0.231587198522E+04    0.23208E-05   -0.12385E-05 26836   0.511E-03    0.177E-02
RMM:  32    -0.231587198543E+04   -0.21033E-06   -0.80167E-06 22895   0.313E-03
   3 F= -.23158720E+04 E0= -.23129694E+04  d E =-.931730E+00
       N       E                     dE             d eps       ncg     rms          rms(c)
DAV:   1    -0.231197334919E+04    0.38986E+01   -0.20207E+03 27720   0.485E+01    0.845E+00
RMM:   2    -0.232846342155E+04   -0.16490E+02   -0.56977E+01 27813   0.136E+01    0.488E+01
RMM:   3    -0.237066527668E+04   -0.42202E+02   -0.20317E+01 38514   0.605E+00    0.935E+01
RMM:   4    -0.233534577054E+04    0.35320E+02   -0.58936E+00 28818   0.417E+00    0.601E+01
RMM:   5    -0.241364789136E+04   -0.78302E+02   -0.14922E+01 36695   0.425E+00    0.130E+02
RMM:   6    -0.232411438494E+04    0.89534E+02   -0.59502E+00 29331   0.429E+00    0.343E+01
RMM:   7    -0.232029656018E+04    0.38178E+01   -0.47957E+00 27762   0.486E+00    0.281E+01
RMM:   8    -0.232425218055E+04   -0.39556E+01   -0.47460E+00 27811   0.472E+00    0.400E+01
RMM:   9    -0.232238416181E+04    0.18680E+01   -0.42275E+00 33651   0.295E+00    0.345E+01
RMM:  10    -0.231772998825E+04    0.46542E+01   -0.28082E+00 27722   0.373E+00    0.175E+01
RMM:  11    -0.231662596888E+04    0.11040E+01   -0.12508E+00 27808   0.240E+00    0.116E+01
RMM:  12    -0.231614883689E+04    0.47713E+00   -0.99321E-01 32828   0.141E+00    0.635E+00
RMM:  13    -0.231611125486E+04    0.37582E-01   -0.80243E-01 33740   0.119E+00    0.554E+00
RMM:  14    -0.231606361216E+04    0.47643E-01   -0.23994E-01 29093   0.917E-01    0.466E+00
RMM:  15    -0.231602909761E+04    0.34515E-01   -0.20524E-01 33449   0.612E-01    0.375E+00
RMM:  16    -0.231600197364E+04    0.27124E-01   -0.13054E-01 35912   0.436E-01    0.291E+00
RMM:  17    -0.231599626790E+04    0.57057E-02   -0.55985E-02 30423   0.413E-01    0.268E+00
RMM:  18    -0.231598091956E+04    0.15348E-01   -0.64033E-02 33356   0.354E-01    0.192E+00
RMM:  19    -0.231598088498E+04    0.34580E-04   -0.28176E-02 29870   0.299E-01    0.198E+00
RMM:  20    -0.231598083252E+04    0.52462E-04   -0.26322E-02 31695   0.254E-01    0.189E+00
RMM:  21    -0.231597132796E+04    0.95046E-02   -0.20678E-02 32134   0.211E-01    0.121E+00
RMM:  22    -0.231596692735E+04    0.44006E-02   -0.85884E-03 29323   0.181E-01    0.810E-01
RMM:  23    -0.231596700715E+04   -0.79795E-04   -0.11505E-02 32542   0.159E-01    0.753E-01
RMM:  24    -0.231596673269E+04    0.27446E-03   -0.41603E-03 29233   0.126E-01    0.714E-01
RMM:  25    -0.231596631676E+04    0.41593E-03   -0.28703E-03 31347   0.849E-02    0.644E-01
RMM:  26    -0.231596520972E+04    0.11070E-02   -0.34414E-03 36330   0.667E-02    0.408E-01
RMM:  27    -0.231596470060E+04    0.50912E-03   -0.14825E-03 31945   0.556E-02    0.264E-01
RMM:  28    -0.231596477978E+04   -0.79176E-04   -0.13104E-03 37922   0.364E-02    0.272E-01
RMM:  29    -0.231596458915E+04    0.19063E-03   -0.61570E-04 34720   0.306E-02    0.172E-01
RMM:  30    -0.231596448273E+04    0.10642E-03   -0.25577E-04 31646   0.241E-02    0.961E-02
RMM:  31    -0.231596448314E+04   -0.41036E-06   -0.26155E-04 40310   0.145E-02    0.785E-02
RMM:  32    -0.231596447193E+04    0.11210E-04   -0.95321E-05 33081   0.128E-02    0.591E-02
RMM:  33    -0.231596445856E+04    0.13365E-04   -0.40302E-05 31298   0.958E-03    0.295E-02
RMM:  34    -0.231596446297E+04   -0.44105E-05   -0.48939E-05 37849   0.656E-03    0.345E-02
RMM:  35    -0.231596445989E+04    0.30855E-05   -0.19660E-05 30962   0.619E-03    0.238E-02
RMM:  36    -0.231596445835E+04    0.15319E-05   -0.10075E-05 24571   0.392E-03    0.135E-02
RMM:  37    -0.231596445880E+04   -0.44648E-06   -0.56193E-06 21015   0.316E-03
   4 F= -.23159645E+04 E0= -.23130654E+04  d E =-.102420E+01
       N       E                     dE             d eps       ncg     rms          rms(c)
DAV:   1    -0.231553235231E+04    0.43211E+00   -0.39848E+02 27720   0.210E+01    0.364E+00
RMM:   2    -0.231875844233E+04   -0.32261E+01   -0.92166E+00 27794   0.640E+00    0.236E+01
RMM:   3    -0.232608228001E+04   -0.73238E+01   -0.27212E+00 37072   0.237E+00    0.422E+01
RMM:   4    -0.231896810208E+04    0.71142E+01   -0.10416E+00 29852   0.171E+00    0.222E+01
RMM:   5    -0.232618131873E+04   -0.72132E+01   -0.12319E+00 28720   0.201E+00    0.437E+01
RMM:   6    -0.232001248684E+04    0.61688E+01   -0.18301E+00 39917   0.133E+00    0.260E+01
RMM:   7    -0.231698569839E+04    0.30268E+01   -0.11270E+00 27740   0.227E+00    0.119E+01
RMM:   8    -0.231723290287E+04   -0.24720E+00   -0.64152E-01 27893   0.167E+00    0.146E+01
RMM:   9    -0.231669310760E+04    0.53980E+00   -0.48799E-01 31082   0.113E+00    0.107E+01
RMM:  10    -0.231670677772E+04   -0.13670E-01   -0.64821E-01 28174   0.149E+00    0.104E+01
RMM:  11    -0.231633796606E+04    0.36881E+00   -0.34268E-01 27777   0.129E+00    0.622E+00
RMM:  12    -0.231615990256E+04    0.17806E+00   -0.12972E-01 27788   0.851E-01    0.299E+00
RMM:  13    -0.231613484015E+04    0.25062E-01   -0.91173E-02 31593   0.429E-01    0.208E+00
RMM:  14    -0.231613528160E+04   -0.44145E-03   -0.79609E-02 32613   0.416E-01    0.200E+00
RMM:  15    -0.231611625530E+04    0.19026E-01   -0.24340E-02 27975   0.340E-01    0.758E-01
RMM:  16    -0.231611912269E+04   -0.28674E-02   -0.29083E-02 37143   0.202E-01    0.960E-01
RMM:  17    -0.231611821930E+04    0.90340E-03   -0.11530E-02 30794   0.172E-01    0.834E-01
RMM:  18    -0.231611648603E+04    0.17333E-02   -0.64787E-03 31999   0.120E-01    0.546E-01
RMM:  19    -0.231611657931E+04   -0.93284E-04   -0.59990E-03 35532   0.932E-02    0.512E-01
RMM:  20    -0.231611608663E+04    0.49268E-03   -0.25299E-03 30779   0.842E-02    0.404E-01
RMM:  21    -0.231611591760E+04    0.16903E-03   -0.19275E-03 33694   0.582E-02    0.336E-01
RMM:  22    -0.231611599300E+04   -0.75400E-04   -0.18761E-03 35473   0.533E-02    0.328E-01
RMM:  23    -0.231611559136E+04    0.40165E-03   -0.63411E-04 30197   0.449E-02    0.158E-01
RMM:  24    -0.231611558113E+04    0.10228E-04   -0.65309E-04 39067   0.233E-02    0.122E-01
RMM:  25    -0.231611556483E+04    0.16304E-04   -0.28884E-04 37054   0.180E-02    0.968E-02
RMM:  26    -0.231611552737E+04    0.37461E-04   -0.93940E-05 31654   0.148E-02    0.491E-02
RMM:  27    -0.231611553028E+04   -0.29191E-05   -0.91558E-05 39811   0.873E-03    0.428E-02
RMM:  28    -0.231611553299E+04   -0.27089E-05   -0.44224E-05 33129   0.861E-03    0.446E-02
RMM:  29    -0.231611552595E+04    0.70473E-05   -0.17190E-05 28958   0.727E-03    0.247E-02
RMM:  30    -0.231611552647E+04   -0.52029E-06   -0.16835E-05 28486   0.451E-03    0.228E-02
RMM:  31    -0.231611552603E+04    0.43461E-06   -0.84329E-06 24954   0.462E-03
   5 F= -.23161155E+04 E0= -.23132091E+04  d E =-.117527E+01
