unknown system                          
           1
     9.726678    0.000000    0.000000
     0.000000    8.423550    0.000000
     0.000000    0.000000   45.000000
   Fe   Mn
 281   7
Direct configuration=     1
   0.05337440  0.70182544  0.21141821
   0.31766304  0.72476362  0.87624577
   0.68760477  0.95826250  0.61125496
   0.43804477  0.45759203  0.61123598
   0.44001363  0.28826766  0.25548739
   0.05857541  0.38791411  0.83349012
   0.30832237  0.88750617  0.83349925
   0.44710982  0.62658204  0.70012652
   0.06046590  0.21200500  0.74488158
   0.17857736  0.45098812  0.21130189
   0.56786969  0.21061232  0.47743710
   0.06680104  0.87490518  0.56674386
   0.56820420  0.22418875  0.87610117
   0.80966166  0.53341731  0.12424749
   0.42870641  0.95127756  0.21128591
   0.56679667  0.37472885  0.56684521
   0.81223980  0.04187565  0.38862153
   0.68257029  0.78837822  0.52217887
   0.44280586  0.46078129  0.47746189
   0.43479666  0.96185054  0.74459520
   0.44203787  0.62501723  0.56672177
   0.06019584  0.53255725  0.12433292
   0.30985594  0.03290532  0.12421959
   0.69037280  0.95924874  0.34418212
   0.68176260  0.77731992  0.12410612
   0.05277357  0.37383934  0.29982573
   0.68942940  0.46728218  0.87595434
   0.42861386  0.45112231  0.21128862
   0.80834698  0.37497202  0.43312294
   0.56271621  0.70804183  0.61136587
   0.55986844  0.54117206  0.65571680
   0.93343687  0.12495723  0.43310945
   0.56587337  0.53754711  0.25545374
   0.69029817  0.45922534  0.34419672
   0.19146068  0.61221318  0.16678278
   0.19541491  0.79844267  0.78865134
   0.44798501  0.12574187  0.70011498
   0.92785360  0.62376506  0.29973115
   0.31807912  0.22414276  0.87608939
   0.31683135  0.87461117  0.56679017
   0.81812814  0.22387152  0.87615237
   0.80998026  0.54100676  0.65577499
   0.55912053  0.53237758  0.12427255
   0.56610020  0.86264150  0.16659239
   0.18990791  0.28825871  0.25547184
   0.80836732  0.87494247  0.43311779
   0.57197749  0.37629057  0.70008741
   0.05999396  0.03292173  0.12424227
   0.30972729  0.54068707  0.65580999
   0.56539194  0.20939080  0.34415462
   0.18786694  0.95798727  0.61132607
   0.30278399  0.37382825  0.29978352
   0.43455946  0.79064506  0.65569983
   0.68470101  0.46214905  0.74474791
   0.06628804  0.36242939  0.16658306
   0.69704016  0.62637344  0.70040727
   0.31223759  0.54183445  0.38858430
   0.06824240  0.72415387  0.87612856
   0.93350899  0.63750033  0.83354609
   0.32007641  0.54970728  0.78869326
   0.30342080  0.20180200  0.21143336
   0.06782716  0.71072856  0.47746220
   0.55343349  0.20188701  0.21144604
   0.31107705  0.21163873  0.74452634
   0.07223421  0.37603069  0.70038697
   0.18333163  0.63755961  0.83346667
   0.07128701  0.04901935  0.78871799
   0.44176786  0.12489519  0.56676599
   0.93493222  0.29098596  0.65571034
   0.80350007  0.20177467  0.21143127
   0.92895551  0.95122115  0.21141565
   0.94157968  0.62509738  0.56686963
   0.80858197  0.38796288  0.83349033
   0.19733563  0.62612632  0.70006319
   0.80846760  0.88754282  0.83351092
   0.68476010  0.29064563  0.65580498
   0.31266260  0.20813474  0.61130254
   0.43563970  0.46224621  0.74447760
   0.43728442  0.79192968  0.38862021
   0.68523009  0.96208884  0.74450830
   0.80342144  0.70183670  0.21146586
   0.81302059  0.70783026  0.61128637
   0.43094939  0.77788325  0.12414302
   0.31076453  0.71230861  0.74447487
   0.32119040  0.04923379  0.78871209
   0.81220179  0.54180052  0.38857835
   0.68238069  0.28814943  0.52232603
   0.69500144  0.79842832  0.78867397
   0.18998136  0.78823108  0.25547793
   0.69133624  0.11218713  0.16675320
   0.69291471  0.96064825  0.47747249
   0.94035536  0.95920823  0.34417213
   0.80757912  0.03826087  0.52229180
   0.68343966  0.62503321  0.43309748
   0.44043203  0.45928897  0.34416695
   0.81074276  0.21201332  0.74459687
   0.43959442  0.96731533  0.87598318
   0.56659365  0.87497910  0.56688237
   0.81013271  0.03226773  0.12440755
   0.42786485  0.62379519  0.29972654
   0.81774381  0.72388864  0.87610147
   0.68748512  0.45813532  0.61120897
   0.55845880  0.38767436  0.83316395
   0.80277959  0.37385021  0.29972356
   0.18704133  0.29183369  0.38854076
   0.82107362  0.54912408  0.78877842
   0.18245566  0.78824888  0.52232910
   0.30276438  0.87379450  0.29976658
   0.17880698  0.95111340  0.21126551
   0.18579819  0.46123511  0.74467187
   0.43239434  0.28817963  0.52231748
   0.06544219  0.70942026  0.34416663
   0.18479954  0.79063715  0.65587681
   0.44588755  0.79845002  0.78869891
   0.68341975  0.12500789  0.43311357
   0.93233321  0.78825278  0.52233765
   0.69226712  0.61298853  0.16675070
   0.81539295  0.70946548  0.34417552
   0.93495106  0.46198844  0.74457275
   0.19033533  0.45935095  0.34418801
   0.56981562  0.54917445  0.78889544
   0.56618640  0.36241120  0.16660651
   0.56535617  0.70950975  0.34416449
   0.55268494  0.37388341  0.29978769
   0.18951643  0.46708086  0.87593288
   0.19148550  0.11260361  0.16684035
   0.44489645  0.29912663  0.78878357
   0.68994993  0.78830278  0.25548037
   0.93365929  0.13760282  0.83351377
   0.44309509  0.96073811  0.47746928
   0.56774341  0.72382864  0.87609576
   0.19284880  0.46075190  0.47745471
   0.93183445  0.27791377  0.12411786
   0.31219269  0.04180554  0.38857265
   0.05979417  0.04049368  0.65584061
   0.55840046  0.37496369  0.43312540
   0.93342946  0.62503338  0.43309261
   0.31616638  0.36246121  0.16662092
   0.94691558  0.12627200  0.70011586
   0.56000451  0.04125507  0.65572279
   0.55723068  0.53827560  0.52230247
   0.17785172  0.12369055  0.29968271
   0.44154436  0.11249105  0.16684036
   0.67782704  0.62383342  0.29976846
   0.92787838  0.12380316  0.29970760
   0.81670063  0.37466322  0.56680549
   0.05279789  0.87375608  0.29979472
   0.19170342  0.62503800  0.56680493
   0.94518815  0.79824856  0.78876087
   0.30822637  0.38739947  0.83351935
   0.93907714  0.46711252  0.87595121
   0.43382099  0.63783793  0.83354151
   0.06522874  0.20932663  0.34417009
   0.18936256  0.96602058  0.87605050
   0.93054500  0.77796901  0.12410850
   0.68705166  0.79195298  0.38855901
   0.93467386  0.79071354  0.65590670
   0.94127858  0.11173761  0.16669607
   0.43479601  0.29073236  0.65588370
   0.05351754  0.20177095  0.21143497
   0.67799416  0.95121065  0.21143555
   0.17798306  0.62382940  0.29972860
   0.82237863  0.87597236  0.70015186
   0.94683348  0.62587736  0.70021222
   0.19740290  0.12619538  0.70028231
   0.94284254  0.46073066  0.47746370
   0.81265231  0.20801033  0.61137567
   0.18341193  0.62509014  0.43311205
   0.42784417  0.12394727  0.29979812
   0.67795196  0.12413781  0.29979911
   0.56222559  0.54181872  0.38857191
   0.81530744  0.20935643  0.34417473
   0.43979190  0.46711362  0.87596179
   0.55854005  0.88851626  0.83333837
   0.31797051  0.21074272  0.47745929
   0.19297536  0.96079151  0.47747772
   0.05871829  0.88760207  0.83338499
   0.05736017  0.53821613  0.52234353
   0.94281007  0.96077254  0.47747465
   0.06291039  0.70783978  0.61122417
   0.55742021  0.03824559  0.52234872
   0.69637022  0.29860353  0.78872097
   0.81622658  0.36231393  0.16660504
   0.43339332  0.12508676  0.43309942
   0.06792533  0.21077610  0.47746553
   0.30973505  0.04076290  0.65572965
   0.43226774  0.78826145  0.52219335
   0.18357389  0.13791020  0.83350947
   0.18180525  0.27748384  0.12405006
   0.94033737  0.45928587  0.34417685
   0.31632464  0.86224564  0.16664130
   0.30338175  0.70194308  0.21144997
   0.94121714  0.61252334  0.16678395
   0.18780699  0.45837296  0.61133138
   0.07227222  0.87620113  0.69998721
   0.05986376  0.54069984  0.65580078
   0.30985802  0.53245608  0.12423530
   0.93717604  0.79183695  0.38855160
   0.94640891  0.29823175  0.78859999
   0.18470662  0.29069846  0.65573054
   0.93791770  0.95786184  0.61132350
   0.81118443  0.71137857  0.74460821
   0.68990738  0.28809227  0.25548843
   0.06078107  0.71161320  0.74485622
   0.67859144  0.45091536  0.21129575
   0.81796312  0.21081101  0.47744749
   0.56790531  0.71055079  0.47749678
   0.06625210  0.86274201  0.16655742
   0.93246190  0.28838521  0.52232849
   0.68466090  0.79064087  0.65578004
   0.05841427  0.87499527  0.43310545
   0.06808970  0.22382457  0.87611741
   0.81008640  0.04101633  0.65587140
   0.55959966  0.03321548  0.12426088
   0.30839199  0.37497792  0.43310676
   0.31677938  0.37484084  0.56675893
   0.31785081  0.71071817  0.47743324
   0.05736821  0.03820789  0.52233458
   0.32233045  0.87612389  0.70009289
   0.06600903  0.53756904  0.25538260
   0.68321273  0.13748290  0.83347680
   0.81577535  0.03748901  0.25539991
   0.18341673  0.12505493  0.43310464
   0.69770601  0.12644920  0.70019929
   0.18243689  0.28826512  0.52233113
   0.44014218  0.78819091  0.25546362
   0.81574698  0.53752613  0.25549285
   0.06256568  0.20824115  0.61126069
   0.18711019  0.79179581  0.38854855
   0.30742653  0.53822601  0.52235747
   0.82229617  0.37607116  0.70016924
   0.68724235  0.29179604  0.38859008
   0.19158329  0.12496027  0.56689091
   0.68950403  0.96813551  0.87600580
   0.69190669  0.12510476  0.56670386
   0.44026449  0.95931440  0.34417087
   0.18511024  0.96260298  0.74463044
   0.93992859  0.78819241  0.25545183
   0.55843307  0.87491392  0.43308947
   0.30839334  0.87499149  0.43312483
   0.80725983  0.53825080  0.52233324
   0.92851129  0.45093947  0.21133813
   0.31564587  0.53769881  0.25547262
   0.56216854  0.04178347  0.38856102
   0.93768656  0.45823756  0.61137094
   0.06223283  0.04187750  0.38860765
   0.06208025  0.54187458  0.38856631
   0.43722209  0.29187904  0.38860644
   0.69295502  0.46073908  0.47745675
   0.06680727  0.37477383  0.56678842
   0.55352859  0.70192927  0.21147299
   0.93990126  0.28822676  0.25547775
   0.82049982  0.04946731  0.78882007
   0.19027643  0.95927294  0.34416633
   0.55272867  0.87390362  0.29981026
   0.05834700  0.37497532  0.43311029
   0.31531572  0.70940314  0.34417711
   0.31537742  0.20936436  0.34417034
   0.94166929  0.12500460  0.56688867
   0.43789583  0.95790167  0.61127935
   0.56576071  0.03747244  0.25547249
   0.18186670  0.77809638  0.12415903
   0.06591446  0.03750471  0.25545467
   0.69179050  0.62493024  0.56678634
   0.44136958  0.61224850  0.16675257
   0.30714711  0.03839850  0.52226315
   0.68100820  0.27793996  0.12411536
   0.81792013  0.71067935  0.47744942
   0.43372514  0.13765073  0.83353914
   0.32177728  0.37595494  0.70014013
   0.68367843  0.63750659  0.83351980
   0.56097644  0.71282970  0.74452692
   0.93714094  0.29184061  0.38856379
   0.93927390  0.96673262  0.87592099
   0.93512107  0.96185435  0.74452267
   0.81685329  0.87471879  0.56673572
   0.80283863  0.87395536  0.29981355
   0.31582548  0.03758994  0.25543251
   0.43074814  0.27742157  0.12407679
   0.31260163  0.70803504  0.61136559
   0.43344935  0.62501936  0.43310304
   0.19717414  0.29716504  0.78843343
   0.57095305  0.04949107  0.78865771
   0.07076731  0.55006269  0.78875359
   0.81697552  0.86180884  0.16601591
   0.56042400  0.21182607  0.74450338
   0.56271512  0.20689230  0.61126504
   0.57284804  0.87681420  0.70052940
Direct configuration=     2
   0.05390100  0.70178756  0.21143122
   0.31748256  0.72405853  0.87616807
   0.68770778  0.95813491  0.61126113
   0.43806102  0.45759764  0.61125466
   0.43946033  0.28812689  0.25552129
   0.05892926  0.38771099  0.83359113
   0.30877907  0.88733153  0.83358412
   0.44641619  0.62655193  0.70012854
   0.06097804  0.21212239  0.74480904
   0.17908952  0.45105405  0.21130177
   0.56732130  0.21038398  0.47749380
   0.06642124  0.87483294  0.56672762
   0.56784018  0.22351357  0.87604175
   0.80977952  0.53289819  0.12431465
   0.42920615  0.95127100  0.21128691
   0.56644515  0.37468093  0.56681621
   0.81220225  0.04191610  0.38860797
   0.68308366  0.78867043  0.52217011
   0.44225313  0.46051000  0.47751192
   0.43535023  0.96190291  0.74457068
   0.44159692  0.62495814  0.56671614
   0.06022582  0.53203464  0.12439605
   0.30995711  0.03240518  0.12429918
   0.68991629  0.95918913  0.34421750
   0.68212013  0.77781183  0.12414263
   0.05346276  0.37379265  0.29981732
   0.68934182  0.46785565  0.87587495
   0.42910978  0.45116396  0.21129232
   0.80873200  0.37500635  0.43312343
   0.56277860  0.70800622  0.61136103
   0.56030628  0.54122343  0.65568321
   0.93380666  0.12498702  0.43311468
   0.56523282  0.53757243  0.25547926
   0.68985232  0.45916687  0.34422441
   0.19106784  0.61235979  0.16669324
   0.19506298  0.79845186  0.78863585
   0.44717621  0.12579837  0.70011238
   0.92855131  0.62373725  0.29974139
   0.31766161  0.22354742  0.87604234
   0.31641670  0.87458959  0.56676467
   0.81785634  0.22329844  0.87608334
   0.81040604  0.54105338  0.65574588
   0.55930485  0.53186965  0.12434362
   0.56560851  0.86283551  0.16655874
   0.18938150  0.28812451  0.25550429
   0.80875304  0.87497172  0.43312250
   0.57133539  0.37635801  0.70010799
   0.06002238  0.03245548  0.12430643
   0.31019915  0.54076536  0.65576508
   0.56493293  0.20929228  0.34418643
   0.18792352  0.95792429  0.61133339
   0.30345700  0.37378233  0.29978547
   0.43501696  0.79072528  0.65566281
   0.68531275  0.46218544  0.74470317
   0.06589170  0.36256596  0.16652906
   0.69644481  0.62633152  0.70037542
   0.31219900  0.54188081  0.38858082
   0.06788438  0.72343996  0.87607105
   0.93393100  0.63739695  0.83360688
   0.31975496  0.54967547  0.78870269
   0.30395414  0.20176034  0.21143359
   0.06728600  0.71047141  0.47751375
   0.55396638  0.20182999  0.21145249
   0.31153914  0.21175406  0.74449473
   0.07153798  0.37608269  0.70036265
   0.18380132  0.63744856  0.83351740
   0.07070916  0.04891242  0.78873931
   0.44137085  0.12483926  0.56674897
   0.93536680  0.29105420  0.65569102
   0.80400507  0.20169413  0.21142990
   0.92943728  0.95126238  0.21139683
   0.94124357  0.62503328  0.56684875
   0.80900559  0.38781730  0.83358052
   0.19662979  0.62616273  0.70007265
   0.80883770  0.88740518  0.83358988
   0.68525967  0.29082358  0.65576707
   0.31267409  0.20808109  0.61131180
   0.43605675  0.46231093  0.74445539
   0.43722904  0.79194672  0.38860970
   0.68586996  0.96218453  0.74450649
   0.80395139  0.70171377  0.21147573
   0.81312438  0.70777077  0.61128456
   0.43129009  0.77832466  0.12419922
   0.31114151  0.71236258  0.74445160
   0.32063048  0.04919116  0.78874312
   0.81216161  0.54185394  0.38857657
   0.68294062  0.28846209  0.52228646
   0.69465775  0.79843530  0.78867206
   0.18944124  0.78808449  0.25550831
   0.69085967  0.11236400  0.16668455
   0.69236077  0.96041686  0.47752314
   0.93989056  0.95915922  0.34420386
   0.80811604  0.03851126  0.52224445
   0.68381868  0.62504418  0.43310239
   0.43995449  0.45922544  0.34420236
   0.81124432  0.21208900  0.74456980
   0.43957080  0.96789552  0.87590305
   0.56628780  0.87492960  0.56684840
   0.81018479  0.03182921  0.12441657
   0.42855435  0.62378168  0.29973330
   0.81735873  0.72330837  0.87605076
   0.68761402  0.45809405  0.61123238
   0.55882951  0.38758450  0.83328260
   0.80346092  0.37382253  0.29973363
   0.18703974  0.29188169  0.38854343
   0.82056457  0.54915326  0.78879473
   0.18299056  0.78853603  0.52229340
   0.30345550  0.87376282  0.29977064
   0.17924591  0.95114144  0.21127164
   0.18620748  0.46149716  0.74463833
   0.43294671  0.28847655  0.52227739
   0.06497484  0.70930980  0.34419686
   0.18526173  0.79067570  0.65583371
   0.44540802  0.79846251  0.78869396
   0.68378807  0.12503409  0.43311592
   0.93290252  0.78852703  0.52230227
   0.69175436  0.61309530  0.16666787
   0.81493405  0.70933560  0.34420226
   0.93554915  0.46208442  0.74455194
   0.18987944  0.45925499  0.34421791
   0.56950332  0.54911129  0.78889187
   0.56561389  0.36258705  0.16655714
   0.56490882  0.70937820  0.34419776
   0.55338212  0.37383365  0.29978827
   0.18941204  0.46764846  0.87587006
   0.19104663  0.11285210  0.16674340
   0.44461116  0.29909249  0.78875220
   0.68943106  0.78815332  0.25551631
   0.93410702  0.13747015  0.83355703
   0.44248813  0.96048944  0.47751990
   0.56744384  0.72320930  0.87603342
   0.19228553  0.46050984  0.47751101
   0.93219586  0.27837787  0.12418297
   0.31215423  0.04186659  0.38856999
   0.06025827  0.04061361  0.65579817
   0.55876872  0.37499706  0.43312500
   0.93379911  0.62505682  0.43309588
   0.31569128  0.36264955  0.16658320
   0.94630700  0.12630738  0.70012691
   0.56043578  0.04123899  0.65570283
   0.55780719  0.53863874  0.52225752
   0.17854146  0.12367184  0.29969448
   0.44110247  0.11274772  0.16674514
   0.67853569  0.62379046  0.29977023
   0.92857476  0.12376717  0.29971966
   0.81629837  0.37463204  0.56678851
   0.05347905  0.87372324  0.29979646
   0.19134116  0.62498030  0.56679065
   0.94471359  0.79823770  0.78874906
   0.30854140  0.38730512  0.83360771
   0.93906725  0.46770838  0.87588684
   0.43421631  0.63768354  0.83361085
   0.06479966  0.20923986  0.34419562
   0.18925518  0.96670807  0.87596290
   0.93093020  0.77840013  0.12411980
   0.68704583  0.79197013  0.38855783
   0.93512686  0.79075841  0.65585379
   0.94090324  0.11199645  0.16662565
   0.43523405  0.29087187  0.65583691
   0.05404182  0.20172671  0.21143827
   0.67855896  0.95128855  0.21142841
   0.17864695  0.62379007  0.29973309
   0.82176671  0.87601587  0.70015475
   0.94626594  0.62588380  0.70021519
   0.19672816  0.12626315  0.70025463
   0.94229678  0.46048545  0.47751934
   0.81278063  0.20795750  0.61137396
   0.18378034  0.62509961  0.43311470
   0.42853423  0.12388589  0.29979302
   0.67861590  0.12403921  0.29979252
   0.56217659  0.54185994  0.38856944
   0.81486719  0.20924271  0.34420484
   0.43980231  0.46777425  0.87587315
   0.55890017  0.88821800  0.83344558
   0.31739532  0.21049735  0.47751052
   0.19239927  0.96055044  0.47753320
   0.05906023  0.88745232  0.83347334
   0.05790697  0.53850924  0.52230170
   0.94226860  0.96053373  0.47752901
   0.06293314  0.70781828  0.61123994
   0.55797077  0.03854370  0.52230548
   0.69593875  0.29856270  0.78870691
   0.81571321  0.36246221  0.16656368
   0.43376873  0.12510307  0.43310294
   0.06736172  0.21052698  0.47751799
   0.31023937  0.04083617  0.65568904
   0.43283046  0.78857781  0.52217702
   0.18404281  0.13778957  0.83355210
   0.18210152  0.27794943  0.12411612
   0.93988742  0.45921668  0.34420619
   0.31584913  0.86241246  0.16658721
   0.30391588  0.70188284  0.21145096
   0.94075178  0.61261588  0.16670105
   0.18786577  0.45830596  0.61133775
   0.07160476  0.87630388  0.70002808
   0.06031604  0.54076264  0.65577215
   0.30993025  0.53206818  0.12430327
   0.93715081  0.79187882  0.38855398
   0.94575404  0.29838443  0.78861587
   0.18514409  0.29079561  0.65571195
   0.93793510  0.95779457  0.61133515
   0.81171101  0.71158284  0.74457594
   0.68938385  0.28795967  0.25551332
   0.06125261  0.71180779  0.74477660
   0.67907848  0.45099758  0.21128845
   0.81738733  0.21054374  0.47750054
   0.56734039  0.71030363  0.47754741
   0.06578208  0.86294121  0.16652620
   0.93300335  0.28866618  0.52229306
   0.68510339  0.79077347  0.65576136
   0.05877755  0.87501229  0.43310539
   0.06778383  0.22318601  0.87607315
   0.81050301  0.04104786  0.65581274
   0.55974212  0.03270631  0.12433318
   0.30876729  0.37501172  0.43310790
   0.31642103  0.37478575  0.56674544
   0.31728264  0.71046136  0.47748484
   0.05791386  0.03851826  0.52229824
   0.32156159  0.87619450  0.70009180
   0.06532716  0.53759894  0.25542154
   0.68369129  0.13737260  0.83352770
   0.81512480  0.03749115  0.25544066
   0.18378824  0.12506577  0.43311068
   0.69699372  0.12647045  0.70018718
   0.18297012  0.28855030  0.52229572
   0.43956526  0.78803314  0.25549730
   0.81511420  0.53755154  0.25551502
   0.06264902  0.20816571  0.61127140
   0.18709335  0.79185216  0.38855186
   0.30797074  0.53852279  0.52231827
   0.82161625  0.37617512  0.70017578
   0.68719580  0.29184643  0.38858756
   0.19123011  0.12486318  0.56685761
   0.68937637  0.96858463  0.87592461
   0.69151334  0.12501669  0.56669475
   0.43981933  0.95923759  0.34420497
   0.18562608  0.96252208  0.74458173
   0.93938084  0.78804402  0.25548864
   0.55880061  0.87496890  0.43309263
   0.30877431  0.87501377  0.43312641
   0.80782063  0.53852751  0.52229813
   0.92904439  0.45100174  0.21132691
   0.31503724  0.53768624  0.25549445
   0.56212958  0.04183547  0.38856312
   0.93775770  0.45822457  0.61137242
   0.06218487  0.04190815  0.38860141
   0.06206033  0.54190764  0.38856537
   0.43717061  0.29191345  0.38859726
   0.69238133  0.46048581  0.47750870
   0.06643499  0.37471075  0.56677613
   0.55408767  0.70187108  0.21146601
   0.93939322  0.28807106  0.25551277
   0.82010862  0.04942440  0.78882142
   0.18983258  0.95920215  0.34419717
   0.55341965  0.87385752  0.29980891
   0.05873157  0.37501062  0.43311333
   0.31487804  0.70929261  0.34420394
   0.31491760  0.20927779  0.34420648
   0.94132721  0.12489554  0.56685921
   0.43792462  0.95784683  0.61128343
   0.56513141  0.03754310  0.25550367
   0.18228809  0.77849374  0.12421724
   0.06524516  0.03754332  0.25547855
   0.69140607  0.62489723  0.56676959
   0.44095024  0.61240549  0.16666848
   0.30772143  0.03863334  0.52223377
   0.68138504  0.27834947  0.12417703
   0.81735735  0.71042131  0.47750468
   0.43420220  0.13753098  0.83360543
   0.32114853  0.37606849  0.70015431
   0.68414380  0.63738616  0.83357225
   0.56140032  0.71281385  0.74451536
   0.93712393  0.29188148  0.38856297
   0.93926086  0.96737757  0.87584025
   0.93567634  0.96188021  0.74449750
   0.81646950  0.87470705  0.56672372
   0.80351375  0.87389711  0.29981119
   0.31519471  0.03761314  0.25547168
   0.43119868  0.27787644  0.12413546
   0.31261406  0.70793227  0.61135559
   0.43379619  0.62503893  0.43310675
   0.19659649  0.29725957  0.78844209
   0.57051462  0.04936249  0.78865302
   0.07027841  0.55000767  0.78873892
   0.81646707  0.86200084  0.16599870
   0.56092089  0.21193504  0.74448018
   0.56276348  0.20706678  0.61126159
   0.57218923  0.87675894  0.70048584
Direct configuration=     3
   0.05548082  0.70167392  0.21147025
   0.31694111  0.72194325  0.87593495
   0.68801680  0.95775213  0.61127962
   0.43810976  0.45761445  0.61131068
   0.43780044  0.28770460  0.25562297
   0.05999079  0.38710163  0.83389414
   0.31014915  0.88680762  0.83383872
   0.44433530  0.62646159  0.70013460
   0.06251447  0.21247458  0.74459144
   0.18062602  0.45125184  0.21130141
   0.56567614  0.20969896  0.47766392
   0.06528184  0.87461623  0.56667890
   0.56674811  0.22148803  0.87586349
   0.81013309  0.53134085  0.12451615
   0.43070538  0.95125131  0.21128993
   0.56539060  0.37453717  0.56672921
   0.81208958  0.04203744  0.38856728
   0.68462379  0.78954706  0.52214384
   0.44059494  0.45969614  0.47766200
   0.43701096  0.96206001  0.74449713
   0.44027408  0.62478087  0.56669926
   0.06031578  0.53046681  0.12458542
   0.31026064  0.03090476  0.12453796
   0.68854676  0.95901031  0.34432364
   0.68319272  0.77928756  0.12425218
   0.05553032  0.37365257  0.29979207
   0.68907907  0.46957606  0.87563677
   0.43059754  0.45128890  0.21130342
   0.80988704  0.37510932  0.43312488
   0.56296577  0.70789938  0.61134650
   0.56161982  0.54137755  0.65558244
   0.93491601  0.12507639  0.43313036
   0.56331117  0.53764842  0.25555580
   0.68851476  0.45899148  0.34430747
   0.18988934  0.61279960  0.16642460
   0.19400721  0.79847945  0.78858937
   0.44474979  0.12596789  0.70010458
   0.93064441  0.62365383  0.29977211
   0.31640907  0.22176140  0.87590119
   0.31517273  0.87452484  0.56668819
   0.81704093  0.22157923  0.87587626
   0.81168338  0.54119327  0.65565856
   0.55985781  0.53034585  0.12455686
   0.56413346  0.86341755  0.16645780
   0.18780224  0.28772191  0.25560166
   0.80991017  0.87505947  0.43313662
   0.56940907  0.37656032  0.70016973
   0.06010766  0.03105673  0.12449891
   0.31161476  0.54100021  0.65563035
   0.56355588  0.20899671  0.34428186
   0.18809324  0.95773536  0.61135534
   0.30547602  0.37364458  0.29979133
   0.43638947  0.79096595  0.65555174
   0.68714798  0.46229463  0.74456896
   0.06470270  0.36297564  0.16636705
   0.69465874  0.62620577  0.70027985
   0.31208326  0.54201990  0.38857035
   0.06681032  0.72129823  0.87589851
   0.93519702  0.63708683  0.83378925
   0.31879062  0.54958004  0.78873097
   0.30555416  0.20163537  0.21143428
   0.06566250  0.70969998  0.47766841
   0.55556505  0.20165892  0.21147184
   0.31292542  0.21210003  0.74439989
   0.06944926  0.37623868  0.70028970
   0.18521037  0.63711541  0.83366959
   0.06897561  0.04859164  0.78880325
   0.44017985  0.12467145  0.56669789
   0.93667053  0.29125891  0.65563305
   0.80552007  0.20145250  0.21142579
   0.93088258  0.95138607  0.21134037
   0.94023524  0.62484096  0.56678610
   0.81027645  0.38738059  0.83385110
   0.19451225  0.62627194  0.70010102
   0.80994799  0.88699227  0.83382677
   0.68675836  0.29135744  0.65565334
   0.31270853  0.20792015  0.61133955
   0.43730792  0.46250507  0.74438874
   0.43706287  0.79199781  0.38857819
   0.68778958  0.96247160  0.74450108
   0.80554124  0.70134497  0.21150536
   0.81343575  0.70759229  0.61127911
   0.43231219  0.77964891  0.12436782
   0.31227245  0.71252449  0.74438178
   0.31895071  0.04906324  0.78883620
   0.81204107  0.54201421  0.38857123
   0.68462039  0.28940007  0.52216776
   0.69362668  0.79845625  0.78866635
   0.18782086  0.78764472  0.25559946
   0.68942999  0.11289462  0.16647858
   0.69069897  0.95972270  0.47767508
   0.93849615  0.95901218  0.34429904
   0.80972680  0.03926245  0.52210239
   0.68495575  0.62507710  0.43311714
   0.43852185  0.45903485  0.34430859
   0.81274902  0.21231603  0.74448860
   0.43949993  0.96963608  0.87566265
   0.56537026  0.87478108  0.56674649
   0.81034103  0.03051363  0.12444364
   0.43062285  0.62374117  0.29975355
   0.81620350  0.72156758  0.87589864
   0.68800071  0.45797024  0.61130262
   0.55994165  0.38731494  0.83363854
   0.80550490  0.37373949  0.29976384
   0.18703499  0.29202569  0.38855145
   0.81903741  0.54924080  0.78884364
   0.18459528  0.78939748  0.52218631
   0.30552888  0.87366779  0.29978285
   0.18056272  0.95122554  0.21129006
   0.18743537  0.46228331  0.74453768
   0.43460380  0.28936730  0.52215711
   0.06357280  0.70897839  0.34428758
   0.18664831  0.79079136  0.65570443
   0.44396942  0.79850000  0.78867911
   0.68489306  0.12511267  0.43312298
   0.93461046  0.78934978  0.52219612
   0.69021608  0.61341561  0.16641938
   0.81355734  0.70894595  0.34428245
   0.93734344  0.46237237  0.74448951
   0.18851176  0.45896709  0.34430763
   0.56856641  0.54892181  0.78888119
   0.56389636  0.36311460  0.16640902
   0.56356676  0.70898356  0.34429755
   0.55547364  0.37368437  0.29979000
   0.18909886  0.46935124  0.87568163
   0.18973005  0.11359758  0.16645256
   0.44375529  0.29899008  0.78865808
   0.68787444  0.78770494  0.25562412
   0.93545024  0.13707214  0.83368681
   0.44066723  0.95974343  0.47767178
   0.56654513  0.72135129  0.87584638
   0.19059572  0.45978366  0.47767992
   0.93328008  0.27977017  0.12437827
   0.31203887  0.04204973  0.38856199
   0.06165055  0.04097342  0.65567082
   0.55987348  0.37509715  0.43312379
   0.93490807  0.62512717  0.43310571
   0.31426599  0.36321455  0.16647005
   0.94448125  0.12641351  0.70016006
   0.56172958  0.04119074  0.65564296
   0.55953673  0.53972814  0.52212269
   0.18061068  0.12361570  0.29972981
   0.43977680  0.11351774  0.16645949
   0.68066166  0.62366156  0.29977554
   0.93066391  0.12365921  0.29975583
   0.81509161  0.37453849  0.56673757
   0.05552252  0.87362471  0.29980170
   0.19025440  0.62480722  0.56674779
   0.94328990  0.79820512  0.78871364
   0.30948648  0.38702209  0.83387277
   0.93903760  0.46949594  0.87569375
   0.43540224  0.63722037  0.83381890
   0.06351243  0.20897953  0.34427223
   0.18893304  0.96877057  0.87570009
   0.93208579  0.77969348  0.12415367
   0.68702833  0.79202157  0.38855428
   0.93648587  0.79089303  0.65569506
   0.93977724  0.11277298  0.16641438
   0.43654818  0.29129038  0.65569655
   0.05561467  0.20159398  0.21144815
   0.68025335  0.95152222  0.21140699
   0.18063862  0.62367206  0.29974655
   0.81993096  0.87614640  0.70016344
   0.94456333  0.62590313  0.70022408
   0.19470392  0.12646645  0.70017161
   0.94065950  0.45974981  0.47768624
   0.81316559  0.20779901  0.61136885
   0.18488559  0.62512802  0.43312263
   0.43060443  0.12370173  0.29977770
   0.68060772  0.12374341  0.29977277
   0.56202959  0.54198359  0.38856205
   0.81354644  0.20890158  0.34429520
   0.43983352  0.46975612  0.87560722
   0.55998054  0.88732320  0.83376719
   0.31566975  0.20976122  0.47766422
   0.19067099  0.95982724  0.47769963
   0.06008602  0.88700306  0.83373837
   0.05954737  0.53938856  0.52217622
   0.94064420  0.95981733  0.47769208
   0.06300139  0.70775378  0.61128724
   0.55962245  0.03943802  0.52217577
   0.69464435  0.29844020  0.78866472
   0.81417311  0.36290705  0.16643961
   0.43489495  0.12515200  0.43311352
   0.06567086  0.20977961  0.47767536
   0.31175236  0.04105595  0.65556724
   0.43451862  0.78952689  0.52212801
   0.18544955  0.13742768  0.83367999
   0.18299032  0.27934617  0.12431431
   0.93853758  0.45900910  0.34429419
   0.31442260  0.86291294  0.16642494
   0.30551829  0.70170209  0.21145394
   0.93935569  0.61289349  0.16645235
   0.18804212  0.45810497  0.61135685
   0.06960238  0.87661216  0.70015067
   0.06167288  0.54095104  0.65568626
   0.31014692  0.53090448  0.12450718
   0.93707512  0.79200444  0.38856113
   0.94378942  0.29884248  0.78866350
   0.18645650  0.29108705  0.65565619
   0.93798730  0.95759273  0.61137013
   0.81329072  0.71219567  0.74447914
   0.68781326  0.28756185  0.25558800
   0.06266722  0.71239156  0.74453771
   0.68053959  0.45124422  0.21126656
   0.81565996  0.20974191  0.47765970