 288 288   0   0
  0.1280206E+02  0.9726678E-09  0.8423550E-09  0.4500000E-08  0.2500000E-15
  1.000000000000000E-004
  CAR 
 unknown system                          
      6.78113385     -6.07861562  301      4.31053203      1.00000000
     -6.079  0.0000E+00  0.0000E+00
     -6.036  0.0000E+00  0.0000E+00
     -5.993  0.0000E+00  0.0000E+00
     -5.950  0.0000E+00  0.0000E+00
     -5.907  0.0000E+00  0.0000E+00
     -5.864  0.0000E+00  0.0000E+00
     -5.821  0.0000E+00  0.0000E+00
     -5.779  0.0000E+00  0.0000E+00
     -5.736  0.0000E+00  0.0000E+00
     -5.693  0.0000E+00  0.0000E+00
     -5.650  0.0000E+00  0.0000E+00
     -5.607  0.0000E+00  0.0000E+00
     -5.564  0.0000E+00  0.0000E+00
     -5.521  0.0000E+00  0.0000E+00
     -5.478  0.0000E+00  0.0000E+00
     -5.436  0.1942E-15  0.8327E-17
     -5.393  0.4597E-14  0.2054E-15
     -5.350  0.9878E-13  0.4440E-14
     -5.307  0.1802E-11  0.8170E-13
     -5.264  0.2798E-10  0.1281E-11
     -5.221  0.3696E-09  0.1712E-10
     -5.178  0.4155E-08  0.1952E-09
     -5.136  0.3975E-07  0.1899E-08
     -5.093  0.3240E-06  0.1579E-07
     -5.050  0.2249E-05  0.1122E-06
     -5.007  0.1332E-04  0.6831E-06
     -4.964  0.6733E-04  0.3569E-05
     -4.921  0.2912E-03  0.1605E-04
     -4.878  0.1081E-02  0.6239E-04
     -4.836  0.3459E-02  0.2107E-03
     -4.793  0.9603E-02  0.6223E-03
     -4.750  0.2335E-01  0.1623E-02
     -4.707  0.5030E-01  0.3779E-02
     -4.664  0.9733E-01  0.7951E-02
     -4.621  0.1716E+00  0.1531E-01
     -4.578  0.2787E+00  0.2725E-01
     -4.535  0.4208E+00  0.4529E-01
     -4.493  0.5945E+00  0.7078E-01
     -4.450  0.7902E+00  0.1046E+00
     -4.407  0.9938E+00  0.1473E+00
     -4.364  0.1190E+01  0.1982E+00
     -4.321  0.1363E+01  0.2567E+00
     -4.278  0.1507E+01  0.3213E+00
     -4.235  0.1624E+01  0.3909E+00
     -4.193  0.1728E+01  0.4650E+00
     -4.150  0.1834E+01  0.5436E+00
     -4.107  0.1960E+01  0.6276E+00
     -4.064  0.2117E+01  0.7184E+00
     -4.021  0.2303E+01  0.8171E+00
     -3.978  0.2504E+01  0.9244E+00
     -3.935  0.2699E+01  0.1040E+01
     -3.892  0.2865E+01  0.1163E+01
     -3.850  0.2988E+01  0.1291E+01
     -3.807  0.3062E+01  0.1422E+01
     -3.764  0.3095E+01  0.1555E+01
     -3.721  0.3106E+01  0.1688E+01
     -3.678  0.3121E+01  0.1822E+01
     -3.635  0.3160E+01  0.1957E+01
     -3.592  0.3238E+01  0.2096E+01
     -3.550  0.3358E+01  0.2240E+01
     -3.507  0.3515E+01  0.2391E+01
     -3.464  0.3695E+01  0.2549E+01
     -3.421  0.3877E+01  0.2715E+01
     -3.378  0.4036E+01  0.2888E+01
     -3.335  0.4149E+01  0.3066E+01
     -3.292  0.4203E+01  0.3246E+01
     -3.249  0.4209E+01  0.3427E+01
     -3.207  0.4198E+01  0.3607E+01
     -3.164  0.4219E+01  0.3787E+01
     -3.121  0.4313E+01  0.3972E+01
     -3.078  0.4495E+01  0.4165E+01
     -3.035  0.4749E+01  0.4369E+01
     -2.992  0.5024E+01  0.4584E+01
     -2.949  0.5254E+01  0.4809E+01
     -2.907  0.5382E+01  0.5040E+01
     -2.864  0.5392E+01  0.5271E+01
     -2.821  0.5324E+01  0.5499E+01
     -2.778  0.5259E+01  0.5725E+01
     -2.735  0.5270E+01  0.5951E+01
     -2.692  0.5381E+01  0.6181E+01
     -2.649  0.5551E+01  0.6419E+01
     -2.606  0.5700E+01  0.6663E+01
     -2.564  0.5767E+01  0.6911E+01
     -2.521  0.5753E+01  0.7157E+01
     -2.478  0.5725E+01  0.7403E+01
     -2.435  0.5783E+01  0.7651E+01
     -2.392  0.6010E+01  0.7908E+01
     -2.349  0.6412E+01  0.8183E+01
     -2.306  0.6893E+01  0.8479E+01
     -2.264  0.7288E+01  0.8791E+01
     -2.221  0.7455E+01  0.9111E+01
     -2.178  0.7367E+01  0.9426E+01
     -2.135  0.7136E+01  0.9732E+01
     -2.092  0.6948E+01  0.1003E+02
     -2.049  0.6967E+01  0.1033E+02
     -2.006  0.7252E+01  0.1064E+02
     -1.963  0.7735E+01  0.1097E+02
     -1.921  0.8258E+01  0.1133E+02
     -1.878  0.8651E+01  0.1170E+02
     -1.835  0.8825E+01  0.1207E+02
     -1.792  0.8812E+01  0.1245E+02
     -1.749  0.8731E+01  0.1283E+02
     -1.706  0.8706E+01  0.1320E+02
     -1.663  0.8790E+01  0.1358E+02
     -1.621  0.8968E+01  0.1396E+02
     -1.578  0.9201E+01  0.1435E+02
     -1.535  0.9461E+01  0.1476E+02
     -1.492  0.9744E+01  0.1518E+02
     -1.449  0.1005E+02  0.1561E+02
     -1.406  0.1034E+02  0.1605E+02
     -1.363  0.1060E+02  0.1651E+02
     -1.321  0.1080E+02  0.1697E+02
     -1.278  0.1103E+02  0.1744E+02
     -1.235  0.1143E+02  0.1793E+02
     -1.192  0.1212E+02  0.1845E+02
     -1.149  0.1308E+02  0.1901E+02
     -1.106  0.1411E+02  0.1962E+02
     -1.063  0.1494E+02  0.2026E+02
     -1.020  0.1541E+02  0.2092E+02
     -0.978  0.1561E+02  0.2159E+02
     -0.935  0.1584E+02  0.2227E+02
     -0.892  0.1649E+02  0.2297E+02
     -0.849  0.1776E+02  0.2373E+02
     -0.806  0.1965E+02  0.2458E+02
     -0.763  0.2203E+02  0.2552E+02
     -0.720  0.2484E+02  0.2659E+02
     -0.678  0.2810E+02  0.2779E+02
     -0.635  0.3189E+02  0.2916E+02
     -0.592  0.3611E+02  0.3071E+02
     -0.549  0.4044E+02  0.3244E+02
     -0.506  0.4444E+02  0.3434E+02
     -0.463  0.4776E+02  0.3639E+02
     -0.420  0.5028E+02  0.3855E+02
     -0.377  0.5215E+02  0.4078E+02
     -0.335  0.5365E+02  0.4308E+02
     -0.292  0.5498E+02  0.4544E+02
     -0.249  0.5616E+02  0.4785E+02
     -0.206  0.5705E+02  0.5029E+02
     -0.163  0.5753E+02  0.5276E+02
     -0.120  0.5765E+02  0.5523E+02
     -0.077  0.5767E+02  0.5770E+02
     -0.035  0.5789E+02  0.6018E+02
      0.008  0.5859E+02  0.6269E+02
      0.051  0.5992E+02  0.6526E+02
      0.094  0.6197E+02  0.6792E+02
      0.137  0.6473E+02  0.7069E+02
      0.180  0.6798E+02  0.7361E+02
      0.223  0.7139E+02  0.7667E+02
      0.266  0.7462E+02  0.7987E+02
      0.308  0.7747E+02  0.8319E+02
      0.351  0.7988E+02  0.8661E+02
      0.394  0.8191E+02  0.9012E+02
      0.437  0.8359E+02  0.9371E+02
      0.480  0.8492E+02  0.9735E+02
      0.523  0.8581E+02  0.1010E+03
      0.566  0.8620E+02  0.1047E+03
      0.608  0.8608E+02  0.1084E+03
      0.651  0.8552E+02  0.1121E+03
      0.694  0.8455E+02  0.1157E+03
      0.737  0.8320E+02  0.1193E+03
      0.780  0.8151E+02  0.1228E+03
      0.823  0.7970E+02  0.1262E+03
      0.866  0.7805E+02  0.1295E+03
      0.909  0.7684E+02  0.1328E+03
      0.951  0.7614E+02  0.1361E+03
      0.994  0.7579E+02  0.1393E+03
      1.037  0.7548E+02  0.1426E+03
      1.080  0.7490E+02  0.1458E+03
      1.123  0.7401E+02  0.1489E+03
      1.166  0.7305E+02  0.1521E+03
      1.209  0.7244E+02  0.1552E+03
      1.251  0.7246E+02  0.1583E+03
      1.294  0.7296E+02  0.1614E+03
      1.337  0.7340E+02  0.1646E+03
      1.380  0.7321E+02  0.1677E+03
      1.423  0.7214E+02  0.1708E+03
      1.466  0.7048E+02  0.1738E+03
      1.509  0.6884E+02  0.1768E+03
      1.552  0.6788E+02  0.1797E+03
      1.594  0.6793E+02  0.1826E+03
      1.637  0.6901E+02  0.1855E+03
      1.680  0.7088E+02  0.1886E+03
      1.723  0.7318E+02  0.1917E+03
      1.766  0.7560E+02  0.1950E+03
      1.809  0.7793E+02  0.1983E+03
      1.852  0.8005E+02  0.2017E+03
      1.894  0.8192E+02  0.2052E+03
      1.937  0.8356E+02  0.2088E+03
      1.980  0.8508E+02  0.2125E+03
      2.023  0.8661E+02  0.2162E+03
      2.066  0.8819E+02  0.2200E+03
      2.109  0.8982E+02  0.2238E+03
      2.152  0.9146E+02  0.2277E+03
      2.194  0.9309E+02  0.2317E+03
      2.237  0.9478E+02  0.2358E+03
      2.280  0.9675E+02  0.2399E+03
      2.323  0.9927E+02  0.2442E+03
      2.366  0.1025E+03  0.2486E+03
      2.409  0.1064E+03  0.2532E+03
      2.452  0.1108E+03  0.2579E+03
      2.495  0.1153E+03  0.2628E+03
      2.537  0.1195E+03  0.2680E+03
      2.580  0.1230E+03  0.2732E+03
      2.623  0.1255E+03  0.2786E+03
      2.666  0.1272E+03  0.2841E+03
      2.709  0.1281E+03  0.2896E+03
      2.752  0.1288E+03  0.2951E+03
      2.795  0.1299E+03  0.3007E+03
      2.837  0.1320E+03  0.3063E+03
      2.880  0.1351E+03  0.3121E+03
      2.923  0.1387E+03  0.3180E+03
      2.966  0.1415E+03  0.3241E+03
      3.009  0.1417E+03  0.3302E+03
      3.052  0.1384E+03  0.3361E+03
      3.095  0.1314E+03  0.3417E+03
      3.138  0.1221E+03  0.3470E+03
      3.180  0.1124E+03  0.3518E+03
      3.223  0.1038E+03  0.3563E+03
      3.266  0.9739E+02  0.3604E+03
      3.309  0.9320E+02  0.3644E+03
      3.352  0.9097E+02  0.3683E+03
      3.395  0.9013E+02  0.3722E+03
      3.438  0.8996E+02  0.3760E+03
      3.480  0.8969E+02  0.3799E+03
      3.523  0.8875E+02  0.3837E+03
      3.566  0.8703E+02  0.3874E+03
      3.609  0.8503E+02  0.3911E+03
      3.652  0.8359E+02  0.3946E+03
      3.695  0.8344E+02  0.3982E+03
      3.738  0.8480E+02  0.4019E+03
      3.781  0.8728E+02  0.4056E+03
      3.823  0.9021E+02  0.4095E+03
      3.866  0.9305E+02  0.4135E+03
      3.909  0.9556E+02  0.4176E+03
      3.952  0.9773E+02  0.4217E+03
      3.995  0.9964E+02  0.4260E+03
      4.038  0.1012E+03  0.4304E+03
      4.081  0.1024E+03  0.4347E+03
      4.123  0.1030E+03  0.4392E+03
      4.166  0.1027E+03  0.4436E+03
      4.209  0.1018E+03  0.4479E+03
      4.252  0.1004E+03  0.4522E+03
      4.295  0.9897E+02  0.4565E+03
      4.338  0.9798E+02  0.4607E+03
      4.381  0.9764E+02  0.4649E+03
      4.424  0.9793E+02  0.4690E+03
      4.466  0.9860E+02  0.4733E+03
      4.509  0.9922E+02  0.4775E+03
      4.552  0.9944E+02  0.4818E+03
      4.595  0.9914E+02  0.4860E+03
      4.638  0.9853E+02  0.4903E+03
      4.681  0.9805E+02  0.4945E+03
      4.724  0.9822E+02  0.4987E+03
      4.766  0.9934E+02  0.5029E+03
      4.809  0.1014E+03  0.5073E+03
      4.852  0.1041E+03  0.5117E+03
      4.895  0.1072E+03  0.5163E+03
      4.938  0.1103E+03  0.5211E+03
      4.981  0.1128E+03  0.5259E+03
      5.024  0.1138E+03  0.5308E+03
      5.067  0.1120E+03  0.5356E+03
      5.109  0.1062E+03  0.5401E+03
      5.152  0.9528E+02  0.5442E+03
      5.195  0.7971E+02  0.5476E+03
      5.238  0.6125E+02  0.5503E+03
      5.281  0.4270E+02  0.5521E+03
      5.324  0.2672E+02  0.5532E+03
      5.367  0.1488E+02  0.5539E+03
      5.409  0.7326E+01  0.5542E+03
      5.452  0.3173E+01  0.5543E+03
      5.495  0.1204E+01  0.5544E+03
      5.538  0.3990E+00  0.5544E+03
      5.581  0.1152E+00  0.5544E+03
      5.624  0.2891E-01  0.5544E+03
      5.667  0.6297E-02  0.5544E+03
      5.709  0.1189E-02  0.5544E+03
      5.752  0.1942E-03  0.5544E+03
      5.795  0.2743E-04  0.5544E+03
      5.838  0.3346E-05  0.5544E+03
      5.881  0.3520E-06  0.5544E+03
      5.924  0.3190E-07  0.5544E+03
      5.967  0.2489E-08  0.5544E+03
      6.010  0.1670E-09  0.5544E+03
      6.052  0.9625E-11  0.5544E+03
      6.095  0.4749E-12  0.5544E+03
      6.138  0.1858E-13  0.5544E+03
      6.181  0.5180E-15  0.5544E+03
      6.224  0.0000E+00  0.5544E+03
      6.267  0.0000E+00  0.5544E+03
      6.310  0.0000E+00  0.5544E+03
      6.352  0.0000E+00  0.5544E+03
      6.395  0.0000E+00  0.5544E+03
      6.438  0.0000E+00  0.5544E+03
      6.481  0.0000E+00  0.5544E+03
      6.524  0.0000E+00  0.5544E+03
      6.567  0.0000E+00  0.5544E+03
      6.610  0.0000E+00  0.5544E+03
      6.653  0.0000E+00  0.5544E+03
      6.695  0.0000E+00  0.5544E+03
      6.738  0.0000E+00  0.5544E+03
      6.781  0.0000E+00  0.5544E+03
