<?xml version="1.0" encoding="ISO-8859-1"?>
<modeling>
 <generator>
  <i name="program" type="string">vasp </i>
  <i name="version" type="string">5.4.4.18Apr17-6-g9f103f2a35  </i>
  <i name="subversion" type="string">(build Sep 27 2018 12:46:37) complex + VL-xray_ parallel </i>
  <i name="platform" type="string">LLNL_Quartz_ifc </i>
  <i name="date" type="string">2021 09 26 </i>
  <i name="time" type="string">21:45:34 </i>
 </generator>
 <incar>
  <i type="int" name="ISTART">     2</i>
  <i type="string" name="PREC">accurate</i>
  <i type="string" name="ALGO"> Fast</i>
  <i type="int" name="ICHARG">     2</i>
  <i type="int" name="INIWAV">     1</i>
  <i type="int" name="NELM">   100</i>
  <i type="int" name="NELMIN">     4</i>
  <i type="int" name="IBRION">     2</i>
  <i name="EDIFF">      0.00000100</i>
  <i type="int" name="NSW">     5</i>
  <i type="int" name="ISIF">     2</i>
  <i type="int" name="ISYM">     2</i>
  <i name="ENCUT">    450.00000000</i>
  <i name="POTIM">      0.25000000</i>
  <i type="string" name="LREAL"> Auto</i>
  <i type="int" name="ISMEAR">     0</i>
  <i name="SIGMA">      0.15000000</i>
  <i type="logical" name="LWAVE"> F  </i>
  <i type="logical" name="LCHARG"> F  </i>
  <i type="int" name="ICORELEVEL">     0</i>
  <i type="int" name="CLNT">     1</i>
  <i type="int" name="CLN">     1</i>
  <i type="int" name="INCAR     ">     0</i>
  <i name="CLZ">      0.00000000</i>
  <v type="int" name="KPOINT_BSE">    -1     0     0     0</v>
  <i type="int" name="NELM">   100</i>
 </incar>
 <structure name="primitive_cell" >
  <crystal>
   <varray name="basis" >
    <v>       9.72667804       0.00000000       0.00000000 </v>
    <v>       0.00000000       8.42355028       0.00000000 </v>
    <v>       0.00000000       0.00000000      45.00000000 </v>
   </varray>
   <i name="volume">   3686.99226691 </i>
   <varray name="rec_basis" >
    <v>       0.10281002       0.00000000       0.00000000 </v>
    <v>       0.00000000       0.11871479       0.00000000 </v>
    <v>       0.00000000       0.00000000       0.02222222 </v>
   </varray>
  </crystal>
  <varray name="positions" >
   <v>       0.06298068       0.03642562       0.12596907 </v>
   <v>       0.18780240       0.12031105       0.16873139 </v>
   <v>       0.06276997      -0.13014272       0.16879245 </v>
   <v>      -0.06162285      -0.20793273       0.12605467 </v>
   <v>       0.18690665      -0.20847575       0.12599751 </v>
   <v>      -0.06324972       0.12026369       0.16877444 </v>
   <v>       0.31232983       0.03650592       0.12584358 </v>
   <v>      -0.18713795       0.03609144       0.12587094 </v>
   <v>       0.18674094       0.29102806       0.12581763 </v>
   <v>      -0.06117319       0.29149065       0.12573753 </v>
   <v>       0.31229097      -0.12995180       0.16857163 </v>
   <v>      -0.18745513      -0.13059139       0.16850001 </v>
   <v>       0.06190862       0.36998453       0.16863338 </v>
   <v>       0.18771555      -0.04073178       0.21340765 </v>
   <v>       0.43723198       0.11930545       0.16843246 </v>
   <v>      -0.06249533      -0.04123364       0.21345538 </v>
   <v>       0.18806920      -0.37988289       0.16855227 </v>
   <v>       0.06241559       0.20876023       0.21303541 </v>
   <v>      -0.06310031      -0.37988044       0.16856077 </v>
   <v>      -0.31254741       0.11929849       0.16846036 </v>
   <v>       0.31168689       0.37071810       0.16884612 </v>
   <v>       0.43785892      -0.20830894       0.12584129 </v>
   <v>      -0.31225341      -0.20776784       0.12581859 </v>
   <v>       0.06297345      -0.46537108       0.12573323 </v>
   <v>      -0.18790836       0.37092073       0.16899364 </v>
   <v>       0.43684510       0.29182540       0.12593387 </v>
   <v>      -0.31247929       0.29236524       0.12579882 </v>
   <v>       0.06252330      -0.29194393       0.21348218 </v>
   <v>      -0.18754504       0.20793126       0.21312027 </v>
   <v>       0.31125793      -0.46547626       0.12601256 </v>
   <v>       0.31262336       0.20822206       0.21336169 </v>
   <v>      -0.18696283      -0.46517725       0.12586300 </v>
   <v>      -0.43750478       0.03509589       0.12587629 </v>
   <v>       0.31314029      -0.29049319       0.21366476 </v>
   <v>      -0.18778585      -0.29082821       0.21356994 </v>
   <v>      -0.43747022      -0.13091422       0.16767455 </v>
   <v>       0.43661450      -0.03944624       0.21353087 </v>
   <v>       0.43778473      -0.37980614       0.16814023 </v>
   <v>      -0.31135967      -0.04003997       0.21359827 </v>
   <v>      -0.31277289      -0.37955562       0.16822383 </v>
   <v>      -0.06296471       0.45832774       0.21330919 </v>
   <v>       0.18673414       0.45920832       0.21341781 </v>
   <v>      -0.43700536       0.36990449       0.16849609 </v>
   <v>       0.06182764       0.04065750       0.25796371 </v>
   <v>       0.18818489      -0.21038536       0.25745842 </v>
   <v>      -0.06278975      -0.21016877       0.25764252 </v>
   <v>       0.31445845       0.04063531       0.25755424 </v>
   <v>      -0.18834327       0.03997593       0.25774960 </v>
   <v>      -0.43710085       0.20832573       0.21331450 </v>
   <v>      -0.43767829      -0.46527630       0.12579987 </v>
   <v>      -0.31239339       0.45810998       0.21316089 </v>
   <v>       0.18777039       0.29101557       0.25813549 </v>
   <v>      -0.06277579       0.29082783       0.25812893 </v>
   <v>       0.43844320       0.45897126       0.21333290 </v>
   <v>      -0.43712261      -0.29225137       0.21349678 </v>
   <v>       0.43857207      -0.20914150       0.25753126 </v>
   <v>       0.06278199      -0.45910783       0.25808536 </v>
   <v>      -0.31375243      -0.20842594       0.25769051 </v>
   <v>       0.43738965       0.29091988       0.25810136 </v>
   <v>      -0.31317831       0.29053452       0.25802241 </v>
   <v>       0.31156438      -0.45864036       0.25730089 </v>
   <v>      -0.18712288      -0.45891710       0.25754356 </v>
   <v>      -0.43692458       0.04095564       0.25750674 </v>
   <v>      -0.06167206       0.12400578       0.30196509 </v>
   <v>       0.18697545       0.12494853       0.30197797 </v>
   <v>       0.06231969      -0.12476876       0.30222397 </v>
   <v>       0.31297484      -0.12511286       0.30204930 </v>
   <v>      -0.18785349      -0.12423207       0.30208441 </v>
   <v>       0.06293923       0.37526956       0.30187482 </v>
   <v>      -0.06303264      -0.37638301       0.30182160 </v>
   <v>       0.18748245      -0.37500057       0.30207709 </v>
   <v>      -0.43758078      -0.45891369       0.25796640 </v>
   <v>       0.31244373       0.37364941       0.30181317 </v>
   <v>       0.43709676       0.12495432       0.30215165 </v>
   <v>      -0.31255748       0.12501792       0.30215082 </v>
   <v>      -0.18695707       0.37482057       0.30197112 </v>
   <v>       0.43803068      -0.37483143       0.30209417 </v>
   <v>      -0.31299327      -0.37556696       0.30209509 </v>
   <v>      -0.43713243      -0.12479096       0.30217586 </v>
   <v>      -0.43781283       0.37459303       0.30182298 </v>
   <v>      -0.06175665      -0.04359023       0.34632285 </v>
   <v>       0.06306843       0.20679802       0.34628054 </v>
   <v>       0.18732701      -0.04280829       0.34649155 </v>
   <v>       0.06263057      -0.29272896       0.34654205 </v>
   <v>       0.31275410       0.20737374       0.34650050 </v>
   <v>      -0.18698761       0.20804061       0.34663831 </v>
   <v>       0.31251306      -0.29292040       0.34648106 </v>
   <v>       0.43692465      -0.04263252       0.34653498 </v>
   <v>      -0.18812422      -0.29210315       0.34660096 </v>
   <v>      -0.31266001      -0.04281223       0.34646431 </v>
   <v>      -0.06314719       0.45632390       0.34651134 </v>
   <v>       0.18785580       0.45827400       0.34669391 </v>
   <v>      -0.43746160       0.20753044       0.34645447 </v>
   <v>       0.43790153       0.45754782       0.34656432 </v>
   <v>      -0.31237375       0.45639670       0.34671699 </v>
   <v>       0.06462292       0.03246081      -0.12633926 </v>
   <v>      -0.43638520      -0.29338982       0.34647831 </v>
   <v>      -0.06107261      -0.21071013      -0.12593854 </v>
   <v>       0.18801786      -0.20940312      -0.12596938 </v>
   <v>       0.18753995       0.29096379      -0.12583302 </v>
   <v>      -0.18727302       0.03515869      -0.12602684 </v>
   <v>       0.31434950       0.03525011      -0.12617350 </v>
   <v>      -0.06521039       0.29353951      -0.12637616 </v>
   <v>       0.06218448       0.04047762       0.39004085 </v>
   <v>       0.43787660       0.29182534      -0.12549551 </v>
   <v>       0.43730483      -0.20906820      -0.12599160 </v>
   <v>       0.06346476      -0.46412276      -0.12589780 </v>
   <v>      -0.31397435      -0.20899409      -0.12594764 </v>
   <v>      -0.31331743       0.29342741      -0.12575843 </v>
   <v>      -0.06261897      -0.20916507       0.38993089 </v>
   <v>       0.18719467      -0.20818494       0.39009876 </v>
   <v>       0.31150399       0.04065539       0.39011967 </v>
   <v>      -0.06387644       0.29060870       0.39005050 </v>
   <v>       0.18779538       0.29067130       0.39015281 </v>
   <v>      -0.18907395       0.04143796       0.39049904 </v>
   <v>      -0.18848218      -0.46612704      -0.12566002 </v>
   <v>       0.31383121      -0.46406372      -0.12574495 </v>
   <v>      -0.43751249       0.03442093      -0.12582072 </v>
   <v>       0.06337830      -0.45913816       0.38996057 </v>
   <v>      -0.31245700      -0.20954912       0.38991014 </v>
   <v>       0.43569923      -0.20834685       0.39027483 </v>
   <v>      -0.31251754       0.29082433       0.38988443 </v>
   <v>       0.43771111       0.29073698       0.38999351 </v>
   <v>       0.31106962      -0.45932941       0.39004566 </v>
   <v>      -0.18787366      -0.45926211       0.39000244 </v>
   <v>      -0.43769161       0.04095871       0.39002368 </v>
   <v>      -0.43774846      -0.46481046      -0.12577722 </v>
   <v>      -0.06134508      -0.04075201      -0.16779411 </v>
   <v>       0.06274755       0.20931780      -0.16759692 </v>
   <v>       0.18759008      -0.04398933      -0.16852471 </v>
   <v>      -0.43758433      -0.45967198       0.38986279 </v>
   <v>      -0.18580117       0.20941428      -0.16785843 </v>
   <v>       0.06172522      -0.29036263      -0.16822209 </v>
   <v>       0.31258809       0.20517909      -0.16854180 </v>
   <v>      -0.06239015       0.45630534      -0.16834935 </v>
   <v>      -0.31268063      -0.04433249      -0.16850684 </v>
   <v>       0.18783759       0.45594117      -0.16846204 </v>
   <v>      -0.18772967      -0.29035137      -0.16893678 </v>
   <v>       0.43914709      -0.04449237      -0.16872504 </v>
   <v>       0.31357215      -0.29426226      -0.16893147 </v>
   <v>       0.18730595       0.12482226       0.43478061 </v>
   <v>      -0.06289510       0.12398726       0.43482304 </v>
   <v>       0.06202245      -0.12557587       0.43534136 </v>
   <v>       0.31289993      -0.12628304       0.43482294 </v>
   <v>      -0.18797145      -0.12575680       0.43498835 </v>
   <v>      -0.43873466       0.20557441      -0.16867808 </v>
   <v>      -0.31105622       0.45469299      -0.16861399 </v>
   <v>       0.06214021       0.37425818       0.43501228 </v>
   <v>       0.43809912       0.45516266      -0.16872850 </v>
   <v>       0.18826791      -0.37560067       0.43494428 </v>
   <v>      -0.06318552      -0.37543621       0.43498655 </v>
   <v>      -0.31232060       0.12359124       0.43481863 </v>
   <v>       0.43709240       0.12435565       0.43493892 </v>
   <v>      -0.43763427      -0.29370538      -0.16868967 </v>
   <v>       0.31203197       0.37407498       0.43492942 </v>
   <v>      -0.18713340       0.37441888       0.43490417 </v>
   <v>      -0.31238014      -0.37608100       0.43485241 </v>
   <v>       0.43682230      -0.37545606       0.43502540 </v>
   <v>      -0.43725555      -0.12586933       0.43491093 </v>
   <v>      -0.43812744       0.37435744       0.43536767 </v>
   <v>       0.18737939       0.11732877      -0.21320326 </v>
   <v>      -0.06254467       0.11719801      -0.21323981 </v>
   <v>       0.06220017      -0.13007171      -0.21359712 </v>
   <v>       0.06225326       0.37027656      -0.21345786 </v>
   <v>       0.31327677      -0.13162945      -0.21355886 </v>
   <v>      -0.18841010      -0.12993542      -0.21373037 </v>
   <v>       0.43724403       0.11724279      -0.21309871 </v>
   <v>      -0.18732234       0.36928940      -0.21336184 </v>
   <v>       0.31235510       0.36895389      -0.21341013 </v>
   <v>       0.18671031      -0.38289766      -0.21348192 </v>
   <v>      -0.31394697       0.11719596      -0.21355664 </v>
   <v>      -0.06316959      -0.38171400      -0.21365406 </v>
   <v>       0.06243983       0.20598956       0.47874341 </v>
   <v>       0.18749766      -0.04392922       0.47889864 </v>
   <v>      -0.06287571      -0.04394194       0.47894246 </v>
   <v>       0.43743033      -0.38308070      -0.21317808 </v>
   <v>      -0.43686155      -0.13115549      -0.21342627 </v>
   <v>      -0.31193516      -0.38316899      -0.21336732 </v>
   <v>       0.06263616      -0.29418361       0.47875161 </v>
   <v>       0.31263665       0.20588736       0.47878837 </v>
   <v>      -0.18762749       0.20626039       0.47884344 </v>
   <v>      -0.43805415       0.36850359      -0.21345520 </v>
   <v>       0.31250932      -0.29407914       0.47879044 </v>
   <v>      -0.18747491      -0.29405297       0.47877144 </v>
   <v>      -0.31251736      -0.04405527       0.47871201 </v>
   <v>       0.43721451      -0.04407724       0.47881891 </v>
   <v>       0.18753236       0.45583863       0.47874736 </v>
   <v>      -0.06253524       0.45588242       0.47874714 </v>
   <v>      -0.43762419       0.20567291       0.47880939 </v>
   <v>      -0.31249639       0.45573502       0.47880290 </v>
   <v>       0.43732781       0.45587036       0.47889393 </v>
   <v>      -0.43749681      -0.29396023       0.47871567 </v>
   <v>       0.06115341       0.03704266      -0.25785113 </v>
   <v>      -0.06196506      -0.21149671      -0.25759765 </v>
   <v>       0.18771306      -0.21165677      -0.25770806 </v>
   <v>      -0.18676272       0.03727679      -0.25770543 </v>
   <v>       0.31139621       0.03734017      -0.25781958 </v>
   <v>      -0.06310767       0.28649898      -0.25777871 </v>
   <v>       0.18882798       0.28754561      -0.25784210 </v>
   <v>       0.43703910      -0.21192331      -0.25771518 </v>
   <v>      -0.31191032      -0.21155071      -0.25768934 </v>
   <v>       0.43771804       0.28855267      -0.25769341 </v>
   <v>       0.06371436      -0.46278365      -0.25783978 </v>
   <v>      -0.31354993       0.28784576      -0.25787566 </v>
   <v>      -0.06216573       0.12157971      -0.47882550 </v>
   <v>       0.06267688      -0.12906890      -0.47878952 </v>
   <v>       0.18721898       0.12150600      -0.47880370 </v>
   <v>       0.31178792      -0.46312414      -0.25756312 </v>
   <v>      -0.43622359       0.03724085      -0.25768974 </v>
   <v>      -0.18887780      -0.46207108      -0.25769524 </v>
   <v>       0.31218673      -0.12934738      -0.47887615 </v>
   <v>      -0.18768742      -0.12919281      -0.47890440 </v>
   <v>       0.06238946       0.37059375      -0.47880779 </v>
   <v>       0.18754272      -0.37938900      -0.47887255 </v>
   <v>       0.31255819       0.37076072      -0.47892668 </v>
   <v>      -0.06257654      -0.37923320      -0.47886692 </v>
   <v>       0.43744836       0.12084521      -0.47887762 </v>
   <v>      -0.18734537       0.37076003      -0.47889352 </v>
   <v>      -0.31225885       0.12093028      -0.47884086 </v>
   <v>      -0.43737887      -0.46283607      -0.25770790 </v>
   <v>      -0.31255750      -0.37859447      -0.47888769 </v>
   <v>      -0.43754399      -0.12904771      -0.47886112 </v>
   <v>       0.43760784      -0.37855358      -0.47879732 </v>
   <v>      -0.43742257       0.37086091      -0.47876312 </v>
   <v>       0.18826917      -0.04564810      -0.30185387 </v>
   <v>       0.06229486       0.20321269      -0.30184949 </v>
   <v>      -0.06188938      -0.04618364      -0.30196240 </v>
   <v>       0.31205850       0.20446077      -0.30170114 </v>
   <v>      -0.18710721       0.20337941      -0.30192237 </v>
   <v>       0.06327750      -0.29663176      -0.30197430 </v>
   <v>       0.18698505       0.45463679      -0.30175359 </v>
   <v>      -0.06312842       0.45474009      -0.30180748 </v>
   <v>       0.31306992      -0.29673074      -0.30192189 </v>
   <v>      -0.18808817      -0.29656494      -0.30190915 </v>
   <v>      -0.31321227      -0.04608117      -0.30190829 </v>
   <v>       0.43736973      -0.04631171      -0.30204384 </v>
   <v>       0.18795957      -0.04289566      -0.43511136 </v>
   <v>      -0.06277466      -0.04277818      -0.43511938 </v>
   <v>       0.06278115       0.20684502      -0.43511215 </v>
   <v>      -0.43703517       0.20436459      -0.30164078 </v>
   <v>       0.43777868       0.45372192      -0.30185011 </v>
   <v>      -0.31247220       0.45361226      -0.30195486 </v>
   <v>       0.06289645      -0.29285233      -0.43513703 </v>
   <v>      -0.18816055       0.20686836      -0.43514514 </v>
   <v>       0.31295252       0.20687290      -0.43510997 </v>
   <v>      -0.43838846      -0.29676044      -0.30203651 </v>
   <v>       0.31219675      -0.29308282      -0.43508177 </v>
   <v>       0.43702016      -0.04290423      -0.43513505 </v>
   <v>      -0.18725086      -0.29307506      -0.43507110 </v>
   <v>      -0.31198744      -0.04302323      -0.43513065 </v>
   <v>       0.18801708       0.45709649      -0.43517974 </v>
   <v>      -0.06278544       0.45706682      -0.43511701 </v>
   <v>      -0.43694769       0.20704773      -0.43518252 </v>
   <v>       0.43719044       0.45692765      -0.43515223 </v>
   <v>      -0.31203046       0.45703731      -0.43514136 </v>
   <v>      -0.43735323      -0.29290091      -0.43509064 </v>
   <v>      -0.06231400       0.12061857      -0.34642063 </v>
   <v>       0.06268777      -0.12971260      -0.34644918 </v>
   <v>       0.18740030       0.12044181      -0.34647356 </v>
   <v>       0.31331220      -0.12936153      -0.34623729 </v>
   <v>      -0.18763879      -0.13056410      -0.34640607 </v>
   <v>       0.06251523       0.36937557      -0.34644296 </v>
   <v>      -0.18671744       0.36985184      -0.34632043 </v>
   <v>       0.31252195       0.36988304      -0.34646137 </v>
   <v>       0.18760197      -0.37965545      -0.34648395 </v>
   <v>      -0.06269599      -0.37977328      -0.34647820 </v>
   <v>      -0.31260225       0.12023241      -0.34648051 </v>
   <v>       0.43765768       0.11933544      -0.34668039 </v>
   <v>       0.06214128       0.03640178      -0.39023035 </v>
   <v>       0.43811060      -0.38011778      -0.34640388 </v>
   <v>      -0.43741418      -0.12967146      -0.34646943 </v>
   <v>      -0.31267502      -0.37966750      -0.34644075 </v>
   <v>       0.18687908      -0.21294804      -0.39018181 </v>
   <v>      -0.18829836       0.03696047      -0.39012834 </v>
   <v>      -0.06171255      -0.21243305      -0.39006626 </v>
   <v>      -0.06347403       0.28742974      -0.38998955 </v>
   <v>       0.31362747       0.03713738      -0.38996479 </v>
   <v>       0.18839019       0.28750236      -0.38996516 </v>
   <v>      -0.43739081       0.37015886      -0.34648108 </v>
   <v>      -0.31155024      -0.21295741      -0.39018216 </v>
   <v>       0.43689058      -0.21299312      -0.39015680 </v>
   <v>       0.43737783       0.28737562      -0.39010345 </v>
   <v>      -0.31334836       0.28717705      -0.39015283 </v>
   <v>       0.06223874      -0.46475895      -0.38987798 </v>
   <v>       0.31156984      -0.46324534      -0.39020417 </v>
   <v>      -0.18652222      -0.46274689      -0.39019277 </v>
   <v>      -0.43757988       0.03519640      -0.38976202 </v>
   <v>      -0.43737068      -0.46316760      -0.39024245 </v>
  </varray>
 </structure>
 <varray name="primitive_index" >
  <v type="int" >        1 </v>
  <v type="int" >      125 </v>
  <v type="int" >       60 </v>
  <v type="int" >       44 </v>
  <v type="int" >       83 </v>
  <v type="int" >       26 </v>
  <v type="int" >      256 </v>
  <v type="int" >      202 </v>
  <v type="int" >      111 </v>
  <v type="int" >      155 </v>
  <v type="int" >      192 </v>
  <v type="int" >      102 </v>
  <v type="int" >       51 </v>
  <v type="int" >      146 </v>
  <v type="int" >      182 </v>
  <v type="int" >      212 </v>
  <v type="int" >       20 </v>
  <v type="int" >       50 </v>
  <v type="int" >      104 </v>
  <v type="int" >      166 </v>
  <v type="int" >      108 </v>
  <v type="int" >       55 </v>
  <v type="int" >      163 </v>
  <v type="int" >      176 </v>
  <v type="int" >      213 </v>
  <v type="int" >      117 </v>
  <v type="int" >      145 </v>
  <v type="int" >      250 </v>
  <v type="int" >      167 </v>
  <v type="int" >       91 </v>
  <v type="int" >      123 </v>
  <v type="int" >      205 </v>
  <v type="int" >      114 </v>
  <v type="int" >      276 </v>
  <v type="int" >      284 </v>
  <v type="int" >      277 </v>
  <v type="int" >      229 </v>
  <v type="int" >      174 </v>
  <v type="int" >       92 </v>
  <v type="int" >       97 </v>
  <v type="int" >      175 </v>
  <v type="int" >      189 </v>
  <v type="int" >       30 </v>
  <v type="int" >      185 </v>
  <v type="int" >      200 </v>
  <v type="int" >       52 </v>
  <v type="int" >      179 </v>
  <v type="int" >       24 </v>
  <v type="int" >      103 </v>
  <v type="int" >      164 </v>
  <v type="int" >      261 </v>
  <v type="int" >      112 </v>
  <v type="int" >      127 </v>
  <v type="int" >      139 </v>
  <v type="int" >      243 </v>
  <v type="int" >      137 </v>
  <v type="int" >      168 </v>
  <v type="int" >      118 </v>
  <v type="int" >      265 </v>
  <v type="int" >       58 </v>
  <v type="int" >      275 </v>
  <v type="int" >       81 </v>
  <v type="int" >      281 </v>
  <v type="int" >      135 </v>
  <v type="int" >      215 </v>
  <v type="int" >      214 </v>
  <v type="int" >       98 </v>
  <v type="int" >       72 </v>
  <v type="int" >      226 </v>
  <v type="int" >      178 </v>
  <v type="int" >      263 </v>
  <v type="int" >       28 </v>
  <v type="int" >      242 </v>
  <v type="int" >      159 </v>
  <v type="int" >      109 </v>
  <v type="int" >      220 </v>
  <v type="int" >      101 </v>
  <v type="int" >      130 </v>
  <v type="int" >      210 </v>
  <v type="int" >      171 </v>
  <v type="int" >      194 </v>
  <v type="int" >       47 </v>
  <v type="int" >      258 </v>
  <v type="int" >      216 </v>
  <v type="int" >       86 </v>
  <v type="int" >      207 </v>
  <v type="int" >      208 </v>
  <v type="int" >      172 </v>
  <v type="int" >       73 </v>
  <v type="int" >       25 </v>
  <v type="int" >       12 </v>
  <v type="int" >      116 </v>
  <v type="int" >      219 </v>
  <v type="int" >      206 </v>
  <v type="int" >      279 </v>
  <v type="int" >      282 </v>
  <v type="int" >       62 </v>
  <v type="int" >      105 </v>
  <v type="int" >      268 </v>
  <v type="int" >      120 </v>
  <v type="int" >       14 </v>
  <v type="int" >      245 </v>
  <v type="int" >      280 </v>
  <v type="int" >      124 </v>
  <v type="int" >      255 </v>
  <v type="int" >      150 </v>
  <v type="int" >      266 </v>
  <v type="int" >       29 </v>
  <v type="int" >      191 </v>
  <v type="int" >      190 </v>
  <v type="int" >      283 </v>
  <v type="int" >      165 </v>
  <v type="int" >       13 </v>
  <v type="int" >      248 </v>
  <v type="int" >       48 </v>
  <v type="int" >      247 </v>
  <v type="int" >       18 </v>
  <v type="int" >      161 </v>
  <v type="int" >      273 </v>
  <v type="int" >       45 </v>
  <v type="int" >      264 </v>
  <v type="int" >       84 </v>
  <v type="int" >        4 </v>
  <v type="int" >       67 </v>
  <v type="int" >      270 </v>
  <v type="int" >       16 </v>
  <v type="int" >       64 </v>
  <v type="int" >       17 </v>
  <v type="int" >      259 </v>
  <v type="int" >        7 </v>
  <v type="int" >      222 </v>
  <v type="int" >        6 </v>
  <v type="int" >      134 </v>
  <v type="int" >       39 </v>
  <v type="int" >       36 </v>
  <v type="int" >       88 </v>
  <v type="int" >      181 </v>
  <v type="int" >      253 </v>
  <v type="int" >      110 </v>
  <v type="int" >        5 </v>
  <v type="int" >      160 </v>
  <v type="int" >      158 </v>
  <v type="int" >      204 </v>
  <v type="int" >       23 </v>
  <v type="int" >      235 </v>
  <v type="int" >      143 </v>
  <v type="int" >       82 </v>
  <v type="int" >      218 </v>
  <v type="int" >       74 </v>
  <v type="int" >      238 </v>
  <v type="int" >      131 </v>
  <v type="int" >      257 </v>
  <v type="int" >      201 </v>
  <v type="int" >      241 </v>
  <v type="int" >      113 </v>
  <v type="int" >       80 </v>
  <v type="int" >      232 </v>
  <v type="int" >      249 </v>
  <v type="int" >       69 </v>
  <v type="int" >      251 </v>
  <v type="int" >        3 </v>
  <v type="int" >      149 </v>
  <v type="int" >      197 </v>
  <v type="int" >      254 </v>
  <v type="int" >      224 </v>
  <v type="int" >      287 </v>
  <v type="int" >       49 </v>
  <v type="int" >       57 </v>
  <v type="int" >      138 </v>
  <v type="int" >      272 </v>
  <v type="int" >      188 </v>
  <v type="int" >      132 </v>
  <v type="int" >      223 </v>
  <v type="int" >       94 </v>
  <v type="int" >      236 </v>
  <v type="int" >      184 </v>
  <v type="int" >       33 </v>
  <v type="int" >       66 </v>
  <v type="int" >      157 </v>
  <v type="int" >      230 </v>
  <v type="int" >       21 </v>
  <v type="int" >      106 </v>
  <v type="int" >       99 </v>
  <v type="int" >      234 </v>
  <v type="int" >       75 </v>
  <v type="int" >      221 </v>
  <v type="int" >      244 </v>
  <v type="int" >      269 </v>
  <v type="int" >      237 </v>
  <v type="int" >      199 </v>
  <v type="int" >      156 </v>
  <v type="int" >      169 </v>
  <v type="int" >        9 </v>
  <v type="int" >       46 </v>
  <v type="int" >      262 </v>
  <v type="int" >      151 </v>
  <v type="int" >      239 </v>
  <v type="int" >      187 </v>
  <v type="int" >       11 </v>
  <v type="int" >       31 </v>
  <v type="int" >       43 </v>
  <v type="int" >       71 </v>
  <v type="int" >      211 </v>
  <v type="int" >       19 </v>
  <v type="int" >       27 </v>
  <v type="int" >      286 </v>
  <v type="int" >      140 </v>
  <v type="int" >      288 </v>
  <v type="int" >      267 </v>
  <v type="int" >       87 </v>
  <v type="int" >      144 </v>
  <v type="int" >       10 </v>
  <v type="int" >      107 </v>
  <v type="int" >       68 </v>
  <v type="int" >      183 </v>
  <v type="int" >      203 </v>
  <v type="int" >      119 </v>
  <v type="int" >      177 </v>
  <v type="int" >       34 </v>
  <v type="int" >      278 </v>
  <v type="int" >      195 </v>
  <v type="int" >       77 </v>
  <v type="int" >      252 </v>
  <v type="int" >      285 </v>
  <v type="int" >      173 </v>
  <v type="int" >       37 </v>
  <v type="int" >      225 </v>
  <v type="int" >       63 </v>
  <v type="int" >      233 </v>
  <v type="int" >      274 </v>
  <v type="int" >      246 </v>
  <v type="int" >      152 </v>
  <v type="int" >      154 </v>
  <v type="int" >      141 </v>
  <v type="int" >       54 </v>
  <v type="int" >       38 </v>
  <v type="int" >      162 </v>
  <v type="int" >      129 </v>
  <v type="int" >      170 </v>
  <v type="int" >       53 </v>
  <v type="int" >      193 </v>
  <v type="int" >       76 </v>
  <v type="int" >       65 </v>
  <v type="int" >      271 </v>
  <v type="int" >       93 </v>
  <v type="int" >      133 </v>
  <v type="int" >       90 </v>
  <v type="int" >       56 </v>
  <v type="int" >       32 </v>
  <v type="int" >       95 </v>
  <v type="int" >       59 </v>
  <v type="int" >       42 </v>
  <v type="int" >        8 </v>
  <v type="int" >       70 </v>
  <v type="int" >      228 </v>
  <v type="int" >      186 </v>
  <v type="int" >      122 </v>
  <v type="int" >      196 </v>
  <v type="int" >      121 </v>
  <v type="int" >        2 </v>
  <v type="int" >       79 </v>
  <v type="int" >      198 </v>
  <v type="int" >       35 </v>
  <v type="int" >       85 </v>
  <v type="int" >      153 </v>
  <v type="int" >      240 </v>
  <v type="int" >      209 </v>
  <v type="int" >      231 </v>
  <v type="int" >      142 </v>
  <v type="int" >       40 </v>
  <v type="int" >       89 </v>
  <v type="int" >      227 </v>
  <v type="int" >       15 </v>
  <v type="int" >      217 </v>
  <v type="int" >      136 </v>
  <v type="int" >      100 </v>
  <v type="int" >      148 </v>
  <v type="int" >       61 </v>
  <v type="int" >       78 </v>
  <v type="int" >      180 </v>
  <v type="int" >       96 </v>
  <v type="int" >      115 </v>
  <v type="int" >      147 </v>
  <v type="int" >      126 </v>
  <v type="int" >       41 </v>
  <v type="int" >       22 </v>
  <v type="int" >      260 </v>
  <v type="int" >      128 </v>
 </varray>
 <kpoints>
  <generation param="Gamma">
   <v type="int" name="divisions">       4        4        1 </v>
   <v name="usershift">      0.00000000       0.00000000       0.00000000 </v>
   <v name="genvec1">      0.25000000       0.00000000       0.00000000 </v>
   <v name="genvec2">      0.00000000       0.25000000       0.00000000 </v>
   <v name="genvec3">      0.00000000       0.00000000       1.00000000 </v>
   <v name="shift">      0.00000000       0.00000000       0.00000000 </v>
  </generation>
  <varray name="kpointlist" >
   <v>       0.00000000       0.00000000       0.00000000 </v>
   <v>       0.25000000       0.00000000       0.00000000 </v>
   <v>       0.50000000       0.00000000       0.00000000 </v>
   <v>       0.00000000       0.25000000       0.00000000 </v>
   <v>       0.25000000       0.25000000       0.00000000 </v>
   <v>       0.50000000       0.25000000       0.00000000 </v>
   <v>      -0.25000000       0.25000000       0.00000000 </v>
   <v>       0.00000000       0.50000000       0.00000000 </v>
   <v>       0.25000000       0.50000000       0.00000000 </v>
   <v>       0.50000000       0.50000000       0.00000000 </v>
  </varray>
  <varray name="weights" >
   <v>       0.06250000 </v>
   <v>       0.12500000 </v>
   <v>       0.06250000 </v>
   <v>       0.12500000 </v>
   <v>       0.12500000 </v>
   <v>       0.12500000 </v>
   <v>       0.12500000 </v>
   <v>       0.06250000 </v>
   <v>       0.12500000 </v>
   <v>       0.06250000 </v>
  </varray>
 </kpoints>
 <parameters>
  <separator name="general" >
   <i type="string" name="SYSTEM">unknown system</i>
   <i type="logical" name="LCOMPAT"> F  </i>
  </separator>
  <separator name="electronic" >
   <i type="string" name="PREC">accura</i>
   <i name="ENMAX">    450.00000000</i>
   <i name="ENAUG">    838.43500000</i>
   <i name="EDIFF">      0.00000100</i>
   <i type="int" name="IALGO">    68</i>
   <i type="int" name="IWAVPR">    11</i>
   <i type="int" name="NBANDS">  1386</i>
   <i name="NELECT">   2290.00000000</i>
   <i type="int" name="TURBO">     0</i>
   <i type="int" name="IRESTART">     0</i>
   <i type="int" name="NREBOOT">     0</i>
   <i type="int" name="NMIN">     0</i>
   <i name="EREF">      0.00000000</i>
   <separator name="electronic smearing" >
    <i type="int" name="ISMEAR">     0</i>
    <i name="SIGMA">      0.15000000</i>
    <i name="KSPACING">      0.50000000</i>
    <i type="logical" name="KGAMMA"> T  </i>
   </separator>
   <separator name="electronic projectors" >
    <i type="logical" name="LREAL"> T  </i>
    <v name="ROPT">     -0.00025000     -0.00025000</v>
    <i type="int" name="LMAXPAW">  -100</i>
    <i type="int" name="LMAXMIX">     2</i>
    <i type="logical" name="NLSPLINE"> F  </i>
   </separator>
   <separator name="electronic startup" >
    <i type="int" name="ISTART">     0</i>
    <i type="int" name="ICHARG">     2</i>
    <i type="int" name="INIWAV">     1</i>
   </separator>
   <separator name="electronic spin" >
    <i type="int" name="ISPIN">     1</i>
    <i type="logical" name="LNONCOLLINEAR"> F  </i>
    <v name="MAGMOM">      1.00000000      1.00000000      1.00000000      1.00000000      1.00000000      1.00000000      1.00000000      1.00000000      1.00000000      1.00000000      1.00000000      1.00000000      1.00000000      1.00000000      1.00000000      1.00000000      1.00000000      1.00000000      1.00000000      1.00000000
      1.00000000      1.00000000      1.00000000      1.00000000      1.00000000      1.00000000      1.00000000      1.00000000      1.00000000      1.00000000      1.00000000      1.00000000      1.00000000      1.00000000      1.00000000      1.00000000      1.00000000      1.00000000      1.00000000      1.00000000
      1.00000000      1.00000000      1.00000000      1.00000000      1.00000000      1.00000000      1.00000000      1.00000000      1.00000000      1.00000000      1.00000000      1.00000000      1.00000000      1.00000000      1.00000000      1.00000000      1.00000000      1.00000000      1.00000000      1.00000000
      1.00000000      1.00000000      1.00000000      1.00000000      1.00000000      1.00000000      1.00000000      1.00000000      1.00000000      1.00000000      1.00000000      1.00000000      1.00000000      1.00000000      1.00000000      1.00000000      1.00000000      1.00000000      1.00000000      1.00000000
      1.00000000      1.00000000      1.00000000      1.00000000      1.00000000      1.00000000      1.00000000      1.00000000      1.00000000      1.00000000      1.00000000      1.00000000      1.00000000      1.00000000      1.00000000      1.00000000      1.00000000      1.00000000      1.00000000      1.00000000
      1.00000000      1.00000000      1.00000000      1.00000000      1.00000000      1.00000000      1.00000000      1.00000000      1.00000000      1.00000000      1.00000000      1.00000000      1.00000000      1.00000000      1.00000000      1.00000000      1.00000000      1.00000000      1.00000000      1.00000000
      1.00000000      1.00000000      1.00000000      1.00000000      1.00000000      1.00000000      1.00000000      1.00000000      1.00000000      1.00000000      1.00000000      1.00000000      1.00000000      1.00000000      1.00000000      1.00000000      1.00000000      1.00000000      1.00000000      1.00000000
      1.00000000      1.00000000      1.00000000      1.00000000      1.00000000      1.00000000      1.00000000      1.00000000      1.00000000      1.00000000      1.00000000      1.00000000      1.00000000      1.00000000      1.00000000      1.00000000      1.00000000      1.00000000      1.00000000      1.00000000
      1.00000000      1.00000000      1.00000000      1.00000000      1.00000000      1.00000000      1.00000000      1.00000000      1.00000000      1.00000000      1.00000000      1.00000000      1.00000000      1.00000000      1.00000000      1.00000000      1.00000000      1.00000000      1.00000000      1.00000000
      1.00000000      1.00000000      1.00000000      1.00000000      1.00000000      1.00000000      1.00000000      1.00000000      1.00000000      1.00000000      1.00000000      1.00000000      1.00000000      1.00000000      1.00000000      1.00000000      1.00000000      1.00000000      1.00000000      1.00000000
      1.00000000      1.00000000      1.00000000      1.00000000      1.00000000      1.00000000      1.00000000      1.00000000      1.00000000      1.00000000      1.00000000      1.00000000      1.00000000      1.00000000      1.00000000      1.00000000      1.00000000      1.00000000      1.00000000      1.00000000
      1.00000000      1.00000000      1.00000000      1.00000000      1.00000000      1.00000000      1.00000000      1.00000000      1.00000000      1.00000000      1.00000000      1.00000000      1.00000000      1.00000000      1.00000000      1.00000000      1.00000000      1.00000000      1.00000000      1.00000000
      1.00000000      1.00000000      1.00000000      1.00000000      1.00000000      1.00000000      1.00000000      1.00000000      1.00000000      1.00000000      1.00000000      1.00000000      1.00000000      1.00000000      1.00000000      1.00000000      1.00000000      1.00000000      1.00000000      1.00000000
      1.00000000      1.00000000      1.00000000      1.00000000      1.00000000      1.00000000      1.00000000      1.00000000      1.00000000      1.00000000      1.00000000      1.00000000      1.00000000      1.00000000      1.00000000      1.00000000      1.00000000      1.00000000      1.00000000      1.00000000
      1.00000000      1.00000000      1.00000000      1.00000000      1.00000000      1.00000000      1.00000000      1.00000000</v>
    <i name="NUPDOWN">     -1.00000000</i>
    <i type="logical" name="LSORBIT"> F  </i>
    <v name="SAXIS">      0.00000000      0.00000000      1.00000000</v>
    <i type="logical" name="LSPIRAL"> F  </i>
    <v name="QSPIRAL">      0.00000000      0.00000000      0.00000000</v>
    <i type="logical" name="LZEROZ"> F  </i>
   </separator>
   <separator name="electronic exchange-correlation" >
    <i type="logical" name="LASPH"> F  </i>
    <i type="logical" name="LMETAGGA"> F  </i>
   </separator>
   <separator name="electronic convergence" >
    <i type="int" name="NELM">   100</i>
    <i type="int" name="NELMDL">     0</i>
    <i type="int" name="NELMIN">     4</i>
    <i name="ENINI">    450.00000000</i>
    <separator name="electronic convergence detail" >
     <i type="logical" name="LDIAG"> T  </i>
     <i type="logical" name="LSUBROT"> F  </i>
     <i name="WEIMIN">      0.00100000</i>
     <i name="EBREAK">      0.00000000</i>
     <i name="DEPER">      0.30000000</i>
     <i type="int" name="NRMM">     4</i>
     <i name="TIME">      0.40000000</i>
    </separator>
   </separator>
   <separator name="electronic mixer" >
    <i name="AMIX">      0.40000000</i>
    <i name="BMIX">      1.00000000</i>
    <i name="AMIN">      0.10000000</i>
    <i name="AMIX_MAG">      1.60000000</i>
    <i name="BMIX_MAG">      1.00000000</i>
    <separator name="electronic mixer details" >
     <i type="int" name="IMIX">     4</i>
     <i type="logical" name="MIXFIRST"> F  </i>
     <i type="int" name="MAXMIX">   -45</i>
     <i name="WC">    100.00000000</i>
     <i type="int" name="INIMIX">     1</i>
     <i type="int" name="MIXPRE">     1</i>
     <i type="int" name="MREMOVE">     5</i>
    </separator>
   </separator>
   <separator name="electronic dipolcorrection" >
    <i type="logical" name="LDIPOL"> F  </i>
    <i type="logical" name="LMONO"> F  </i>
    <i type="int" name="IDIPOL">     0</i>
    <i name="EPSILON">      1.00000000</i>
    <v name="DIPOL">   -100.00000000   -100.00000000   -100.00000000</v>
    <i name="EFIELD">      0.00000000</i>
   </separator>
  </separator>
  <separator name="grids" >
   <i type="int" name="NGX">    70</i>
   <i type="int" name="NGY">    60</i>
   <i type="int" name="NGZ">   320</i>
   <i type="int" name="NGXF">   140</i>
   <i type="int" name="NGYF">   120</i>
   <i type="int" name="NGZF">   640</i>
   <i type="logical" name="ADDGRID"> F  </i>
  </separator>
  <separator name="ionic" >
   <i type="int" name="NSW">     5</i>
   <i type="int" name="IBRION">     2</i>
   <i type="int" name="MDALGO">     0</i>
   <i type="int" name="ISIF">     2</i>
   <i name="PSTRESS">      0.00000000</i>
   <i name="EDIFFG">      0.00001000</i>
   <i type="int" name="NFREE">     1</i>
   <i name="POTIM">      0.25000000</i>
   <i name="SMASS">     -3.00000000</i>
   <i name="SCALEE">      1.00000000</i>
  </separator>
  <separator name="ionic md" >
   <i name="TEBEG">      0.00010000</i>
   <i name="TEEND">      0.00010000</i>
   <i type="int" name="NBLOCK">     1</i>
   <i type="int" name="KBLOCK">     5</i>
   <i type="int" name="NPACO">   256</i>
   <i name="APACO">     16.00000000</i>
  </separator>
  <separator name="symmetry" >
   <i type="int" name="ISYM">     2</i>
   <i name="SYMPREC">      0.00001000</i>
  </separator>
  <separator name="dos" >
   <i type="int" name="LORBIT">     0</i>
   <v name="RWIGS">     -1.00000000     -1.00000000</v>
   <i type="int" name="NEDOS">   301</i>
   <i name="EMIN">     10.00000000</i>
   <i name="EMAX">    -10.00000000</i>
   <i name="EFERMI">      0.00000000</i>
  </separator>
  <separator name="writing" >
   <i type="int" name="NWRITE">     2</i>
   <i type="logical" name="LWAVE"> F  </i>
   <i type="logical" name="LDOWNSAMPLE"> F  </i>
   <i type="logical" name="LCHARG"> F  </i>
   <i type="logical" name="LPARD"> F  </i>
   <i type="logical" name="LVTOT"> F  </i>
   <i type="logical" name="LVHAR"> F  </i>
   <i type="logical" name="LELF"> F  </i>
   <i type="logical" name="LOPTICS"> F  </i>
   <v name="STM">      0.00000000      0.00000000      0.00000000      0.00000000      0.00000000      0.00000000      0.00000000</v>
  </separator>
  <separator name="performance" >
   <i type="int" name="NPAR">    14</i>
   <i type="int" name="NSIM">     4</i>
   <i type="int" name="NBLK">    -1</i>
   <i type="logical" name="LPLANE"> T  </i>
   <i type="logical" name="LSCALAPACK"> T  </i>
   <i type="logical" name="LSCAAWARE"> T  </i>
   <i type="logical" name="LSCALU"> F  </i>
   <i type="logical" name="LASYNC"> F  </i>
   <i type="logical" name="LORBITALREAL"> F  </i>
  </separator>
  <separator name="miscellaneous" >
   <i type="int" name="IDIOT">     3</i>
   <i type="int" name="ISPECIAL">     0</i>
   <i type="logical" name="LMUSIC"> F  </i>
   <v name="POMASS">     55.84700000     54.93800000</v>
   <v name="DARWINR">      0.00000000      0.00000000</v>
   <v name="DARWINV">      1.00000000      1.00000000</v>
   <i type="logical" name="LCORR"> T  </i>
  </separator>
  <i type="logical" name="GGA_COMPAT"> T  </i>
  <i type="logical" name="LBERRY"> F  </i>
  <i type="int" name="ICORELEVEL">     0</i>
  <i type="logical" name="LDAU"> F  </i>
  <i type="int" name="I_CONSTRAINED_M">     0</i>
  <separator name="electronic exchange-correlation" >
   <i type="string" name="GGA">--</i>
   <i type="int" name="VOSKOWN">     0</i>
   <i type="logical" name="LHFCALC"> F  </i>
   <i type="string" name="PRECFOCK"></i>
   <i type="logical" name="LSYMGRAD"> F  </i>
   <i type="logical" name="LHFONE"> F  </i>
   <i type="logical" name="LRHFCALC"> F  </i>
   <i type="logical" name="LTHOMAS"> F  </i>
   <i type="logical" name="LMODELHF"> F  </i>
   <i name="ENCUT4O">     -1.00000000</i>
   <i type="int" name="EXXOEP">     0</i>
   <i type="int" name="FOURORBIT">     0</i>
   <i name="AEXX">      0.00000000</i>
   <i name="HFALPHA">      0.00000000</i>
   <i name="MCALPHA">      0.00000000</i>
   <i name="ALDAX">      1.00000000</i>
   <i name="AGGAX">      1.00000000</i>
   <i name="ALDAC">      1.00000000</i>
   <i name="AGGAC">      1.00000000</i>
   <i type="int" name="NKREDX">     1</i>
   <i type="int" name="NKREDY">     1</i>
   <i type="int" name="NKREDZ">     1</i>
   <i type="logical" name="SHIFTRED"> F  </i>
   <i type="logical" name="ODDONLY"> F  </i>
   <i type="logical" name="EVENONLY"> F  </i>
   <i type="int" name="LMAXFOCK">     0</i>
   <i type="int" name="NMAXFOCKAE">     0</i>
   <i type="logical" name="LFOCKAEDFT"> F  </i>
   <i name="HFSCREEN">      0.00000000</i>
   <i name="HFSCREENC">      0.00000000</i>
   <i type="int" name="NBANDSGWLOW">     0</i>
  </separator>
  <separator name="vdW DFT" >
   <i type="logical" name="LUSE_VDW"> F  </i>
   <i name="Zab_VDW">     -0.84910000</i>
   <i name="PARAM1">      0.12340000</i>
   <i name="PARAM2">      1.00000000</i>
   <i name="PARAM3">      0.00000000</i>
  </separator>
  <separator name="model GW" >
   <i type="int" name="MODEL_GW">     0</i>
   <i name="MODEL_EPS0">      7.68123389</i>
   <i name="MODEL_ALPHA">      1.00000000</i>
  </separator>
  <separator name="linear response parameters" >
   <i type="logical" name="LEPSILON"> F  </i>
   <i type="logical" name="LRPA"> F  </i>
   <i type="logical" name="LNABLA"> F  </i>
   <i type="logical" name="LVEL"> F  </i>
   <i type="int" name="KINTER">     0</i>
   <i name="CSHIFT">      0.10000000</i>
   <i name="OMEGAMAX">     -1.00000000</i>
   <i name="DEG_THRESHOLD">      0.00200000</i>
   <i name="RTIME">     -0.10000000</i>
   <i name="WPLASMAI">      0.00000000</i>
   <v name="DFIELD">      0.00000000      0.00000000      0.00000000</v>
   <v name="WPLASMA">      0.00000000      0.00000000      0.00000000      0.00000000      0.00000000      0.00000000      0.00000000      0.00000000      0.00000000</v>
  </separator>
  <separator name="orbital magnetization" >
   <i type="logical" name="NUCIND"> F  </i>
   <v name="MAGPOS">      0.00000000      0.00000000      0.00000000</v>
   <i type="logical" name="LNICSALL"> T  </i>
   <i type="logical" name="ORBITALMAG"> F  </i>
   <i type="logical" name="LMAGBLOCH"> F  </i>
   <i type="logical" name="LCHIMAG"> F  </i>
   <i type="logical" name="LGAUGE"> T  </i>
   <i type="int" name="MAGATOM">     0</i>
   <v name="MAGDIPOL">      0.00000000      0.00000000      0.00000000</v>
   <v name="AVECCONST">      0.00000000      0.00000000      0.00000000</v>
  </separator>
  <separator name="response functions" >
   <i type="logical" name="LADDER"> F  </i>
   <i type="logical" name="LRPAFORCE"> F  </i>
   <i type="logical" name="LFXC"> F  </i>
   <i type="logical" name="LHARTREE"> T  </i>
   <i type="int" name="IBSE">     0</i>
   <v type="int" name="KPOINT">    -1     0     0     0</v>
   <i type="logical" name="LTCTE"> F  </i>
   <i type="logical" name="LTETE"> F  </i>
   <i type="logical" name="LTRIPLET"> F  </i>
   <i type="logical" name="LFXCEPS"> F  </i>
   <i type="logical" name="LFXHEG"> F  </i>
   <i type="int" name="NATURALO">     2</i>
   <i type="logical" name="L2ORDER"> F  </i>
   <i type="logical" name="LMP2LT"> F  </i>
   <i type="logical" name="LUSEW"> F  </i>
   <i name="ENCUTGW">     -2.00000000</i>
   <i name="ENCUTGWSOFT">     -2.00000000</i>
   <i name="ENCUTLF">     -1.00000000</i>
   <i type="int" name="LMAXMP2">    -1</i>
   <i name="SCISSOR">      0.00000000</i>
   <i type="int" name="NOMEGA">     0</i>
   <i type="int" name="NOMEGAR">     0</i>
   <i type="int" name="NBANDSGW">    -1</i>
   <i type="int" name="NBANDSO">    -1</i>
   <i type="int" name="NBANDSV">    -1</i>
   <i type="int" name="NELM">   100</i>
   <i type="int" name="NELMHF">     1</i>
   <i type="int" name="DIM">     3</i>
   <i type="int" name="ANTIRES">     0</i>
   <i name="OMEGAMAX">    -30.00000000</i>
   <i name="OMEGAMIN">    -30.00000000</i>
   <i name="OMEGATL">   -200.00000000</i>
   <i type="int" name="OMEGAGRID">   140</i>
   <i name="CSHIFT">     -0.10000000</i>
   <i type="logical" name="SELFENERGY"> F  </i>
   <i type="logical" name="LSPECTRAL"> F  </i>
   <i type="logical" name="LSPECTRALGW"> F  </i>
   <i type="logical" name="LSINGLES"> F  </i>
   <i type="logical" name="LFERMIGW"> F  </i>
   <i type="logical" name="ODDONLYGW"> F  </i>
   <i type="logical" name="EVENONLYGW"> F  </i>
   <i type="int" name="NKREDLFX">     1</i>
   <i type="int" name="NKREDLFY">     1</i>
   <i type="int" name="NKREDLFZ">     1</i>
   <i type="int" name="MAXMEM">  2800</i>
   <i type="int" name="TELESCOPE">     0</i>
   <i type="int" name="TAUPAR">     1</i>
   <i type="int" name="OMEGAPAR">    -1</i>
   <i name="LAMBDA">      1.00000000</i>
  </separator>
  <separator name="External order field" >
   <i name="OFIELD_KAPPA">      0.00000000</i>
   <v name="OFIELD_K">      0.00000000      0.00000000      0.00000000</v>
   <i name="OFIELD_Q6_NEAR">      0.00000000</i>
   <i name="OFIELD_Q6_FAR">      0.00000000</i>
   <i name="OFIELD_A">      0.00000000</i>
  </separator>
 </parameters>
 <atominfo>
  <atoms>     288 </atoms>
  <types>       2 </types>
  <array name="atoms" >
   <dimension dim="1">ion</dimension>
   <field type="string">element</field>
   <field type="int">atomtype</field>
   <set>
    <rc><c>Fe</c><c>   1</c></rc>
    <rc><c>Fe</c><c>   1</c></rc>
    <rc><c>Fe</c><c>   1</c></rc>
    <rc><c>Fe</c><c>   1</c></rc>
    <rc><c>Fe</c><c>   1</c></rc>
    <rc><c>Fe</c><c>   1</c></rc>
    <rc><c>Fe</c><c>   1</c></rc>
    <rc><c>Fe</c><c>   1</c></rc>
    <rc><c>Fe</c><c>   1</c></rc>
    <rc><c>Fe</c><c>   1</c></rc>
    <rc><c>Fe</c><c>   1</c></rc>
    <rc><c>Fe</c><c>   1</c></rc>
    <rc><c>Fe</c><c>   1</c></rc>
    <rc><c>Fe</c><c>   1</c></rc>
    <rc><c>Fe</c><c>   1</c></rc>
    <rc><c>Fe</c><c>   1</c></rc>
    <rc><c>Fe</c><c>   1</c></rc>
    <rc><c>Fe</c><c>   1</c></rc>
    <rc><c>Fe</c><c>   1</c></rc>
    <rc><c>Fe</c><c>   1</c></rc>
    <rc><c>Fe</c><c>   1</c></rc>
    <rc><c>Fe</c><c>   1</c></rc>
    <rc><c>Fe</c><c>   1</c></rc>
    <rc><c>Fe</c><c>   1</c></rc>
    <rc><c>Fe</c><c>   1</c></rc>
    <rc><c>Fe</c><c>   1</c></rc>
    <rc><c>Fe</c><c>   1</c></rc>
    <rc><c>Fe</c><c>   1</c></rc>
    <rc><c>Fe</c><c>   1</c></rc>
    <rc><c>Fe</c><c>   1</c></rc>
    <rc><c>Fe</c><c>   1</c></rc>
    <rc><c>Fe</c><c>   1</c></rc>
    <rc><c>Fe</c><c>   1</c></rc>
    <rc><c>Fe</c><c>   1</c></rc>
    <rc><c>Fe</c><c>   1</c></rc>
    <rc><c>Fe</c><c>   1</c></rc>
    <rc><c>Fe</c><c>   1</c></rc>
    <rc><c>Fe</c><c>   1</c></rc>
    <rc><c>Fe</c><c>   1</c></rc>
    <rc><c>Fe</c><c>   1</c></rc>
    <rc><c>Fe</c><c>   1</c></rc>
    <rc><c>Fe</c><c>   1</c></rc>
    <rc><c>Fe</c><c>   1</c></rc>
    <rc><c>Fe</c><c>   1</c></rc>
    <rc><c>Fe</c><c>   1</c></rc>
    <rc><c>Fe</c><c>   1</c></rc>
    <rc><c>Fe</c><c>   1</c></rc>
    <rc><c>Fe</c><c>   1</c></rc>
    <rc><c>Fe</c><c>   1</c></rc>
    <rc><c>Fe</c><c>   1</c></rc>
    <rc><c>Fe</c><c>   1</c></rc>
    <rc><c>Fe</c><c>   1</c></rc>
    <rc><c>Fe</c><c>   1</c></rc>
    <rc><c>Fe</c><c>   1</c></rc>
    <rc><c>Fe</c><c>   1</c></rc>
    <rc><c>Fe</c><c>   1</c></rc>
    <rc><c>Fe</c><c>   1</c></rc>
    <rc><c>Fe</c><c>   1</c></rc>
    <rc><c>Fe</c><c>   1</c></rc>
    <rc><c>Fe</c><c>   1</c></rc>
    <rc><c>Fe</c><c>   1</c></rc>
    <rc><c>Fe</c><c>   1</c></rc>
    <rc><c>Fe</c><c>   1</c></rc>
    <rc><c>Fe</c><c>   1</c></rc>
    <rc><c>Fe</c><c>   1</c></rc>
    <rc><c>Fe</c><c>   1</c></rc>
    <rc><c>Fe</c><c>   1</c></rc>
    <rc><c>Fe</c><c>   1</c></rc>
    <rc><c>Fe</c><c>   1</c></rc>
    <rc><c>Fe</c><c>   1</c></rc>
    <rc><c>Fe</c><c>   1</c></rc>
    <rc><c>Fe</c><c>   1</c></rc>
    <rc><c>Fe</c><c>   1</c></rc>
    <rc><c>Fe</c><c>   1</c></rc>
    <rc><c>Fe</c><c>   1</c></rc>
    <rc><c>Fe</c><c>   1</c></rc>
    <rc><c>Fe</c><c>   1</c></rc>
    <rc><c>Fe</c><c>   1</c></rc>
    <rc><c>Fe</c><c>   1</c></rc>
    <rc><c>Fe</c><c>   1</c></rc>
    <rc><c>Fe</c><c>   1</c></rc>
    <rc><c>Fe</c><c>   1</c></rc>
    <rc><c>Fe</c><c>   1</c></rc>
    <rc><c>Fe</c><c>   1</c></rc>
    <rc><c>Fe</c><c>   1</c></rc>
    <rc><c>Fe</c><c>   1</c></rc>
    <rc><c>Fe</c><c>   1</c></rc>
    <rc><c>Fe</c><c>   1</c></rc>
    <rc><c>Fe</c><c>   1</c></rc>
    <rc><c>Fe</c><c>   1</c></rc>
    <rc><c>Fe</c><c>   1</c></rc>
    <rc><c>Fe</c><c>   1</c></rc>
    <rc><c>Fe</c><c>   1</c></rc>
    <rc><c>Fe</c><c>   1</c></rc>
    <rc><c>Fe</c><c>   1</c></rc>
    <rc><c>Fe</c><c>   1</c></rc>
    <rc><c>Fe</c><c>   1</c></rc>
    <rc><c>Fe</c><c>   1</c></rc>
    <rc><c>Fe</c><c>   1</c></rc>
    <rc><c>Fe</c><c>   1</c></rc>
    <rc><c>Fe</c><c>   1</c></rc>
    <rc><c>Fe</c><c>   1</c></rc>
    <rc><c>Fe</c><c>   1</c></rc>
    <rc><c>Fe</c><c>   1</c></rc>
    <rc><c>Fe</c><c>   1</c></rc>
    <rc><c>Fe</c><c>   1</c></rc>
    <rc><c>Fe</c><c>   1</c></rc>
    <rc><c>Fe</c><c>   1</c></rc>
    <rc><c>Fe</c><c>   1</c></rc>
    <rc><c>Fe</c><c>   1</c></rc>
    <rc><c>Fe</c><c>   1</c></rc>
    <rc><c>Fe</c><c>   1</c></rc>
    <rc><c>Fe</c><c>   1</c></rc>
    <rc><c>Fe</c><c>   1</c></rc>
    <rc><c>Fe</c><c>   1</c></rc>
    <rc><c>Fe</c><c>   1</c></rc>
    <rc><c>Fe</c><c>   1</c></rc>
    <rc><c>Fe</c><c>   1</c></rc>
    <rc><c>Fe</c><c>   1</c></rc>
    <rc><c>Fe</c><c>   1</c></rc>
    <rc><c>Fe</c><c>   1</c></rc>
    <rc><c>Fe</c><c>   1</c></rc>
    <rc><c>Fe</c><c>   1</c></rc>
    <rc><c>Fe</c><c>   1</c></rc>
    <rc><c>Fe</c><c>   1</c></rc>
    <rc><c>Fe</c><c>   1</c></rc>
    <rc><c>Fe</c><c>   1</c></rc>
    <rc><c>Fe</c><c>   1</c></rc>
    <rc><c>Fe</c><c>   1</c></rc>
    <rc><c>Fe</c><c>   1</c></rc>
    <rc><c>Fe</c><c>   1</c></rc>
    <rc><c>Fe</c><c>   1</c></rc>
    <rc><c>Fe</c><c>   1</c></rc>
    <rc><c>Fe</c><c>   1</c></rc>
    <rc><c>Fe</c><c>   1</c></rc>
    <rc><c>Fe</c><c>   1</c></rc>
    <rc><c>Fe</c><c>   1</c></rc>
    <rc><c>Fe</c><c>   1</c></rc>
    <rc><c>Fe</c><c>   1</c></rc>
    <rc><c>Fe</c><c>   1</c></rc>
    <rc><c>Fe</c><c>   1</c></rc>
    <rc><c>Fe</c><c>   1</c></rc>
    <rc><c>Fe</c><c>   1</c></rc>
    <rc><c>Fe</c><c>   1</c></rc>
    <rc><c>Fe</c><c>   1</c></rc>
    <rc><c>Fe</c><c>   1</c></rc>
    <rc><c>Fe</c><c>   1</c></rc>
    <rc><c>Fe</c><c>   1</c></rc>
    <rc><c>Fe</c><c>   1</c></rc>
    <rc><c>Fe</c><c>   1</c></rc>
    <rc><c>Fe</c><c>   1</c></rc>
    <rc><c>Fe</c><c>   1</c></rc>
    <rc><c>Fe</c><c>   1</c></rc>
    <rc><c>Fe</c><c>   1</c></rc>
    <rc><c>Fe</c><c>   1</c></rc>
    <rc><c>Fe</c><c>   1</c></rc>
    <rc><c>Fe</c><c>   1</c></rc>
    <rc><c>Fe</c><c>   1</c></rc>
    <rc><c>Fe</c><c>   1</c></rc>
    <rc><c>Fe</c><c>   1</c></rc>
    <rc><c>Fe</c><c>   1</c></rc>
    <rc><c>Fe</c><c>   1</c></rc>
    <rc><c>Fe</c><c>   1</c></rc>
    <rc><c>Fe</c><c>   1</c></rc>
    <rc><c>Fe</c><c>   1</c></rc>
    <rc><c>Fe</c><c>   1</c></rc>
    <rc><c>Fe</c><c>   1</c></rc>
    <rc><c>Fe</c><c>   1</c></rc>
    <rc><c>Fe</c><c>   1</c></rc>
    <rc><c>Fe</c><c>   1</c></rc>
    <rc><c>Fe</c><c>   1</c></rc>
    <rc><c>Fe</c><c>   1</c></rc>
    <rc><c>Fe</c><c>   1</c></rc>
    <rc><c>Fe</c><c>   1</c></rc>
    <rc><c>Fe</c><c>   1</c></rc>
    <rc><c>Fe</c><c>   1</c></rc>
    <rc><c>Fe</c><c>   1</c></rc>
    <rc><c>Fe</c><c>   1</c></rc>
    <rc><c>Fe</c><c>   1</c></rc>
    <rc><c>Fe</c><c>   1</c></rc>
    <rc><c>Fe</c><c>   1</c></rc>
    <rc><c>Fe</c><c>   1</c></rc>
    <rc><c>Fe</c><c>   1</c></rc>
    <rc><c>Fe</c><c>   1</c></rc>
    <rc><c>Fe</c><c>   1</c></rc>
    <rc><c>Fe</c><c>   1</c></rc>
    <rc><c>Fe</c><c>   1</c></rc>
    <rc><c>Fe</c><c>   1</c></rc>
    <rc><c>Fe</c><c>   1</c></rc>
    <rc><c>Fe</c><c>   1</c></rc>
    <rc><c>Fe</c><c>   1</c></rc>
    <rc><c>Fe</c><c>   1</c></rc>
    <rc><c>Fe</c><c>   1</c></rc>
    <rc><c>Fe</c><c>   1</c></rc>
    <rc><c>Fe</c><c>   1</c></rc>
    <rc><c>Fe</c><c>   1</c></rc>
    <rc><c>Fe</c><c>   1</c></rc>
    <rc><c>Fe</c><c>   1</c></rc>
    <rc><c>Fe</c><c>   1</c></rc>
    <rc><c>Fe</c><c>   1</c></rc>
    <rc><c>Fe</c><c>   1</c></rc>
    <rc><c>Fe</c><c>   1</c></rc>
    <rc><c>Fe</c><c>   1</c></rc>
    <rc><c>Fe</c><c>   1</c></rc>
    <rc><c>Fe</c><c>   1</c></rc>
    <rc><c>Fe</c><c>   1</c></rc>
    <rc><c>Fe</c><c>   1</c></rc>
    <rc><c>Fe</c><c>   1</c></rc>
    <rc><c>Fe</c><c>   1</c></rc>
    <rc><c>Fe</c><c>   1</c></rc>
    <rc><c>Fe</c><c>   1</c></rc>
    <rc><c>Fe</c><c>   1</c></rc>
    <rc><c>Fe</c><c>   1</c></rc>
    <rc><c>Fe</c><c>   1</c></rc>
    <rc><c>Fe</c><c>   1</c></rc>
    <rc><c>Fe</c><c>   1</c></rc>
    <rc><c>Fe</c><c>   1</c></rc>
    <rc><c>Fe</c><c>   1</c></rc>
    <rc><c>Fe</c><c>   1</c></rc>
    <rc><c>Fe</c><c>   1</c></rc>
    <rc><c>Fe</c><c>   1</c></rc>
    <rc><c>Fe</c><c>   1</c></rc>
    <rc><c>Fe</c><c>   1</c></rc>
    <rc><c>Fe</c><c>   1</c></rc>
    <rc><c>Fe</c><c>   1</c></rc>
    <rc><c>Fe</c><c>   1</c></rc>
    <rc><c>Fe</c><c>   1</c></rc>
    <rc><c>Fe</c><c>   1</c></rc>
    <rc><c>Fe</c><c>   1</c></rc>
    <rc><c>Fe</c><c>   1</c></rc>
    <rc><c>Fe</c><c>   1</c></rc>
    <rc><c>Fe</c><c>   1</c></rc>
    <rc><c>Fe</c><c>   1</c></rc>
    <rc><c>Fe</c><c>   1</c></rc>
    <rc><c>Fe</c><c>   1</c></rc>
    <rc><c>Fe</c><c>   1</c></rc>
    <rc><c>Fe</c><c>   1</c></rc>
    <rc><c>Fe</c><c>   1</c></rc>
    <rc><c>Fe</c><c>   1</c></rc>
    <rc><c>Fe</c><c>   1</c></rc>
    <rc><c>Fe</c><c>   1</c></rc>
    <rc><c>Fe</c><c>   1</c></rc>
    <rc><c>Fe</c><c>   1</c></rc>
    <rc><c>Fe</c><c>   1</c></rc>
    <rc><c>Fe</c><c>   1</c></rc>
    <rc><c>Fe</c><c>   1</c></rc>
    <rc><c>Fe</c><c>   1</c></rc>
    <rc><c>Fe</c><c>   1</c></rc>
    <rc><c>Fe</c><c>   1</c></rc>
    <rc><c>Fe</c><c>   1</c></rc>
    <rc><c>Fe</c><c>   1</c></rc>
    <rc><c>Fe</c><c>   1</c></rc>
    <rc><c>Fe</c><c>   1</c></rc>
    <rc><c>Fe</c><c>   1</c></rc>
    <rc><c>Fe</c><c>   1</c></rc>
    <rc><c>Fe</c><c>   1</c></rc>
    <rc><c>Fe</c><c>   1</c></rc>
    <rc><c>Fe</c><c>   1</c></rc>
    <rc><c>Fe</c><c>   1</c></rc>
    <rc><c>Fe</c><c>   1</c></rc>
    <rc><c>Fe</c><c>   1</c></rc>
    <rc><c>Fe</c><c>   1</c></rc>
    <rc><c>Fe</c><c>   1</c></rc>
    <rc><c>Fe</c><c>   1</c></rc>
    <rc><c>Fe</c><c>   1</c></rc>
    <rc><c>Fe</c><c>   1</c></rc>
    <rc><c>Fe</c><c>   1</c></rc>
    <rc><c>Fe</c><c>   1</c></rc>
    <rc><c>Fe</c><c>   1</c></rc>
    <rc><c>Fe</c><c>   1</c></rc>
    <rc><c>Fe</c><c>   1</c></rc>
    <rc><c>Fe</c><c>   1</c></rc>
    <rc><c>Fe</c><c>   1</c></rc>
    <rc><c>Fe</c><c>   1</c></rc>
    <rc><c>Mn</c><c>   2</c></rc>
    <rc><c>Mn</c><c>   2</c></rc>
    <rc><c>Mn</c><c>   2</c></rc>
    <rc><c>Mn</c><c>   2</c></rc>
    <rc><c>Mn</c><c>   2</c></rc>
    <rc><c>Mn</c><c>   2</c></rc>
    <rc><c>Mn</c><c>   2</c></rc>
    <rc><c>Mn</c><c>   2</c></rc>
    <rc><c>Mn</c><c>   2</c></rc>
    <rc><c>Mn</c><c>   2</c></rc>
    <rc><c>Mn</c><c>   2</c></rc>
    <rc><c>Mn</c><c>   2</c></rc>
    <rc><c>Mn</c><c>   2</c></rc>
    <rc><c>Mn</c><c>   2</c></rc>
   </set>
  </array>
  <array name="atomtypes" >
   <dimension dim="1">type</dimension>
   <field type="int">atomspertype</field>
   <field type="string">element</field>
   <field>mass</field>
   <field>valence</field>
   <field type="string">pseudopotential</field>
   <set>
    <rc><c> 274</c><c>Fe</c><c>     55.84700000</c><c>      8.00000000</c><c>  PAW_PBE Fe_GW 31Mar2010               </c></rc>
    <rc><c>  14</c><c>Mn</c><c>     54.93800000</c><c>      7.00000000</c><c>  PAW_PBE Mn_GW 31Mar2010               </c></rc>
   </set>
  </array>
 </atominfo>
 <structure name="initialpos" >
  <crystal>
   <varray name="basis" >
    <v>       9.72667804       0.00000000       0.00000000 </v>
    <v>       0.00000000       8.42355028       0.00000000 </v>
    <v>       0.00000000       0.00000000      45.00000000 </v>
   </varray>
   <i name="volume">   3686.99226691 </i>
   <varray name="rec_basis" >
    <v>       0.10281002       0.00000000       0.00000000 </v>
    <v>       0.00000000       0.11871479       0.00000000 </v>
    <v>       0.00000000       0.00000000       0.02222222 </v>
   </varray>
  </crystal>
  <varray name="positions" >
   <v>       0.06298068       0.03642562       0.12596907 </v>
   <v>       0.31331220       0.87063847       0.65376271 </v>
   <v>       0.18737939       0.11732877       0.78679674 </v>
   <v>       0.43771111       0.29073698       0.38999351 </v>
   <v>       0.31357215       0.70573774       0.83106853 </v>
   <v>       0.81419883       0.20941428       0.83214157 </v>
   <v>       0.18759008       0.95601067       0.83147529 </v>
   <v>       0.56305231       0.20704773       0.56481748 </v>
   <v>       0.06115341       0.03704266       0.74214887 </v>
   <v>       0.81231258       0.87080719       0.52109560 </v>
   <v>       0.18882798       0.28754561       0.74215790 </v>
   <v>       0.93685281       0.45632390       0.34651134 </v>
   <v>       0.93612356       0.29060870       0.39005050 </v>
   <v>       0.81272698       0.03515869       0.87397316 </v>
   <v>       0.18687908       0.78705196       0.60981819 </v>
   <v>       0.56230839       0.04095871       0.39002368 </v>
   <v>       0.93865492       0.95924799       0.83220589 </v>
   <v>       0.31383121       0.53593628       0.87425505 </v>
   <v>       0.68645007       0.28784576       0.74212434 </v>
   <v>       0.18806920       0.62011711       0.16855227 </v>
   <v>       0.81237251       0.20626039       0.47884344 </v>
   <v>       0.81347778       0.53725311       0.60980723 </v>
   <v>       0.31289993       0.87371696       0.43482294 </v>
   <v>       0.81165673       0.03997593       0.25774960 </v>
   <v>       0.68733999       0.95718777       0.34646431 </v>
   <v>       0.93675028       0.12026369       0.16877444 </v>
   <v>       0.93783427       0.12157971       0.52117450 </v>
   <v>       0.56241922       0.54108631       0.25796640 </v>
   <v>       0.68602565       0.79100591       0.87405236 </v>
   <v>       0.56299464       0.36990449       0.16849609 </v>
   <v>       0.43703910       0.78807669       0.74228482 </v>
   <v>       0.81274914       0.70692494       0.56492890 </v>
   <v>       0.56313845       0.86884451       0.78657373 </v>
   <v>       0.68774115       0.12093028       0.52115914 </v>
   <v>       0.81328256       0.36985184       0.65367957 </v>
   <v>       0.93760985       0.45630534       0.83165065 </v>
   <v>       0.06229486       0.20321269       0.69815051 </v>
   <v>       0.43736973       0.95368829       0.69795616 </v>
   <v>       0.31258809       0.20517909       0.83145820 </v>
   <v>       0.43811060       0.61988222       0.65359612 </v>
   <v>       0.31156984       0.53675466       0.60979583 </v>
   <v>       0.93721456       0.45706682       0.56488299 </v>
   <v>       0.68808968       0.78844929       0.74231066 </v>
   <v>       0.93837715       0.79206727       0.12605467 </v>
   <v>       0.68754300       0.79045088       0.38991014 </v>
   <v>       0.93803494       0.78850329       0.74240235 </v>
   <v>       0.06306843       0.20679802       0.34628054 </v>
   <v>       0.81092605       0.04143796       0.39049904 </v>
   <v>       0.43724403       0.11724279       0.78690129 </v>
   <v>       0.06241559       0.20876023       0.21303541 </v>
   <v>       0.06190862       0.36998453       0.16863338 </v>
   <v>       0.93721025       0.78983123       0.25764252 </v>
   <v>       0.56296483       0.20436459       0.69835922 </v>
   <v>       0.68678773       0.95391883       0.69809171 </v>
   <v>       0.43785892       0.79169106       0.12584129 </v>
   <v>       0.43702016       0.95709577       0.56486495 </v>
   <v>       0.81267766       0.36928940       0.78663816 </v>
   <v>       0.68682169       0.29053452       0.25802241 </v>
   <v>       0.18801708       0.45709649       0.56482026 </v>
   <v>       0.06276997       0.86985728       0.16879245 </v>
   <v>       0.18839019       0.28750236       0.61003484 </v>
   <v>       0.56361480       0.70661018       0.34647831 </v>
   <v>       0.31205850       0.20446077       0.69829886 </v>
   <v>       0.56225154       0.53518954       0.87422278 </v>
   <v>       0.06289645       0.70714767       0.56486297 </v>
   <v>       0.68806484       0.61683101       0.78663268 </v>
   <v>       0.31106962       0.54067059       0.39004566 </v>
   <v>       0.18754272       0.62061100       0.52112745 </v>
   <v>       0.56274445       0.87413067       0.43491093 </v>
   <v>       0.43719044       0.45692765       0.56484777 </v>
   <v>       0.43771804       0.28855267       0.74230659 </v>
   <v>       0.81214651       0.87576793       0.30208441 </v>
   <v>       0.81187578       0.70789685       0.34660096 </v>
   <v>       0.43809912       0.45516266       0.83127150 </v>
   <v>       0.68748264       0.95594473       0.47871201 </v>
   <v>       0.68752780       0.45361226       0.69804514 </v>
   <v>       0.56245601       0.87095229       0.52113888 </v>
   <v>       0.56260919       0.37015886       0.65351892 </v>
   <v>       0.81236121       0.86943590       0.65359393 </v>
   <v>       0.81286660       0.37441888       0.43490417 </v>
   <v>       0.81287712       0.54108290       0.25754356 </v>
   <v>       0.68894378       0.45469299       0.83138601 </v>
   <v>       0.18690665       0.79152425       0.12599751 </v>
   <v>       0.68748246       0.29082433       0.38988443 </v>
   <v>       0.31252195       0.36988304       0.65353863 </v>
   <v>       0.31275410       0.20737374       0.34650050 </v>
   <v>       0.81112220       0.53792892       0.74230476 </v>
   <v>       0.68731937       0.95566751       0.83149316 </v>
   <v>       0.56258582       0.87032854       0.65353057 </v>
   <v>       0.31219675       0.70691718       0.56491823 </v>
   <v>       0.31125793       0.53452374       0.12601256 </v>
   <v>       0.68864033       0.95996003       0.21359827 </v>
   <v>       0.31295252       0.20687290       0.56489003 </v>
   <v>       0.18749766       0.95607078       0.47889864 </v>
   <v>       0.68801256       0.95697677       0.56486935 </v>
   <v>       0.43689058       0.78700688       0.60984320 </v>
   <v>       0.68722711       0.62044438       0.16822383 </v>
   <v>       0.31297484       0.87488714       0.30204930 </v>
   <v>       0.31250932       0.70592086       0.47879044 </v>
   <v>       0.93652597       0.28742974       0.61001045 </v>
   <v>       0.43803068       0.62516857       0.30209417 </v>
   <v>       0.81254487       0.86940861       0.16850001 </v>
   <v>       0.56289915       0.20832573       0.21331450 </v>
   <v>       0.93689969       0.62011956       0.16856077 </v>
   <v>       0.93892739       0.78928987       0.87406146 </v>
   <v>       0.56194585       0.36850359       0.78654480 </v>
   <v>       0.06238946       0.37059375       0.52119221 </v>
   <v>       0.31168689       0.37071810       0.16884612 </v>
   <v>       0.68744252       0.12501792       0.30215082 </v>
   <v>       0.43914709       0.95550763       0.83127496 </v>
   <v>       0.18674094       0.29102806       0.12581763 </v>
   <v>       0.18777039       0.29101557       0.25813549 </v>
   <v>       0.31203197       0.37407498       0.43492942 </v>
   <v>       0.56249522       0.03509589       0.12587629 </v>
   <v>       0.43737783       0.28737562       0.60989655 </v>
   <v>       0.18785580       0.45827400       0.34669391 </v>
   <v>       0.43684510       0.29182540       0.12593387 </v>
   <v>       0.68624757       0.79157406       0.25769051 </v>
   <v>       0.43744836       0.12084521       0.52112238 </v>
   <v>       0.18753995       0.29096379       0.87416698 </v>
   <v>       0.18740030       0.12044181       0.65352644 </v>
   <v>       0.93768600       0.12061857       0.65357937 </v>
   <v>       0.31262336       0.20822206       0.21336169 </v>
   <v>       0.06218448       0.04047762       0.39004085 </v>
   <v>       0.18780240       0.12031105       0.16873139 </v>
   <v>       0.06223874       0.53524105       0.61012202 </v>
   <v>       0.93722421       0.29082783       0.25812893 </v>
   <v>       0.56262932       0.53683240       0.60975755 </v>
   <v>       0.93722534       0.95722182       0.56488062 </v>
   <v>       0.68700673       0.62443304       0.30209509 </v>
   <v>       0.93681448       0.62456379       0.43498655 </v>
   <v>       0.93683041       0.61828600       0.78634594 </v>
   <v>       0.56161154       0.70323956       0.69796349 </v>
   <v>       0.06172522       0.70963737       0.83177791 </v>
   <v>       0.93832794       0.12400578       0.30196509 </v>
   <v>       0.93828745       0.78756695       0.60993374 </v>
   <v>       0.43857207       0.79085850       0.25753126 </v>
   <v>       0.31235510       0.36895389       0.78658987 </v>
   <v>       0.43844320       0.45897126       0.21333290 </v>
   <v>       0.18721898       0.12150600       0.52119630 </v>
   <v>       0.81191183       0.70343506       0.69809085 </v>
   <v>       0.06214128       0.03640178       0.60976965 </v>
   <v>       0.56126534       0.20557441       0.83132192 </v>
   <v>       0.31218673       0.87065262       0.52112385 </v>
   <v>       0.68752071       0.29236524       0.12579882 </v>
   <v>       0.18771555       0.95926822       0.21340765 </v>
   <v>       0.68665164       0.28717705       0.60984717 </v>
   <v>       0.31362747       0.03713738       0.61003521 </v>
   <v>       0.93745533       0.11719801       0.78676019 </v>
   <v>       0.43730483       0.79093180       0.87400840 </v>
   <v>       0.81323728       0.03727679       0.74229457 </v>
   <v>       0.93687158       0.45474009       0.69819252 </v>
   <v>       0.18760197       0.62034455       0.65351605 </v>
   <v>       0.31306992       0.70326926       0.69807811 </v>
   <v>       0.93882681       0.29149065       0.12573753 </v>
   <v>       0.43732781       0.45587036       0.47889393 </v>
   <v>       0.06263616       0.70581639       0.47875161 </v>
   <v>       0.93710490       0.12398726       0.43482304 </v>
   <v>       0.43709676       0.12495432       0.30215165 </v>
   <v>       0.18730595       0.12482226       0.43478061 </v>
   <v>       0.56248751       0.03442093       0.87417928 </v>
   <v>       0.18795957       0.95710434       0.56488864 </v>
   <v>       0.68774659       0.79223216       0.12581859 </v>
   <v>       0.56232171       0.53472370       0.12579987 </v>
   <v>       0.31150399       0.04065539       0.39011967 </v>
   <v>       0.68745259       0.11929849       0.16846036 </v>
   <v>       0.81245496       0.20793126       0.21312027 </v>
   <v>       0.06278199       0.54089217       0.25808536 </v>
   <v>       0.56250319       0.70603977       0.47871567 </v>
   <v>       0.06278115       0.20684502       0.56488785 </v>
   <v>       0.56218717       0.37459303       0.30182298 </v>
   <v>       0.43692465       0.95736748       0.34653498 </v>
   <v>       0.18826917       0.95435190       0.69814613 </v>
   <v>       0.43778473       0.62019386       0.16814023 </v>
   <v>       0.93703529       0.45832774       0.21330919 </v>
   <v>       0.06297345       0.53462892       0.12573323 </v>
   <v>       0.81265463       0.37076003       0.52110648 </v>
   <v>       0.93696736       0.62361699       0.30182160 </v>
   <v>       0.31445845       0.04063531       0.25755424 </v>
   <v>       0.68844976       0.78704259       0.60981784 </v>
   <v>       0.18783759       0.45594117       0.83153796 </v>
   <v>       0.43723198       0.11930545       0.16843246 </v>
   <v>       0.31255819       0.37076072       0.52107332 </v>
   <v>       0.43743033       0.61691930       0.78682192 </v>
   <v>       0.06182764       0.04065750       0.25796371 </v>
   <v>       0.56264677       0.70709909       0.56490936 </v>
   <v>       0.93689233       0.28649898       0.74222129 </v>
   <v>       0.68605303       0.11719596       0.78644336 </v>
   <v>       0.18673414       0.45920832       0.21341781 </v>
   <v>       0.93738103       0.79083493       0.38993089 </v>
   <v>       0.68668257       0.29342741       0.87424157 </v>
   <v>       0.31229097       0.87004820       0.16857163 </v>
   <v>       0.43777868       0.45372192       0.69814989 </v>
   <v>       0.93824335       0.95640977       0.34632285 </v>
   <v>       0.68744250       0.62140553       0.52111231 </v>
   <v>       0.06268777       0.87028740       0.65355082 </v>
   <v>       0.06220017       0.86992829       0.78640288 </v>
   <v>       0.06251523       0.36937557       0.65355704 </v>
   <v>       0.68750361       0.45573502       0.47880290 </v>
   <v>       0.18818489       0.78961464       0.25745842 </v>
   <v>       0.43709240       0.12435565       0.43493892 </v>
   <v>       0.81286205       0.03609144       0.12587094 </v>
   <v>       0.93742346       0.62076680       0.52113308 </v>
   <v>       0.06202245       0.87442413       0.43534136 </v>
   <v>       0.81303717       0.53482275       0.12586300 </v>
   <v>       0.43790153       0.45754782       0.34656432 </v>
   <v>       0.81301239       0.20804061       0.34663831 </v>
   <v>       0.31251306       0.70707960       0.34648106 </v>
   <v>       0.68739775       0.12023241       0.65351949 </v>
   <v>       0.56286757       0.87520904       0.30217586 </v>
   <v>       0.06371436       0.53721635       0.74216022 </v>
   <v>       0.93750467       0.95876636       0.21345538 </v>
   <v>       0.81209164       0.37092073       0.16899364 </v>
   <v>       0.06231969       0.87523124       0.30222397 </v>
   <v>       0.18697545       0.12494853       0.30197797 </v>
   <v>       0.06263057       0.70727104       0.34654205 </v>
   <v>       0.81170164       0.03696047       0.60987166 </v>
   <v>       0.06214021       0.37425818       0.43501228 </v>
   <v>       0.56253840       0.20753044       0.34645447 </v>
   <v>       0.81304293       0.37482057       0.30197112 </v>
   <v>       0.43721451       0.95592276       0.47881891 </v>
   <v>       0.56241567       0.54032802       0.38986279 </v>
   <v>       0.06243983       0.20598956       0.47874341 </v>
   <v>       0.31327677       0.86837055       0.78644114 </v>
   <v>       0.93811062       0.95381636       0.69803760 </v>
   <v>       0.06293923       0.37526956       0.30187482 </v>
   <v>       0.68732498       0.62033250       0.65355925 </v>
   <v>       0.68796954       0.45703731       0.56485864 </v>
   <v>       0.43661450       0.96055376       0.21353087 </v>
   <v>       0.31263665       0.20588736       0.47878837 </v>
   <v>       0.43765768       0.11933544       0.65331961 </v>
   <v>       0.68761986       0.62391900       0.43485241 </v>
   <v>       0.81289279       0.20337941       0.69807763 </v>
   <v>       0.81252509       0.70594703       0.47877144 </v>
   <v>       0.81202855       0.87424320       0.43498835 </v>
   <v>       0.93712429       0.95605806       0.47894246 </v>
   <v>       0.56237581       0.20567291       0.47880939 </v>
   <v>       0.18826791       0.62439933       0.43494428 </v>
   <v>       0.31139621       0.03734017       0.74218042 </v>
   <v>       0.93730401       0.62022672       0.65352180 </v>
   <v>       0.56236573       0.70629462       0.83131033 </v>
   <v>       0.31244373       0.37364941       0.30181317 </v>
   <v>       0.56287739       0.70774863       0.21349678 </v>
   <v>       0.18753236       0.45583863       0.47874736 </v>
   <v>       0.31434950       0.03525011       0.87382650 </v>
   <v>       0.18698505       0.45463679       0.69824641 </v>
   <v>       0.81151782       0.53387296       0.87433998 </v>
   <v>       0.18779538       0.29067130       0.39015281 </v>
   <v>       0.43682230       0.62454394       0.43502540 </v>
   <v>       0.06252330       0.70805607       0.21348218 </v>
   <v>       0.56187256       0.37435744       0.43536767 </v>
   <v>       0.43760784       0.62144642       0.52120268 </v>
   <v>       0.81227033       0.70964863       0.83106322 </v>
   <v>       0.06225326       0.37027656       0.78654214 </v>
   <v>       0.43787660       0.29182534       0.87450449 </v>
   <v>       0.31232983       0.03650592       0.12584358 </v>
   <v>       0.68767940       0.12359124       0.43481863 </v>
   <v>       0.18732701       0.95719171       0.34649155 </v>
   <v>       0.06274755       0.20931780       0.83240308 </v>
   <v>       0.56242012       0.03519640       0.61023798 </v>
   <v>       0.68760661       0.45810998       0.21316089 </v>
   <v>       0.18771306       0.78834323       0.74229194 </v>
   <v>       0.18748245       0.62499943       0.30207709 </v>
   <v>       0.43569923       0.79165315       0.39027483 </v>
   <v>       0.43738965       0.29091988       0.25810136 </v>
   <v>       0.06346476       0.53587724       0.87410220 </v>
   <v>       0.56377641       0.03724085       0.74231026 </v>
   <v>       0.18801786       0.79059688       0.87403062 </v>
   <v>       0.93746476       0.45588242       0.47874714 </v>
   <v>       0.81212634       0.54073789       0.39000244 </v>
   <v>       0.81183945       0.20686836       0.56485486 </v>
   <v>       0.18671031       0.61710234       0.78651808 </v>
   <v>       0.06337830       0.54086184       0.38996057 </v>
   <v>       0.06327750       0.70336824       0.69802570 </v>
   <v>       0.31156438       0.54135964       0.25730089 </v>
   <v>       0.31314029       0.70950681       0.21366476 </v>
   <v>       0.56252978       0.86908578       0.16767455 </v>
   <v>       0.56262113       0.53716393       0.74229210 </v>
   <v>       0.68762625       0.45639670       0.34671699 </v>
   <v>       0.93478961       0.29353951       0.87362384 </v>
   <v>       0.56307542       0.04095564       0.25750674 </v>
   <v>       0.06462292       0.03246081       0.87366074 </v>
   <v>       0.18719467       0.79181506       0.39009876 </v>
   <v>       0.81221415       0.70917179       0.21356994 </v>
   <v>       0.56257743       0.37086091       0.52123688 </v>
   <v>       0.06267688       0.87093110       0.52121048 </v>
   <v>       0.81158990       0.87006458       0.78626963 </v>
   <v>       0.31178792       0.53687586       0.74243688 </v>
  </varray>
 </structure>
 <calculation>
  <scstep>
   <time name="dav">   54.95   54.96</time>
   <time name="total">   55.10   55.16</time>
   <energy>
    <i name="alphaZ">  16293.21160653 </i>
    <i name="ewald"> 771817.79510491 </i>
    <i name="hartreedc">-962253.77552933 </i>
    <i name="XCdc">  -6508.68523311 </i>
    <i name="pawpsdc"> 162273.92519768 </i>
    <i name="pawaedc">-159623.75899949 </i>
    <i name="eentropy">     -1.05573107 </i>
    <i name="bandstr">  38465.81844408 </i>
    <i name="atom"> 168671.76673737 </i>
    <i name="e_fr_energy">  29135.24159758 </i>
    <i name="e_wo_entrp">  29136.29732865 </i>
    <i name="e_0_energy">  29135.76946311 </i>
   </energy>
  </scstep>
  <scstep>
   <time name="dav">   54.25   54.28</time>
   <time name="total">   54.26   54.28</time>
   <energy>
    <i name="e_fr_energy">   1199.54788758 </i>
    <i name="e_wo_entrp">   1201.03859182 </i>
    <i name="e_0_energy">   1200.29323970 </i>
   </energy>
  </scstep>
  <scstep>
   <time name="dav">   71.36   71.40</time>
   <time name="total">   71.37   71.40</time>
   <energy>
    <i name="e_fr_energy">  -1950.61085905 </i>
    <i name="e_wo_entrp">  -1947.04947500 </i>
    <i name="e_0_energy">  -1948.83016702 </i>
   </energy>
  </scstep>
  <scstep>
   <time name="dav">   89.49   89.53</time>
   <time name="total">   89.50   89.53</time>
   <energy>
    <i name="e_fr_energy">  -2621.29970762 </i>
    <i name="e_wo_entrp">  -2617.82586817 </i>
    <i name="e_0_energy">  -2619.56278790 </i>
   </energy>
  </scstep>
  <scstep>
   <time name="dav">   85.66   85.67</time>
   <time name="total">   87.75   87.76</time>
   <energy>
    <i name="e_fr_energy">  -2740.93073165 </i>
    <i name="e_wo_entrp">  -2737.35882263 </i>
    <i name="e_0_energy">  -2739.14477714 </i>
   </energy>
  </scstep>
  <scstep>
   <time name="diag">    8.32    8.32</time>
   <time name="diis">   37.63   37.63</time>
   <time name="orth">    2.26    2.26</time>
   <time name="total">   50.36   50.40</time>
   <energy>
    <i name="e_fr_energy">  -6520.34323373 </i>
    <i name="e_wo_entrp">  -6516.46302828 </i>
    <i name="e_0_energy">  -6518.40313101 </i>
   </energy>
  </scstep>
  <scstep>
   <time name="diag">    8.41    8.41</time>
   <time name="diis">   38.49   38.49</time>
   <time name="orth">    2.26    2.27</time>
   <time name="total">   51.36   51.40</time>
[...]
       <r>     5.8381     0.0000  2772.0000 </r>
       <r>     5.8810     0.0000  2772.0000 </r>
       <r>     5.9238     0.0000  2772.0000 </r>
       <r>     5.9667     0.0000  2772.0000 </r>
       <r>     6.0095     0.0000  2772.0000 </r>
       <r>     6.0524     0.0000  2772.0000 </r>
       <r>     6.0953     0.0000  2772.0000 </r>
       <r>     6.1381     0.0000  2772.0000 </r>
       <r>     6.1810     0.0000  2772.0000 </r>
       <r>     6.2239     0.0000  2772.0000 </r>
       <r>     6.2667     0.0000  2772.0000 </r>
       <r>     6.3096     0.0000  2772.0000 </r>
       <r>     6.3525     0.0000  2772.0000 </r>
       <r>     6.3953     0.0000  2772.0000 </r>
       <r>     6.4382     0.0000  2772.0000 </r>
       <r>     6.4811     0.0000  2772.0000 </r>
       <r>     6.5239     0.0000  2772.0000 </r>
       <r>     6.5668     0.0000  2772.0000 </r>
       <r>     6.6097     0.0000  2772.0000 </r>
       <r>     6.6525     0.0000  2772.0000 </r>
       <r>     6.6954     0.0000  2772.0000 </r>
       <r>     6.7383     0.0000  2772.0000 </r>
       <r>     6.7811     0.0000  2772.0000 </r>
      </set>
     </set>
    </array>
   </total>
  </dos>
 </calculation>
 <structure name="finalpos" >
  <crystal>
   <varray name="basis" >
    <v>       9.72667804       0.00000000       0.00000000 </v>
    <v>       0.00000000       8.42355028       0.00000000 </v>
    <v>       0.00000000       0.00000000      45.00000000 </v>
   </varray>
   <i name="volume">   3686.99226691 </i>
   <varray name="rec_basis" >
    <v>       0.10281002       0.00000000       0.00000000 </v>
    <v>       0.00000000       0.11871479       0.00000000 </v>
    <v>       0.00000000       0.00000000       0.02222222 </v>
   </varray>
  </crystal>
  <varray name="positions" >
   <v>       0.06316565       0.03733615       0.12620219 </v>
   <v>       0.31271882       0.87046157       0.65375371 </v>
   <v>       0.18700437       0.11842945       0.78652214 </v>
   <v>       0.43811247       0.29131767       0.39019081 </v>
   <v>       0.31329168       0.70584726       0.83131830 </v>
   <v>       0.81358571       0.20782563       0.83206048 </v>
   <v>       0.18688134       0.95586693       0.83154143 </v>
   <v>       0.56294615       0.20667178       0.56510326 </v>
   <v>       0.06135814       0.03711867       0.74218394 </v>
   <v>       0.81252539       0.87115316       0.52136036 </v>
   <v>       0.18804384       0.28743596       0.74210218 </v>
   <v>       0.93671941       0.45712337       0.34646821 </v>
   <v>       0.93625096       0.29089325       0.39024091 </v>
   <v>       0.81262738       0.03645153       0.87399040 </v>
   <v>       0.18707144       0.78669456       0.60979696 </v>
   <v>       0.56266552       0.04093661       0.39021460 </v>
   <v>       0.93831565       0.95780359       0.83210126 </v>
   <v>       0.31370941       0.53806601       0.87399348 </v>
   <v>       0.68714400       0.28776045       0.74211839 </v>
   <v>       0.18780282       0.61995206       0.16830821 </v>
   <v>       0.81225782       0.20612382       0.47875699 </v>
   <v>       0.81288983       0.53737422       0.60976582 </v>
   <v>       0.31287478       0.87343350       0.43498764 </v>
   <v>       0.81237220       0.04024826       0.25763362 </v>
   <v>       0.68773718       0.95711216       0.34653098 </v>
   <v>       0.93725197       0.12094990       0.16852877 </v>
   <v>       0.93754866       0.12185678       0.52140515 </v>
   <v>       0.56286556       0.54088370       0.25781133 </v>
   <v>       0.68702877       0.78898125       0.87403013 </v>
   <v>       0.56248346       0.37037888       0.16808105 </v>
   <v>       0.43745507       0.78746400       0.74222748 </v>
   <v>       0.81302053       0.70628052       0.56515341 </v>
   <v>       0.56319983       0.86849349       0.78640686 </v>
   <v>       0.68786158       0.12166494       0.52135257 </v>
   <v>       0.81275109       0.37033796       0.65370461 </v>
   <v>       0.93712555       0.45653755       0.83178485 </v>
   <v>       0.06252208       0.20351342       0.69804700 </v>
   <v>       0.43736804       0.95383240       0.69796135 </v>
   <v>       0.31272084       0.20525772       0.83160317 </v>
   <v>       0.43767921       0.61960830       0.65368179 </v>
   <v>       0.31190622       0.53693581       0.60980518 </v>
   <v>       0.93729009       0.45685093       0.56512336 </v>
   <v>       0.68796816       0.78797293       0.74231649 </v>
   <v>       0.93847323       0.79081206       0.12627762 </v>
   <v>       0.68765323       0.79001933       0.39017831 </v>
   <v>       0.93757250       0.78783676       0.74232614 </v>
   <v>       0.06254522       0.20735015       0.34640990 </v>
   <v>       0.81167326       0.04098406       0.39051923 </v>
   <v>       0.43752553       0.11823218       0.78660116 </v>
   <v>       0.06218439       0.20852522       0.21297958 </v>
   <v>       0.06227843       0.37040481       0.16834482 </v>
   <v>       0.93707155       0.78995826       0.25761920 </v>
   <v>       0.56247916       0.20449143       0.69818035 </v>
   <v>       0.68748875       0.95365822       0.69806136 </v>
   <v>       0.43765016       0.79047419       0.12594063 </v>
   <v>       0.43733706       0.95650618       0.56510525 </v>
   <v>       0.81256961       0.36931409       0.78646912 </v>
   <v>       0.68748974       0.29094891       0.25782875 </v>
   <v>       0.18778237       0.45665342       0.56511183 </v>
   <v>       0.06258913       0.87081764       0.16845511 </v>
   <v>       0.18789951       0.28756883       0.60992331 </v>
   <v>       0.56346751       0.70612877       0.34655621 </v>
   <v>       0.31233515       0.20455213       0.69811550 </v>
   <v>       0.56349933       0.53808454       0.87402713 </v>
   <v>       0.06249777       0.70618858       0.56505301 </v>
   <v>       0.68813441       0.61847248       0.78658067 </v>
   <v>       0.31190835       0.54039456       0.39023229 </v>
   <v>       0.18757030       0.62149881       0.52148682 </v>
   <v>       0.56255552       0.87350853       0.43503255 </v>
   <v>       0.43734965       0.45655637       0.56510561 </v>
   <v>       0.43758499       0.28824163       0.74217219 </v>
   <v>       0.81234415       0.87481650       0.30195839 </v>
   <v>       0.81207970       0.70711728       0.34653549 </v>
   <v>       0.43855696       0.45543568       0.83153397 </v>
   <v>       0.68753772       0.95586992       0.47868178 </v>
   <v>       0.68733236       0.45370962       0.69798022 </v>
   <v>       0.56268926       0.87146546       0.52129576 </v>
   <v>       0.56259743       0.37034788       0.65359098 </v>
   <v>       0.81259599       0.86970176       0.65369606 </v>
   <v>       0.81265935       0.37454389       0.43495089 </v>
   <v>       0.81300242       0.54071029       0.25759072 </v>
   <v>       0.68888863       0.45530984       0.83170630 </v>
   <v>       0.18728697       0.79059804       0.12620197 </v>
   <v>       0.68748111       0.29152246       0.39007360 </v>
   <v>       0.31257289       0.37038504       0.65366067 </v>
   <v>       0.31275973       0.20782322       0.34650372 </v>
   <v>       0.81160027       0.53753203       0.74225074 </v>
   <v>       0.68788861       0.95494929       0.83169319 </v>
   <v>       0.56280914       0.87044478       0.65354307 </v>
   <v>       0.31204677       0.70589596       0.56512784 </v>
   <v>       0.31198915       0.53542322       0.12605346 </v>
   <v>       0.68855801       0.95895100       0.21341276 </v>
   <v>       0.31281514       0.20674850       0.56513794 </v>
   <v>       0.18729524       0.95623535       0.47884738 </v>
   <v>       0.68811009       0.95617433       0.56509701 </v>
   <v>       0.43733743       0.78660628       0.60979220 </v>
   <v>       0.68722205       0.62067208       0.16808231 </v>
   <v>       0.31284546       0.87446210       0.30188976 </v>
   <v>       0.31257956       0.70553646       0.47870755 </v>
   <v>       0.93693468       0.28764106       0.60991348 </v>
   <v>       0.43818907       0.62441982       0.30206102 </v>
   <v>       0.81254614       0.87013504       0.16832955 </v>
   <v>       0.56283953       0.20825116       0.21314798 </v>
   <v>       0.93712606       0.62007175       0.16834503 </v>
   <v>       0.93727679       0.78800946       0.87404928 </v>
   <v>       0.56235133       0.36874216       0.78641799 </v>
   <v>       0.06237782       0.37163612       0.52137899 </v>
   <v>       0.31163090       0.37072144       0.16846683 </v>
   <v>       0.68786159       0.12536354       0.30206604 </v>
   <v>       0.43931072       0.95479144       0.83146827 </v>
   <v>       0.18773649       0.28982188       0.12617225 </v>
   <v>       0.18717713       0.29099750       0.25787347 </v>
   <v>       0.31222094       0.37445620       0.43497542 </v>
   <v>       0.56201863       0.03649429       0.12598634 </v>
   <v>       0.43762829       0.28752810       0.60983054 </v>
   <v>       0.18754560       0.45832283       0.34659039 </v>
   <v>       0.43658871       0.29076093       0.12608076 </v>
   <v>       0.68720920       0.79120034       0.25760782 </v>
   <v>       0.43734778       0.12187013       0.52135202 </v>
   <v>       0.18729378       0.28946250       0.87408476 </v>
   <v>       0.18762420       0.12074704       0.65368355 </v>
   <v>       0.93771536       0.12040612       0.65369299 </v>
   <v>       0.31263816       0.20853723       0.21316120 </v>
   <v>       0.06135559       0.04096098       0.39023578 </v>
   <v>       0.18749074       0.12135190       0.16839230 </v>
   <v>       0.06256224       0.53607931       0.60998602 </v>
   <v>       0.93710105       0.29113920       0.25785242 </v>
   <v>       0.56261722       0.53685047       0.60972992 </v>
   <v>       0.93722563       0.95628238       0.56507270 </v>
   <v>       0.68766363       0.62389389       0.30203128 </v>
   <v>       0.93708457       0.62421211       0.43498008 </v>
   <v>       0.93667352       0.61990284       0.78627426 </v>
   <v>       0.56187255       0.70275150       0.69794162 </v>
   <v>       0.06144677       0.70861229       0.83178592 </v>
   <v>       0.93761895       0.12476988       0.30185559 </v>
   <v>       0.93780326       0.78724186       0.60979861 </v>
   <v>       0.43828642       0.79082677       0.25747742 </v>
   <v>       0.31234967       0.36904670       0.78632755 </v>
   <v>       0.43778046       0.45859771       0.21311791 </v>
   <v>       0.18733458       0.12206949       0.52143280 </v>
   <v>       0.81215064       0.70361612       0.69806294 </v>
   <v>       0.06238098       0.03692465       0.60973170 </v>
   <v>       0.56227613       0.20532696       0.83148570 </v>
   <v>       0.31232296       0.87121029       0.52144686 </v>
   <v>       0.68712259       0.29116404       0.12612550 </v>
   <v>       0.18765019       0.95870651       0.21322726 </v>
   <v>       0.68692472       0.28750954       0.60981170 </v>
   <v>       0.31316435       0.03743070       0.60998562 </v>
   <v>       0.93730734       0.11821037       0.78663872 </v>
   <v>       0.43848020       0.78882871       0.87391632 </v>
   <v>       0.81304612       0.03718536       0.74225994 </v>
   <v>       0.93718197       0.45421067       0.69810140 </v>
   <v>       0.18773546       0.62006606       0.65363663 </v>
   <v>       0.31279704       0.70295920       0.69800669 </v>
   <v>       0.93850245       0.29021349       0.12622724 </v>
   <v>       0.43779959       0.45583070       0.47888002 </v>
   <v>       0.06208912       0.70530729       0.47873829 </v>
   <v>       0.93700396       0.12386492       0.43493028 </v>
   <v>       0.43717297       0.12509231       0.30201063 </v>
   <v>       0.18695747       0.12421003       0.43489188 </v>
   <v>       0.56343392       0.03554101       0.87395121 </v>
   <v>       0.18753402       0.95645197       0.56508107 </v>
   <v>       0.68734797       0.79079546       0.12601761 </v>
   <v>       0.56194629       0.53584210       0.12586421 </v>
   <v>       0.31204986       0.04113773       0.39032888 </v>
   <v>       0.68763515       0.11977040       0.16826168 </v>
   <v>       0.81266892       0.20758537       0.21310515 </v>
   <v>       0.06200584       0.54058730       0.25782874 </v>
   <v>       0.56295511       0.70560794       0.47867175 </v>
   <v>       0.06265412       0.20637077       0.56516528 </v>
   <v>       0.56268145       0.37509093       0.30181296 </v>
   <v>       0.43719042       0.95700632       0.34653686 </v>
   <v>       0.18768551       0.95411578       0.69804884 </v>
   <v>       0.43773374       0.62043912       0.16800543 </v>
   <v>       0.93754804       0.45794912       0.21323635 </v>
   <v>       0.06304078       0.53600736       0.12604601 </v>
   <v>       0.81250608       0.37156615       0.52135648 </v>
   <v>       0.93663212       0.62377533       0.30179943 </v>
   <v>       0.31346526       0.04049221       0.25753668 </v>
   <v>       0.68813678       0.78688562       0.60974424 </v>
   <v>       0.18742946       0.45638561       0.83164747 </v>
   <v>       0.43710604       0.12015553       0.16816321 </v>
   <v>       0.31259145       0.37147803       0.52137920 </v>
   <v>       0.43790001       0.61830468       0.78658085 </v>
   <v>       0.06172013       0.04066954       0.25774675 </v>
   <v>       0.56284249       0.70606403       0.56517445 </v>
   <v>       0.93715153       0.28692103       0.74221441 </v>
   <v>       0.68669343       0.11802761       0.78634500 </v>
   <v>       0.18697291       0.45858052       0.21317376 </v>
   <v>       0.93656946       0.79058609       0.39017345 </v>
   <v>       0.68741149       0.29171806       0.87411875 </v>
   <v>       0.31254278       0.87074433       0.16827535 </v>
   <v>       0.43755694       0.45358403       0.69804608 </v>
   <v>       0.93768543       0.95649786       0.34643724 </v>
   <v>       0.68761515       0.62181986       0.52134758 </v>
   <v>       0.06263429       0.87012961       0.65366099 </v>
   <v>       0.06205410       0.86972732       0.78635255 </v>
   <v>       0.06267433       0.37014794       0.65362815 </v>
   <v>       0.68753931       0.45599908       0.47876843 </v>
   <v>       0.18768725       0.79010338       0.25742184 </v>
   <v>       0.43750114       0.12386254       0.43501546 </v>
   <v>       0.81275669       0.03726894       0.12608023 </v>
   <v>       0.93716617       0.62173271       0.52143509 </v>
   <v>       0.06185801       0.87388668       0.43537624 </v>
   <v>       0.81276176       0.53612464       0.12605029 </v>
   <v>       0.43807979       0.45789447       0.34648110 </v>
   <v>       0.81266003       0.20833380       0.34659027 </v>
   <v>       0.31275868       0.70694009       0.34640927 </v>
   <v>       0.68729829       0.12055974       0.65356710 </v>
   <v>       0.56306383       0.87473528       0.30213212 </v>
   <v>       0.06300383       0.53688972       0.74212817 </v>
   <v>       0.93728814       0.95823574       0.21329464 </v>
   <v>       0.81271250       0.37081110       0.16856466 </v>
   <v>       0.06198330       0.87456312       0.30209056 </v>
   <v>       0.18729753       0.12508116       0.30183584 </v>
   <v>       0.06205985       0.70696766       0.34648832 </v>
   <v>       0.81176468       0.03712889       0.60982514 </v>
   <v>       0.06190465       0.37460791       0.43507168 </v>
   <v>       0.56287487       0.20812441       0.34650458 </v>
   <v>       0.81268818       0.37510429       0.30196513 </v>
   <v>       0.43780549       0.95590539       0.47873805 </v>
   <v>       0.56297995       0.54023991       0.39007414 </v>
   <v>       0.06205001       0.20589590       0.47874106 </v>
   <v>       0.31293188       0.86842571       0.78620806 </v>
   <v>       0.93774769       0.95343598       0.69796389 </v>
   <v>       0.06228646       0.37546201       0.30181249 </v>
   <v>       0.68738271       0.62011220       0.65361205 </v>
   <v>       0.68792114       0.45661791       0.56510294 </v>
   <v>       0.43697094       0.95945354       0.21331926 </v>
   <v>       0.31276041       0.20592836       0.47882076 </v>
   <v>       0.43761428       0.12045299       0.65352418 </v>
   <v>       0.68763387       0.62388184       0.43490589 </v>
   <v>       0.81276415       0.20374186       0.69799994 </v>
   <v>       0.81230794       0.70573219       0.47869895 </v>
   <v>       0.81220456       0.87372846       0.43500571 </v>
   <v>       0.93685673       0.95614131       0.47887313 </v>
   <v>       0.56267465       0.20583288       0.47882610 </v>
   <v>       0.18754668       0.62400242       0.43499089 </v>
   <v>       0.31173880       0.03750477       0.74218723 </v>
   <v>       0.93756284       0.62022870       0.65360471 </v>
   <v>       0.56325974       0.70602918       0.83159804 </v>
   <v>       0.31261593       0.37436391       0.30188088 </v>
   <v>       0.56274394       0.70749649       0.21332620 </v>
   <v>       0.18725002       0.45569868       0.47874217 </v>
   <v>       0.31431128       0.03645288       0.87373700 </v>
   <v>       0.18740868       0.45408789       0.69804686 </v>
   <v>       0.81143615       0.53668121       0.87417833 </v>
   <v>       0.18727958       0.29095552       0.39028022 </v>
   <v>       0.43721784       0.62456504       0.43506200 </v>
   <v>       0.06249085       0.70733206       0.21330237 </v>
   <v>       0.56238418       0.37439928       0.43537447 </v>
   <v>       0.43771714       0.62176703       0.52144144 </v>
   <v>       0.81223946       0.70846705       0.83128317 </v>
   <v>       0.06224954       0.37008493       0.78636472 </v>
   <v>       0.43834951       0.29012245       0.87419631 </v>
   <v>       0.31260136       0.03763043       0.12595799 </v>
   <v>       0.68777320       0.12348147       0.43499483 </v>
   <v>       0.18717655       0.95701951       0.34640475 </v>
   <v>       0.06196173       0.20744244       0.83208454 </v>
   <v>       0.56258318       0.03621480       0.61006067 </v>
   <v>       0.68757894       0.45799305       0.21309114 </v>
   <v>       0.18759753       0.78781762       0.74224205 </v>
   <v>       0.18717486       0.62458637       0.30206003 </v>
   <v>       0.43716025       0.79087837       0.39042422 </v>
   <v>       0.43777782       0.29106777       0.25782044 </v>
   <v>       0.06261094       0.53799625       0.87396928 </v>
   <v>       0.56354726       0.03728513       0.74231299 </v>
   <v>       0.18749049       0.78892040       0.87394843 </v>
   <v>       0.93718105       0.45591391       0.47870536 </v>
   <v>       0.81188475       0.54064627       0.39015800 </v>
   <v>       0.81205092       0.20650481       0.56511742 </v>
   <v>       0.18651290       0.61870670       0.78638700 </v>
   <v>       0.06226744       0.54066878       0.39022712 </v>
   <v>       0.06309994       0.70349367       0.69794154 </v>
   <v>       0.31188729       0.54074671       0.25721269 </v>
   <v>       0.31308737       0.70897672       0.21323181 </v>
   <v>       0.56228067       0.87010403       0.16725968 </v>
   <v>       0.56318792       0.53738158       0.74207621 </v>
   <v>       0.68785354       0.45710572       0.34663506 </v>
   <v>       0.93435602       0.29150773       0.87398968 </v>
   <v>       0.56313368       0.04090297       0.25738003 </v>
   <v>       0.06293216       0.03422885       0.87390294 </v>
   <v>       0.18681876       0.79086037       0.39026694 </v>
   <v>       0.81227720       0.70866036       0.21333193 </v>
   <v>       0.56263065       0.37148720       0.52139855 </v>
   <v>       0.06217371       0.87119538       0.52151144 </v>
   <v>       0.81206333       0.86922758       0.78622196 </v>
   <v>       0.31159221       0.53684641       0.74218580 </v>
  </varray>
 </structure>
</modeling>
