unknown system                          
           1
     9.726678    0.000000    0.000000
     0.000000    8.423550    0.000000
     0.000000    0.000000   45.000000
   Fe   Mn
 274  14
Direct configuration=     1
   0.06251936  0.03035251  0.12421318
   0.31646667  0.87476114  0.65493680
   0.18384455  0.12287690  0.78859741
   0.44148349  0.28757419  0.38909192
   0.31806903  0.71391060  0.83313264
   0.81796446  0.21500761  0.83361890
   0.19171140  0.96343719  0.83355715
   0.56225723  0.20691866  0.56553054
   0.06541916  0.04057483  0.74409878
   0.81101588  0.87115608  0.52134921
   0.19058470  0.29100083  0.74432162
   0.93360927  0.45232602  0.34492896
   0.94145994  0.28720868  0.38881403
   0.81273474  0.04067152  0.87575647
   0.18369862  0.78811313  0.61087931
   0.56646085  0.03768684  0.38904296
   0.94265486  0.96478628  0.83387818
   0.31332961  0.54074390  0.87605768
   0.69019203  0.29154883  0.74420467
   0.18225788  0.61358829  0.16676641
   0.81220251  0.20577529  0.47864547
   0.80884918  0.53815852  0.61100290
   0.31172275  0.87054196  0.43448193
   0.80928952  0.03793880  0.25593552
   0.68268067  0.95180924  0.34471443
   0.93124094  0.11429328  0.16692898
   0.06201191  0.87122825  0.52125687
   0.55824636  0.53802430  0.25558407
   0.68442962  0.79781165  0.87588407
   0.55597008  0.36524940  0.16657422
   0.43969113  0.79206361  0.74443180
   0.81138945  0.70654589  0.56552146
   0.55935348  0.87359911  0.78857400
   0.68679463  0.12156392  0.52132493
   0.81644296  0.37486886  0.65494670
   0.94206351  0.46430611  0.83375515
   0.06063637  0.20789865  0.69972597
   0.43538138  0.95779662  0.69971447
   0.31693966  0.21292482  0.83346089
   0.44145950  0.62466943  0.65494035
   0.30891554  0.53801813  0.61098159
   0.93652461  0.45649943  0.56558736
   0.69017569  0.79146150  0.74421049
   0.93473837  0.78830293  0.12449644
   0.69146411  0.78763167  0.38905839
   0.94032485  0.79085793  0.74448583
   0.05876969  0.20261966  0.34494818
   0.68363561  0.45213972  0.34490344
   0.43425972  0.12272216  0.78892329
   0.06579057  0.20382590  0.21123903
   0.05541686  0.36519591  0.16673566
   0.93357970  0.78739589  0.25574043
   0.56071058  0.20739518  0.69976010
   0.68516600  0.95718680  0.69974557
   0.80886759  0.87383649  0.78839167
   0.43673656  0.95707423  0.56541136
   0.80901906  0.37464861  0.78846770
   0.68375769  0.28754283  0.25588496
   0.18723502  0.45715670  0.56552406
   0.05646673  0.86513645  0.16681675
   0.18394540  0.28811112  0.61097883
   0.06247682  0.20710674  0.56545691
   0.31070096  0.20761397  0.69980541
   0.56250390  0.54080934  0.87596656
   0.06211057  0.70601443  0.56566049
   0.68343774  0.62263200  0.78850067
   0.31607889  0.53834569  0.38891160
   0.18683664  0.62141087  0.52137023
   0.56285647  0.87086449  0.43439428
   0.43672026  0.45662116  0.56554386
   0.43982906  0.29146532  0.74423681
   0.82100858  0.87402047  0.30024730
   0.80861630  0.70251825  0.34490110
   0.44223478  0.46289938  0.83333784
   0.68743466  0.95581037  0.47870030
   0.68516838  0.45783855  0.69969301
   0.56205121  0.87208917  0.52145798
   0.56617403  0.37462948  0.65495589
   0.81626794  0.87464690  0.65498351
   0.81191643  0.37181076  0.43420471
   0.80869174  0.53710818  0.25587217
   0.69207281  0.46210481  0.83329160
   0.18635165  0.78831290  0.12418934
   0.69126079  0.28740386  0.38894472
   0.31617231  0.37419657  0.65494536
   0.30910064  0.20258644  0.34477804
   0.81570658  0.54036150  0.74416072
   0.69158903  0.96230893  0.83348492
   0.56587441  0.87420322  0.65495166
   0.31117508  0.70675063  0.56548386
   0.31204149  0.53033670  0.12411659
   0.69044675  0.95487417  0.21177960
   0.31131303  0.20637981  0.56547113
   0.18753363  0.95575452  0.47870196
   0.68730859  0.95683368  0.56557491
   0.43385538  0.78817598  0.61095836
   0.68296143  0.61188541  0.16640459
   0.31903975  0.87415823  0.30024039
   0.31230644  0.70580293  0.47867461
   0.93363108  0.28771451  0.61087479
   0.44606672  0.62340795  0.30011083
   0.80723554  0.86311010  0.16687477
   0.56686673  0.20311908  0.21145429
   0.93272923  0.61276266  0.16671680
   0.43746066  0.95572117  0.47868112
   0.55904748  0.37340086  0.78869840
   0.06145610  0.37243512  0.52141610
   0.30704606  0.36372715  0.16666647
   0.69562222  0.12324449  0.30027036
   0.44269619  0.96322796  0.83332434
   0.18494827  0.28683457  0.12421888
   0.18390485  0.28777589  0.25591864
   0.31255909  0.37034834  0.43446093
   0.56274208  0.03209887  0.12434649
   0.43391680  0.28824727  0.61093666
   0.18358208  0.45250902  0.34492951
   0.43408011  0.28682956  0.12428261
   0.68309169  0.78824788  0.25583249
   0.43672270  0.12153902  0.52138704
   0.18834693  0.29677937  0.87614336
   0.19125638  0.12503177  0.65512803
   0.94126529  0.12468251  0.65493005
   0.81636202  0.53766385  0.38892441
   0.06643252  0.03814630  0.38916720
   0.18276785  0.11197841  0.16658129
   0.05875363  0.53792538  0.61093750
   0.93397837  0.28779007  0.25586719
   0.55870360  0.53784590  0.61093191
   0.93694807  0.95728556  0.56522496
   0.69501123  0.62418901  0.30012044
   0.93748242  0.62040210  0.43444437
   0.93327284  0.62428331  0.78833537
   0.56069543  0.70743369  0.69969378
   0.06603798  0.71676976  0.83394761
   0.94535567  0.12285931  0.30008356
   0.93389651  0.78771249  0.61089903
   0.43261433  0.78739470  0.25560460
   0.30921379  0.37389272  0.78869799
   0.44041026  0.45376882  0.21132985
   0.18653326  0.12163372  0.52136374
   0.81053711  0.70803685  0.69967477
   0.05880247  0.03785081  0.61088730
   0.56607142  0.21343568  0.83324683
   0.31158057  0.87202141  0.52141062
   0.68625144  0.28674689  0.12402357
   0.19047333  0.95487907  0.21173172
   0.68369359  0.28777845  0.61093637
   0.30863004  0.03789228  0.61092179
   0.93425278  0.12442891  0.78857067
   0.43650222  0.79752270  0.87617246
   0.81543263  0.04088903  0.74419984
   0.93528781  0.45807752  0.69967428
   0.19127488  0.62486762  0.65501465
   0.31061051  0.70706392  0.69977479
   0.93410664  0.28689043  0.12420339
   0.43723632  0.45571892  0.47854131
   0.06201724  0.70517996  0.47844490
   0.93699375  0.11951817  0.43469325
   0.44441239  0.12322972  0.30029309
   0.18668808  0.11994779  0.43422159
   0.56254262  0.04063989  0.87600556
   0.18723514  0.95709824  0.56555119
   0.68460380  0.78778007  0.12455989
   0.55905073  0.70257511  0.34500279
   0.31628570  0.03717457  0.38881800
   0.68236482  0.11364082  0.16675899
   0.81594943  0.20333524  0.21133394
   0.05905339  0.53705904  0.25577023
   0.56249917  0.70592776  0.47869696
   0.43491501  0.78703570  0.12431610
   0.56948498  0.37271638  0.30018781
   0.43360910  0.95258477  0.34493256
   0.18515472  0.95797456  0.69976102
   0.43175625  0.61234248  0.16648211
   0.94015957  0.45452299  0.21174443
   0.06234390  0.53043424  0.12420068
   0.81194938  0.37230297  0.52140215
   0.94471544  0.62352947  0.29989215
   0.30863936  0.03734234  0.25581596
   0.68371401  0.78789559  0.61090090
   0.19171741  0.46349155  0.83342198
   0.43264971  0.11206181  0.16663626
   0.31171138  0.37190053  0.52139529
   0.43321632  0.62264900  0.78891268
   0.05877773  0.03731718  0.25575745
   0.56229222  0.70707984  0.56551245
   0.93950965  0.29093953  0.74449242
   0.68228833  0.12273209  0.78854793
   0.19006239  0.45383260  0.21135334
   0.94105043  0.78824450  0.38891229
   0.68561176  0.29919940  0.87599898
   0.55638473  0.86263969  0.16653447
   0.43564461  0.45779243  0.69972630
   0.93414152  0.95148447  0.34484550
   0.68647320  0.62144073  0.52126740
   0.06626445  0.87477905  0.65492328
   0.05908769  0.87381071  0.78846091
   0.06629356  0.37479751  0.65494185
   0.68671305  0.45560591  0.47867715
   0.18333535  0.78734924  0.25560759
   0.43686260  0.12056869  0.43441636
   0.81366622  0.03132448  0.12417897
   0.93676432  0.62186010  0.52143019
   0.44145440  0.12464094  0.65494170
   0.81303808  0.53021988  0.12416034
   0.43367457  0.45236631  0.34496023
   0.80880118  0.20246967  0.34488905
   0.30898300  0.70137843  0.34482555
   0.69125778  0.12500000  0.65498842
   0.56976162  0.87394197  0.30021461
   0.06544938  0.54078026  0.74433399
   0.94059744  0.95403772  0.21137841
   0.81640297  0.70361355  0.21151480
   0.07056967  0.87332106  0.30016664
   0.19519828  0.12338819  0.30015653
   0.05867139  0.70203050  0.34486627
   0.80891082  0.03828880  0.61097475
   0.06256557  0.37199026  0.43428899
   0.55872505  0.20285615  0.34475106
   0.82013103  0.37397815  0.30013341
   0.55957089  0.03734214  0.25548266
   0.56643444  0.53772134  0.38904368
   0.06273809  0.20585273  0.47861507
   0.31037227  0.87280066  0.78840875
   0.93532993  0.95815948  0.69968729
   0.06924685  0.37384565  0.30003681
   0.69119192  0.62474740  0.65517979
   0.68684459  0.45696759  0.56541169
   0.44172932  0.95495161  0.21198949
   0.31239681  0.20560066  0.47868894
   0.81222546  0.54029464  0.87584213
   0.68778016  0.62052157  0.43443884
   0.81085539  0.20772349  0.69982207
   0.81276614  0.70535994  0.47855754
   0.81069990  0.87086628  0.43421779
   0.31521469  0.70424990  0.21168732
   0.56234459  0.20569627  0.47866489
   0.18762668  0.61948711  0.43443637
   0.31507181  0.04154757  0.74401356
   0.94130263  0.62492797  0.65493458
   0.56624908  0.71347921  0.83330182
   0.32058222  0.37283118  0.30006775
   0.31510243  0.54151246  0.74423979
   0.18747893  0.45570366  0.47868736
   0.31428150  0.04121396  0.87588038
   0.18519636  0.45821525  0.69967103
   0.56166644  0.37161369  0.52142215
   0.19104681  0.28760606  0.38885121
   0.31565748  0.20365433  0.21133457
   0.06678994  0.70323497  0.21128283
   0.56180948  0.37089476  0.43434969
   0.43675295  0.62205035  0.52139019
   0.81702501  0.71565630  0.83330871
   0.05913500  0.37427940  0.78844718
   0.43641317  0.29833903  0.87631906
   0.31178890  0.03048760  0.12422002
   0.68805152  0.12023757  0.43427619
   0.18378006  0.95194023  0.34491314
   0.06695709  0.21511290  0.83396278
   0.55915564  0.03869607  0.61106896
   0.68967998  0.45450436  0.21186981
   0.18964794  0.79158074  0.74435572
   0.19549607  0.62299545  0.30025302
   0.44143434  0.78778603  0.38907541
   0.43307633  0.28783969  0.25568787
   0.06330220  0.54074488  0.87585021
   0.56547019  0.04148879  0.74419124
   0.18780572  0.79725384  0.87603191
   0.93728299  0.45576687  0.47862417
   0.56509196  0.54130292  0.74408292
   0.81130668  0.20726231  0.56552756
   0.18459326  0.62251754  0.78848282
   0.06748477  0.53871281  0.38901791
   0.06067295  0.70769351  0.69970307
   0.30818903  0.53701063  0.25580061
   0.93737880  0.95540374  0.47857435
   0.30558659  0.86475826  0.16610387
   0.43674425  0.62076513  0.43440805
   0.81814293  0.03902399  0.38909074
   0.93489398  0.29806184  0.87553515
   0.93704709  0.79558669  0.87556341
   0.06546358  0.03881433  0.87577282
   0.56206352  0.52929325  0.12461928
   0.80511289  0.36554466  0.16599223
   0.06337872  0.87100847  0.43427971
   0.93655587  0.12178883  0.52147029
   0.19288849  0.78801058  0.38895245
   0.56595517  0.70393472  0.21208006
Direct configuration=     2
   0.06237427  0.03080853  0.12426825
   0.31605504  0.87463901  0.65496013
   0.18421453  0.12318803  0.78854864
   0.44131577  0.28765745  0.38915529
   0.31754822  0.71355065  0.83320224
   0.81763305  0.21464040  0.83363343
   0.19130434  0.96328120  0.83361778
   0.56217058  0.20677533  0.56556603
   0.06513930  0.04070269  0.74409396
   0.81106518  0.87133158  0.52143336
   0.19025241  0.29107486  0.74428943
   0.93411112  0.45252664  0.34493231
   0.94112020  0.28733603  0.38888874
   0.81265100  0.04148026  0.87570525
   0.18401194  0.78826739  0.61081036
   0.56615182  0.03778690  0.38910731
   0.94244073  0.96444583  0.83387331
   0.31333012  0.54142672  0.87596521
   0.68995907  0.29150333  0.74419609
   0.18269159  0.61400584  0.16672350
   0.81206540  0.20578452  0.47857458
   0.80912377  0.53828888  0.61092630
   0.31193688  0.87068491  0.43446278
   0.80967630  0.03781399  0.25593484
   0.68337288  0.95213919  0.34474453
   0.93160236  0.11457779  0.16686782
   0.06211485  0.87138000  0.52133248
   0.55874268  0.53784477  0.25562588
   0.68479950  0.79721811  0.87583837
   0.55638223  0.36538274  0.16650917
   0.43953937  0.79201718  0.74438399
   0.81145042  0.70645344  0.56557058
   0.55962683  0.87365985  0.78852070
   0.68678857  0.12164984  0.52140351
   0.81602527  0.37472481  0.65496871
   0.94182274  0.46402497  0.83376005
   0.06079684  0.20787655  0.69973932
   0.43558358  0.95767211  0.69971659
   0.31655838  0.21276886  0.83352988
   0.44102075  0.62459266  0.65495314
   0.30923677  0.53818737  0.61090370
   0.93657368  0.45639818  0.56562523
   0.68992705  0.79146487  0.74420084
   0.93468602  0.78754996  0.12455629
   0.69122747  0.78761137  0.38909020
   0.94005910  0.79090782  0.74442201
   0.05930787  0.20283504  0.34493072
   0.68420513  0.45239047  0.34489354
   0.43448747  0.12305870  0.78883527
   0.06545151  0.20372988  0.21129459
   0.05572923  0.36528475  0.16664373
   0.93399077  0.78742779  0.25575558
   0.56084508  0.20739646  0.69976605
   0.68541565  0.95726395  0.69975995
   0.80915692  0.87395680  0.78836706
   0.43675362  0.95693073  0.56547815
   0.80931740  0.37462470  0.78843172
   0.68417195  0.28747689  0.25589527
   0.18715385  0.45695027  0.56556679
   0.05682453  0.86531785  0.16673894
   0.18426327  0.28826733  0.61091529
   0.06237213  0.20700526  0.56551508
   0.31088597  0.20760345  0.69980547
   0.56270228  0.54158733  0.87587703
   0.06203466  0.70600333  0.56568693
   0.68379370  0.62300427  0.78845716
   0.31588358  0.53816075  0.38899175
   0.18686360  0.62166141  0.52145142
   0.56282093  0.87095785  0.43437106
   0.43674404  0.45655383  0.56559176
   0.43962880  0.29156873  0.74421728
   0.82020900  0.87379607  0.30024450
   0.80911482  0.70264526  0.34490680
   0.44191662  0.46265187  0.83343473
   0.68735890  0.95576850  0.47861340
   0.68541231  0.45777362  0.69971386
   0.56199942  0.87214741  0.52151628
   0.56582794  0.37450677  0.65496312
   0.81588317  0.87455528  0.65499038
   0.81188888  0.37162309  0.43419329
   0.80907960  0.53707052  0.25589914
   0.69182721  0.46210209  0.83337453
   0.18620179  0.78753275  0.12424253
   0.69097486  0.28746448  0.38900698
   0.31577623  0.37416722  0.65495314
   0.30952980  0.20273361  0.34481399
   0.81536656  0.54053243  0.74413647
   0.69147386  0.96224480  0.83354220
   0.56556005  0.87420141  0.65496568
   0.31129498  0.70667927  0.56552332
   0.31176104  0.53090196  0.12417240
   0.69023789  0.95465593  0.21176579
   0.31140959  0.20636950  0.56551501
   0.18758645  0.95579258  0.47862753
   0.68723943  0.95672325  0.56563720
   0.43416033  0.78827776  0.61087500
   0.68291318  0.61233967  0.16640514
   0.31860579  0.87379316  0.30023427
   0.31223242  0.70567953  0.47859149
   0.93397869  0.28787275  0.61080117
   0.44526125  0.62320852  0.30013278
   0.80741113  0.86349093  0.16680818
   0.56642373  0.20306716  0.21151208
   0.93295570  0.61308782  0.16668935
   0.43743373  0.95553248  0.47860289
   0.55935303  0.37348472  0.78863313
   0.06152352  0.37248283  0.52146867
   0.30722497  0.36399897  0.16657092
   0.69494231  0.12301383  0.30027566
   0.44238780  0.96288500  0.83340976
   0.18490458  0.28621025  0.12430634
   0.18430408  0.28758590  0.25591875
   0.31261508  0.37045131  0.43442107
   0.56243306  0.03229237  0.12437877
   0.43418043  0.28836164  0.61085838
   0.18409726  0.45267544  0.34491506
   0.43404726  0.28614034  0.12435213
   0.68361148  0.78810691  0.25585511
   0.43674459  0.12178195  0.52144643
   0.18848167  0.29628789  0.87608529
   0.19087363  0.12486467  0.65511787
   0.94090004  0.12457150  0.65494955
   0.81605992  0.53765425  0.38899005
   0.06612960  0.03817432  0.38920875
   0.18291226  0.11242258  0.16656222
   0.05907446  0.53808206  0.61086455
   0.93432830  0.28763605  0.25586175
   0.55901916  0.53806258  0.61085426
   0.93692572  0.95702393  0.56526875
   0.69440425  0.62388433  0.30015066
   0.93749026  0.62062536  0.43438601
   0.93365459  0.62451814  0.78832692
   0.56081470  0.70739726  0.69970815
   0.06583953  0.71620647  0.83391398
   0.94470914  0.12279753  0.30009944
   0.93416346  0.78788055  0.61084426
   0.43324078  0.78736494  0.25567490
   0.30949488  0.37386555  0.78862589
   0.44010466  0.45375677  0.21138736
   0.18658881  0.12172769  0.52143166
   0.81075198  0.70794437  0.69969659
   0.05908287  0.03807073  0.61081591
   0.56588474  0.21319420  0.83329926
   0.31163254  0.87201005  0.52149361
   0.68616051  0.28608525  0.12408961
   0.19018703  0.95479087  0.21173991
   0.68401353  0.28802978  0.61087154
   0.30894909  0.03807964  0.61085020
   0.93452793  0.12460912  0.78853842
   0.43666485  0.79684535  0.87607287
   0.81515142  0.04100906  0.74416724
   0.93554303  0.45796695  0.69968985
   0.19090301  0.62475468  0.65502675
   0.31080317  0.70713625  0.69977938
   0.93418797  0.28625364  0.12425742
   0.43727528  0.45552290  0.47848690
   0.06215022  0.70496147  0.47842005
   0.93705789  0.11991342  0.43465243
   0.44396145  0.12298624  0.30026657
   0.18678484  0.12014559  0.43419869
   0.56282542  0.04139829  0.87593287
   0.18711728  0.95692977  0.56561099
   0.68469658  0.78715844  0.12459261
   0.55955529  0.70274922  0.34499222
   0.31608664  0.03731742  0.38891001
   0.68273911  0.11393301  0.16673509
   0.81569179  0.20327052  0.21138419
   0.05935827  0.53708083  0.25576383
   0.56250781  0.70575591  0.47861136
   0.43492142  0.78646464  0.12434365
   0.56893716  0.37259481  0.30019645
   0.43413021  0.95273540  0.34492319
   0.18540189  0.95787021  0.69977045
   0.43207655  0.61283421  0.16645949
   0.93996600  0.45431535  0.21176085
   0.06211800  0.53082288  0.12425303
   0.81189153  0.37236451  0.52145623
   0.94420768  0.62343427  0.29993614
   0.30914549  0.03731494  0.25583194
   0.68406094  0.78807293  0.61083125
   0.19145128  0.46336477  0.83351280
   0.43294419  0.11240902  0.16662839
   0.31168479  0.37198814  0.52146054
   0.43365426  0.62295849  0.78883282
   0.05915902  0.03727519  0.25576690
   0.56219033  0.70692346  0.56555595
   0.93939583  0.29095472  0.74442539
   0.68286993  0.12310743  0.78849282
   0.18980084  0.45372819  0.21140721
   0.94075900  0.78810861  0.38898294
   0.68579771  0.29837814  0.87594413
   0.55653444  0.86307388  0.16651537
   0.43579124  0.45769013  0.69974356
   0.93461241  0.95182026  0.34485323
   0.68651509  0.62163995  0.52135669
   0.06586053  0.87462107  0.65494275
   0.05947080  0.87400510  0.78844874
   0.06591703  0.37466293  0.65496534
   0.68676336  0.45539735  0.47856597
   0.18381088  0.78735684  0.25565541
   0.43697835  0.12066996  0.43439115
   0.81332297  0.03173426  0.12424558
   0.93675362  0.62202017  0.52148143
   0.44103547  0.12452745  0.65496332
   0.81294010  0.53079525  0.12416167
   0.43425113  0.45258398  0.34495427
   0.80931299  0.20263072  0.34489264
   0.30953532  0.70174432  0.34483924
   0.69088613  0.12483675  0.65500180
   0.56916517  0.87361557  0.30020686
   0.06513637  0.54079510  0.74427920
   0.94033776  0.95401420  0.21143372
   0.81609336  0.70355767  0.21154904
   0.06982701  0.87311301  0.30016592
   0.19451287  0.12325621  0.30015724
   0.05917415  0.70228495  0.34486297
   0.80925681  0.03836415  0.61089593
   0.06257744  0.37174617  0.43426364
   0.55928949  0.20295738  0.34478466
   0.81946413  0.37373649  0.30014305
   0.55993419  0.03741041  0.25555654
   0.56609622  0.53761437  0.38909769
   0.06276632  0.20572081  0.47854463
   0.31051908  0.87297928  0.78836217
   0.93554731  0.95809329  0.69969636
   0.06881699  0.37361498  0.30008079
   0.69081787  0.62464362  0.65515718
   0.68680070  0.45684910  0.56546755
   0.44121494  0.95481502  0.21196142
   0.31230377  0.20549393  0.47860883
   0.81229361  0.54110277  0.87577334
   0.68780269  0.62054760  0.43439581
   0.81100610  0.20768883  0.69982257
   0.81268677  0.70524550  0.47849990
   0.81081657  0.87088115  0.43420893
   0.31492206  0.70397185  0.21167397
   0.56240774  0.20556707  0.47858458
   0.18759624  0.61967415  0.43441028
   0.31482013  0.04157762  0.74403335
   0.94092889  0.62485256  0.65494386
   0.56603464  0.71316628  0.83334326
   0.31988171  0.37277165  0.30008974
   0.31487178  0.54146534  0.74422548
   0.18755886  0.45549669  0.47860163
   0.31439380  0.04208287  0.87582265
   0.18542560  0.45809772  0.69969841
   0.56169530  0.37178548  0.52148280
   0.19075126  0.28767834  0.38894426
   0.31534690  0.20353698  0.21137893
   0.06633977  0.70322357  0.21133221
   0.56191504  0.37089991  0.43433271
   0.43675269  0.62213335  0.52144091
   0.81673779  0.71519904  0.83333455
   0.05949883  0.37442232  0.78843262
   0.43650661  0.29765506  0.87621940
   0.31170477  0.03096453  0.12421377
   0.68802730  0.12047854  0.43425781
   0.18426210  0.95217068  0.34490493
   0.06659145  0.21464915  0.83392720
   0.55942115  0.03871056  0.61097238
   0.68950657  0.45430190  0.21185481
   0.18948441  0.79154942  0.74430951
   0.19479647  0.62284023  0.30024020
   0.44121503  0.78771848  0.38912786
   0.43365164  0.28769303  0.25570347
   0.06360145  0.54142578  0.87580804
   0.56522574  0.04150597  0.74417866
   0.18787635  0.79663685  0.87598984
   0.93726719  0.45551090  0.47855035
   0.56488668  0.54136042  0.74407597
   0.81132295  0.20715322  0.56558554
   0.18486718  0.62292814  0.78845648
   0.06712621  0.53863902  0.38908568
   0.06084272  0.70769089  0.69971301
   0.30870033  0.53702564  0.25579287
   0.93739873  0.95527833  0.47855364
   0.30596568  0.86488382  0.16608688
   0.43679156  0.62075580  0.43436811
   0.81775157  0.03884080  0.38912712
   0.93509989  0.29753436  0.87556419
   0.93702322  0.79500729  0.87557759
   0.06543844  0.03968944  0.87571720
   0.56195061  0.52992584  0.12462595
   0.80549547  0.36553809  0.16596970
   0.06325258  0.87097421  0.43423193
   0.93662825  0.12194423  0.52149371
   0.19245784  0.78781872  0.38899523
   0.56564824  0.70383212  0.21204501
Direct configuration=     3
   0.06193900  0.03217660  0.12443346
   0.31482015  0.87427264  0.65503010
   0.18532447  0.12412143  0.78840231
   0.44081260  0.28790724  0.38934541
   0.31598579  0.71247078  0.83341105
   0.81663884  0.21353878  0.83367704
   0.19008316  0.96281325  0.83379969
   0.56191063  0.20634535  0.56567252
   0.06429971  0.04108628  0.74407952
   0.81121309  0.87185811  0.52168580
   0.18925556  0.29129695  0.74419286
   0.93561669  0.45312849  0.34494233
   0.94010100  0.28771807  0.38911285
   0.81239978  0.04390646  0.87555159
   0.18495190  0.78873016  0.61060348
   0.56522474  0.03808708  0.38930037
   0.94179831  0.96342448  0.83385868
   0.31333166  0.54347519  0.87568781
   0.68926020  0.29136681  0.74417035
   0.18399271  0.61525848  0.16659477
   0.81165410  0.20581219  0.47836193
   0.80994753  0.53867996  0.61069648
   0.31257924  0.87111376  0.43440534
   0.81083665  0.03743956  0.25593278
   0.68544951  0.95312906  0.34483483
   0.93268662  0.11543130  0.16668435
   0.06242365  0.87183523  0.52155930
   0.56023164  0.53730618  0.25575134
   0.68590912  0.79543750  0.87570129
   0.55761871  0.36578275  0.16631404
   0.43908411  0.79187788  0.74424058
   0.81163332  0.70617611  0.56571794
   0.56044686  0.87384204  0.78836078
   0.68677042  0.12190762  0.52163926
   0.81477218  0.37429269  0.65503475
   0.94110041  0.46318153  0.83377478
   0.06127822  0.20781027  0.69977934
   0.43619017  0.95729858  0.69972294
   0.31541456  0.21230100  0.83373684
   0.43970450  0.62436236  0.65499148
   0.31020048  0.53869507  0.61067003
   0.93672091  0.45609444  0.56573883
   0.68918111  0.79147501  0.74417190
   0.93452897  0.78529102  0.12473585
   0.69051753  0.78755049  0.38918564
   0.93926184  0.79105749  0.74423057
   0.06092239  0.20348119  0.34487834
   0.68591369  0.45314272  0.34486382
   0.43517072  0.12406834  0.78857121
   0.06443434  0.20344182  0.21146127
   0.05666635  0.36555126  0.16636795
   0.93522399  0.78752349  0.25580102
   0.56124858  0.20740031  0.69978389
   0.68616457  0.95749541  0.69980311
   0.81002490  0.87431775  0.78829322
   0.43680481  0.95650024  0.56567852
   0.81021243  0.37455297  0.78832378
   0.68541473  0.28727907  0.25592621
   0.18691033  0.45633099  0.56569495
   0.05789792  0.86586205  0.16650549
   0.18521688  0.28873596  0.61072465
   0.06205805  0.20670080  0.56568958
   0.31144100  0.20757189  0.69980566
   0.56329741  0.54392131  0.87560843
   0.06180692  0.70597003  0.56576625
   0.68486157  0.62412111  0.78832664
   0.31529765  0.53760592  0.38923219
   0.18694448  0.62241303  0.52169498
   0.56271430  0.87123793  0.43430140
   0.43681541  0.45635185  0.56573547
   0.43902799  0.29187895  0.74415869
   0.81781024  0.87312287  0.30023612
   0.81061036  0.70302631  0.34492391
   0.44096212  0.46190933  0.83372540
   0.68713163  0.95564287  0.47835271
   0.68614409  0.45757885  0.69977642
   0.56184405  0.87232215  0.52169119
   0.56478967  0.37413864  0.65498482
   0.81472884  0.87428044  0.65501098
   0.81180623  0.37106005  0.43415902
   0.81024320  0.53695754  0.25598007
   0.69109041  0.46209394  0.83362334
   0.18575220  0.78519229  0.12440210
   0.69011706  0.28764634  0.38919375
   0.31458797  0.37407915  0.65497646
   0.31081728  0.20317513  0.34492184
   0.81434648  0.54104521  0.74406371
   0.69112832  0.96205243  0.83371407
   0.56461695  0.87419595  0.65500776
   0.31165467  0.70646520  0.56564169
   0.31091972  0.53259774  0.12433983
   0.68961132  0.95400120  0.21172436
   0.31169927  0.20633857  0.56564664
   0.18774491  0.95590674  0.47840425
   0.68703196  0.95639196  0.56582410
   0.43507520  0.78858311  0.61062490
   0.68276842  0.61370246  0.16640681
   0.31730390  0.87269794  0.30021590
   0.31201036  0.70530933  0.47834212
   0.93502153  0.28834747  0.61058029
   0.44284483  0.62261022  0.30019863
   0.80793789  0.86463341  0.16660839
   0.56509472  0.20291139  0.21168544
   0.93363509  0.61406330  0.16660698
   0.43735295  0.95496644  0.47836822
   0.56026970  0.37373629  0.78843730
   0.06172577  0.37262598  0.52162639
   0.30776169  0.36481441  0.16628427
   0.69290260  0.12232186  0.30029155
   0.44146263  0.96185615  0.83366604
   0.18477351  0.28433730  0.12456872
   0.18550179  0.28701594  0.25591909
   0.31278304  0.37076022  0.43430150
   0.56150598  0.03287288  0.12447562
   0.43497131  0.28870475  0.61062354
   0.18564281  0.45317469  0.34487172
   0.43394872  0.28407268  0.12456066
   0.68517087  0.78768400  0.25592296
   0.43681025  0.12251074  0.52162461
   0.18888592  0.29481347  0.87591110
   0.18972538  0.12436337  0.65508737
   0.93980426  0.12423847  0.65500803
   0.81515363  0.53762544  0.38918696
   0.06522083  0.03825840  0.38933339
   0.18334550  0.11375508  0.16650499
   0.06003695  0.53855208  0.61064570
   0.93537811  0.28717398  0.25584543
   0.55996586  0.53871263  0.61062129
   0.93685868  0.95623904  0.56540011
   0.69258330  0.62297028  0.30024133
   0.93751380  0.62129513  0.43421094
   0.93479983  0.62522265  0.78830159
   0.56117252  0.70728796  0.69975125
   0.06524419  0.71451660  0.83381310
   0.94276953  0.12261220  0.30014709
   0.93496429  0.78838473  0.61067997
   0.43512012  0.78727568  0.25588577
   0.31033812  0.37378404  0.78840958
   0.43918783  0.45372061  0.21155990
   0.18675545  0.12200960  0.52163542
   0.81139656  0.70766694  0.69976206
   0.05992408  0.03873048  0.61060175
   0.56532470  0.21246977  0.83345654
   0.31178844  0.87197594  0.52174258
   0.68588772  0.28410032  0.12428775
   0.18932813  0.95452627  0.21176447
   0.68497337  0.28878377  0.61067707
   0.30990624  0.03864173  0.61063544
   0.93535338  0.12514974  0.78844168
   0.43715274  0.79481330  0.87577410
   0.81430778  0.04136914  0.74406942
   0.93630871  0.45763524  0.69973656
   0.18978739  0.62441583  0.65506304
   0.31138112  0.70735326  0.69979315
   0.93443195  0.28434329  0.12441951
   0.43739214  0.45493485  0.47832367
   0.06254918  0.70430600  0.47834548
   0.93725030  0.12109916  0.43452996
   0.44260862  0.12225580  0.30018699
   0.18707514  0.12073900  0.43412999
   0.56367382  0.04367350  0.87571481
   0.18676371  0.95642438  0.56579037
   0.68497492  0.78529355  0.12469076
   0.56106896  0.70327155  0.34496052
   0.31548948  0.03774595  0.38918605
   0.68386197  0.11480959  0.16666336
   0.81491888  0.20307635  0.21153494
   0.06027292  0.53714618  0.25574463
   0.56253370  0.70524039  0.47835458
   0.43494064  0.78475147  0.12442631
   0.56729367  0.37223010  0.30022235
   0.43569354  0.95318729  0.34489508
   0.18614342  0.95755715  0.69979873
   0.43303744  0.61430942  0.16639165
   0.93938529  0.45369243  0.21181011
   0.06144032  0.53198880  0.12441006
   0.81171795  0.37254913  0.52161847
   0.94268443  0.62314867  0.30006810
   0.31066388  0.03723273  0.25587988
   0.68510172  0.78860495  0.61062228
   0.19065288  0.46298444  0.83378527
   0.43382762  0.11345066  0.16660478
   0.31160500  0.37225099  0.52165627
   0.43496809  0.62388695  0.78859324
   0.06030286  0.03714920  0.25579523
   0.56188466  0.70645431  0.56568644
   0.93905435  0.29100030  0.74422431
   0.68461473  0.12423343  0.78832750
   0.18901620  0.45341498  0.21156882
   0.93988471  0.78770092  0.38919490
   0.68635558  0.29591435  0.87577959
   0.55698356  0.86437647  0.16645806
   0.43623113  0.45738322  0.69979534
   0.93602506  0.95282764  0.34487641
   0.68664076  0.62223763  0.52162453
   0.06464875  0.87414713  0.65500115
   0.06062013  0.87458828  0.78841221
   0.06478741  0.37425920  0.65503584
   0.68691430  0.45477166  0.47823243
   0.18523747  0.78737963  0.25579888
   0.43732557  0.12097377  0.43431551
   0.81229322  0.03296361  0.12444542
   0.93672152  0.62250037  0.52163515
   0.43977866  0.12418698  0.65502819
   0.81264617  0.53252137  0.12416566
   0.43598082  0.45323700  0.34493640