 288 288   0   0
  0.1280206E+02  0.9726678E-09  0.8423550E-09  0.4500000E-08  0.2500000E-15
  1.000000000000000E-004
  CAR 
 unknown system                          
      6.80425703     -6.09986874  301      4.28793031      1.00000000
     -6.100  0.0000E+00  0.0000E+00
     -6.057  0.0000E+00  0.0000E+00
     -6.014  0.0000E+00  0.0000E+00
     -5.971  0.0000E+00  0.0000E+00
     -5.928  0.0000E+00  0.0000E+00
     -5.885  0.0000E+00  0.0000E+00
     -5.842  0.0000E+00  0.0000E+00
     -5.799  0.0000E+00  0.0000E+00
     -5.756  0.0000E+00  0.0000E+00
     -5.713  0.0000E+00  0.0000E+00
     -5.670  0.0000E+00  0.0000E+00
     -5.627  0.0000E+00  0.0000E+00
     -5.584  0.0000E+00  0.0000E+00
     -5.541  0.0000E+00  0.0000E+00
     -5.498  0.0000E+00  0.0000E+00
     -5.455  0.2258E-15  0.9714E-17
     -5.412  0.5453E-14  0.2442E-15
     -5.369  0.1173E-12  0.5290E-14
     -5.326  0.2141E-11  0.9740E-13
     -5.283  0.3322E-10  0.1526E-11
     -5.240  0.4380E-09  0.2037E-10
     -5.197  0.4910E-08  0.2316E-09
     -5.154  0.4681E-07  0.2245E-08
     -5.111  0.3797E-06  0.1858E-07
     -5.068  0.2623E-05  0.1314E-06
     -5.025  0.1544E-04  0.7954E-06
     -4.982  0.7756E-04  0.4132E-05
     -4.938  0.3334E-03  0.1847E-04
     -4.895  0.1231E-02  0.7141E-04
     -4.852  0.3920E-02  0.2400E-03
     -4.809  0.1085E-01  0.7069E-03
     -4.766  0.2637E-01  0.1841E-02
     -4.723  0.5691E-01  0.4289E-02
     -4.680  0.1105E+00  0.9041E-02
     -4.637  0.1954E+00  0.1744E-01
     -4.594  0.3179E+00  0.3112E-01
     -4.551  0.4798E+00  0.5176E-01
     -4.508  0.6755E+00  0.8082E-01
     -4.465  0.8917E+00  0.1192E+00
     -4.422  0.1109E+01  0.1669E+00
     -4.379  0.1307E+01  0.2231E+00
     -4.336  0.1467E+01  0.2862E+00
     -4.293  0.1583E+01  0.3543E+00
     -4.250  0.1663E+01  0.4258E+00
     -4.207  0.1727E+01  0.5001E+00
     -4.164  0.1806E+01  0.5778E+00
     -4.121  0.1925E+01  0.6606E+00
     -4.078  0.2098E+01  0.7508E+00
     -4.035  0.2321E+01  0.8506E+00
     -3.992  0.2565E+01  0.9610E+00
     -3.949  0.2794E+01  0.1081E+01
     -3.906  0.2971E+01  0.1209E+01
     -3.863  0.3071E+01  0.1341E+01
     -3.820  0.3095E+01  0.1474E+01
     -3.777  0.3066E+01  0.1606E+01
     -3.734  0.3026E+01  0.1736E+01
     -3.691  0.3020E+01  0.1866E+01
     -3.648  0.3078E+01  0.1999E+01
     -3.605  0.3209E+01  0.2137E+01
     -3.562  0.3400E+01  0.2283E+01
     -3.519  0.3621E+01  0.2439E+01
     -3.476  0.3836E+01  0.2604E+01
     -3.433  0.4012E+01  0.2776E+01
     -3.390  0.4129E+01  0.2954E+01
     -3.347  0.4182E+01  0.3134E+01
     -3.304  0.4181E+01  0.3313E+01
     -3.261  0.4156E+01  0.3492E+01
     -3.218  0.4150E+01  0.3671E+01
     -3.175  0.4207E+01  0.3852E+01
     -3.132  0.4353E+01  0.4039E+01
     -3.089  0.4583E+01  0.4236E+01
     -3.046  0.4861E+01  0.4445E+01
     -3.003  0.5131E+01  0.4666E+01
     -2.960  0.5330E+01  0.4895E+01
     -2.917  0.5419E+01  0.5128E+01
     -2.874  0.5401E+01  0.5361E+01
     -2.831  0.5326E+01  0.5590E+01
     -2.788  0.5267E+01  0.5816E+01
     -2.745  0.5283E+01  0.6043E+01
     -2.702  0.5377E+01  0.6275E+01
     -2.659  0.5503E+01  0.6511E+01
     -2.616  0.5598E+01  0.6752E+01
     -2.573  0.5639E+01  0.6995E+01
     -2.530  0.5664E+01  0.7238E+01
     -2.487  0.5753E+01  0.7486E+01
     -2.444  0.5977E+01  0.7743E+01
     -2.401  0.6351E+01  0.8016E+01
     -2.358  0.6807E+01  0.8309E+01
     -2.315  0.7206E+01  0.8619E+01
     -2.272  0.7406E+01  0.8937E+01
     -2.229  0.7345E+01  0.9253E+01
     -2.186  0.7099E+01  0.9559E+01
     -2.143  0.6850E+01  0.9853E+01
     -2.100  0.6793E+01  0.1015E+02
     -2.057  0.7028E+01  0.1045E+02
     -2.014  0.7516E+01  0.1077E+02
     -1.971  0.8099E+01  0.1112E+02
     -1.928  0.8584E+01  0.1149E+02
     -1.885  0.8831E+01  0.1187E+02
     -1.842  0.8830E+01  0.1225E+02
     -1.798  0.8696E+01  0.1262E+02
     -1.755  0.8593E+01  0.1299E+02
     -1.712  0.8629E+01  0.1336E+02
     -1.669  0.8812E+01  0.1374E+02
     -1.626  0.9075E+01  0.1413E+02
     -1.583  0.9352E+01  0.1453E+02
     -1.540  0.9621E+01  0.1495E+02
     -1.497  0.9890E+01  0.1537E+02
     -1.454  0.1017E+02  0.1581E+02
     -1.411  0.1042E+02  0.1626E+02
     -1.368  0.1064E+02  0.1672E+02
     -1.325  0.1086E+02  0.1718E+02
     -1.282  0.1121E+02  0.1767E+02
     -1.239  0.1181E+02  0.1818E+02
     -1.196  0.1272E+02  0.1872E+02
     -1.153  0.1377E+02  0.1931E+02
     -1.110  0.1467E+02  0.1995E+02
     -1.067  0.1517E+02  0.2060E+02
     -1.024  0.1530E+02  0.2126E+02
     -0.981  0.1533E+02  0.2192E+02
     -0.938  0.1570E+02  0.2259E+02
     -0.895  0.1673E+02  0.2331E+02
     -0.852  0.1845E+02  0.2410E+02
     -0.809  0.2071E+02  0.2500E+02
     -0.766  0.2334E+02  0.2600E+02
     -0.723  0.2637E+02  0.2713E+02
     -0.680  0.2991E+02  0.2842E+02
     -0.637  0.3397E+02  0.2988E+02
     -0.594  0.3828E+02  0.3153E+02
     -0.551  0.4236E+02  0.3335E+02
     -0.508  0.4578E+02  0.3532E+02
     -0.465  0.4840E+02  0.3740E+02
     -0.422  0.5039E+02  0.3957E+02
     -0.379  0.5207E+02  0.4181E+02
     -0.336  0.5362E+02  0.4411E+02
     -0.293  0.5505E+02  0.4648E+02
     -0.250  0.5619E+02  0.4890E+02
     -0.207  0.5688E+02  0.5135E+02
     -0.164  0.5715E+02  0.5380E+02
     -0.121  0.5723E+02  0.5627E+02
     -0.078  0.5745E+02  0.5874E+02
     -0.035  0.5809E+02  0.6124E+02
      0.008  0.5931E+02  0.6379E+02
      0.051  0.6117E+02  0.6642E+02
      0.094  0.6361E+02  0.6915E+02
      0.137  0.6648E+02  0.7201E+02
      0.180  0.6950E+02  0.7500E+02
      0.223  0.7239E+02  0.7812E+02
      0.266  0.7500E+02  0.8134E+02
      0.309  0.7734E+02  0.8467E+02
      0.352  0.7952E+02  0.8809E+02
      0.395  0.8159E+02  0.9160E+02
      0.438  0.8351E+02  0.9519E+02
      0.481  0.8510E+02  0.9885E+02
      0.524  0.8612E+02  0.1026E+03
      0.567  0.8648E+02  0.1063E+03
      0.610  0.8621E+02  0.1100E+03
      0.653  0.8548E+02  0.1137E+03
      0.696  0.8437E+02  0.1173E+03
      0.739  0.8290E+02  0.1209E+03
      0.782  0.8114E+02  0.1243E+03
      0.825  0.7933E+02  0.1278E+03
      0.868  0.7781E+02  0.1311E+03
      0.911  0.7676E+02  0.1344E+03
      0.954  0.7613E+02  0.1377E+03
      0.997  0.7564E+02  0.1409E+03
      1.040  0.7497E+02  0.1442E+03
      1.083  0.7400E+02  0.1473E+03
      1.126  0.7286E+02  0.1505E+03
      1.169  0.7192E+02  0.1536E+03
      1.212  0.7156E+02  0.1566E+03
      1.255  0.7185E+02  0.1597E+03
      1.298  0.7248E+02  0.1629E+03
      1.342  0.7291E+02  0.1660E+03
      1.385  0.7269E+02  0.1691E+03
      1.428  0.7179E+02  0.1722E+03
      1.471  0.7062E+02  0.1752E+03
      1.514  0.6976E+02  0.1782E+03
      1.557  0.6966E+02  0.1812E+03
      1.600  0.7045E+02  0.1843E+03
      1.643  0.7201E+02  0.1874E+03
      1.686  0.7404E+02  0.1906E+03
      1.729  0.7624E+02  0.1938E+03
      1.772  0.7840E+02  0.1972E+03
      1.815  0.8042E+02  0.2007E+03
      1.858  0.8227E+02  0.2042E+03
      1.901  0.8399E+02  0.2078E+03
      1.944  0.8564E+02  0.2115E+03
      1.987  0.8727E+02  0.2153E+03
      2.030  0.8886E+02  0.2191E+03
      2.073  0.9033E+02  0.2230E+03
      2.116  0.9165E+02  0.2269E+03
      2.159  0.9293E+02  0.2309E+03
      2.202  0.9436E+02  0.2350E+03
      2.245  0.9619E+02  0.2391E+03
      2.288  0.9865E+02  0.2433E+03
      2.331  0.1019E+03  0.2477E+03
      2.374  0.1058E+03  0.2523E+03
      2.417  0.1103E+03  0.2570E+03
      2.460  0.1149E+03  0.2620E+03
      2.503  0.1194E+03  0.2671E+03
      2.546  0.1232E+03  0.2724E+03
      2.589  0.1259E+03  0.2778E+03
      2.632  0.1274E+03  0.2833E+03
      2.675  0.1280E+03  0.2888E+03
      2.718  0.1284E+03  0.2943E+03
      2.761  0.1292E+03  0.2999E+03
      2.804  0.1309E+03  0.3055E+03
      2.847  0.1338E+03  0.3113E+03
      2.890  0.1373E+03  0.3172E+03
      2.933  0.1401E+03  0.3232E+03
      2.976  0.1406E+03  0.3292E+03
      3.019  0.1376E+03  0.3352E+03
      3.062  0.1311E+03  0.3408E+03
      3.105  0.1223E+03  0.3461E+03
      3.148  0.1129E+03  0.3509E+03
      3.191  0.1045E+03  0.3554E+03
      3.234  0.9808E+02  0.3596E+03
      3.277  0.9400E+02  0.3637E+03
      3.320  0.9197E+02  0.3676E+03
      3.363  0.9134E+02  0.3716E+03
      3.406  0.9127E+02  0.3755E+03
      3.449  0.9093E+02  0.3794E+03
      3.492  0.8979E+02  0.3833E+03
      3.535  0.8782E+02  0.3870E+03
      3.578  0.8559E+02  0.3907E+03
      3.621  0.8403E+02  0.3943E+03
      3.664  0.8398E+02  0.3979E+03
      3.707  0.8568E+02  0.4016E+03
      3.750  0.8868E+02  0.4054E+03
      3.793  0.9214E+02  0.4094E+03
      3.836  0.9533E+02  0.4135E+03
      3.879  0.9794E+02  0.4177E+03
      3.922  0.1000E+03  0.4220E+03
      3.965  0.1018E+03  0.4264E+03
      4.008  0.1032E+03  0.4308E+03
      4.051  0.1042E+03  0.4353E+03
      4.094  0.1045E+03  0.4398E+03
      4.137  0.1039E+03  0.4443E+03
      4.180  0.1025E+03  0.4487E+03
      4.223  0.1008E+03  0.4530E+03
      4.266  0.9917E+02  0.4573E+03
      4.309  0.9814E+02  0.4615E+03
      4.352  0.9788E+02  0.4657E+03
      4.395  0.9828E+02  0.4699E+03
      4.439  0.9900E+02  0.4742E+03
      4.482  0.9964E+02  0.4785E+03
      4.525  0.9986E+02  0.4828E+03
      4.568  0.9958E+02  0.4871E+03
      4.611  0.9902E+02  0.4913E+03
      4.654  0.9865E+02  0.4956E+03
      4.697  0.9898E+02  0.4998E+03
      4.740  0.1003E+03  0.5041E+03
      4.783  0.1025E+03  0.5086E+03
      4.826  0.1052E+03  0.5131E+03
      4.869  0.1080E+03  0.5177E+03
      4.912  0.1102E+03  0.5225E+03
      4.955  0.1114E+03  0.5273E+03
      4.998  0.1106E+03  0.5320E+03
      5.041  0.1071E+03  0.5366E+03
      5.084  0.9986E+02  0.5409E+03
      5.127  0.8857E+02  0.5447E+03
      5.170  0.7376E+02  0.5479E+03
      5.213  0.5693E+02  0.5503E+03
      5.256  0.4025E+02  0.5521E+03
      5.299  0.2580E+02  0.5532E+03
      5.342  0.1487E+02  0.5538E+03
      5.385  0.7654E+01  0.5542E+03
      5.428  0.3501E+01  0.5543E+03
      5.471  0.1418E+01  0.5544E+03
      5.514  0.5071E+00  0.5544E+03
      5.557  0.1598E+00  0.5544E+03
      5.600  0.4431E-01  0.5544E+03
      5.643  0.1079E-01  0.5544E+03
      5.686  0.2306E-02  0.5544E+03
      5.729  0.4314E-03  0.5544E+03
      5.772  0.7051E-04  0.5544E+03
      5.815  0.1005E-04  0.5544E+03
      5.858  0.1245E-05  0.5544E+03
      5.901  0.1339E-06  0.5544E+03
      5.944  0.1246E-07  0.5544E+03
      5.987  0.1001E-08  0.5544E+03
      6.030  0.6933E-10  0.5544E+03
      6.073  0.4127E-11  0.5544E+03
      6.116  0.2103E-12  0.5544E+03
      6.159  0.8776E-14  0.5544E+03
      6.202  0.3226E-15  0.5544E+03
      6.245  0.0000E+00  0.5544E+03
      6.288  0.0000E+00  0.5544E+03
      6.331  0.0000E+00  0.5544E+03
      6.374  0.0000E+00  0.5544E+03
      6.417  0.0000E+00  0.5544E+03
      6.460  0.0000E+00  0.5544E+03
      6.503  0.0000E+00  0.5544E+03
      6.546  0.0000E+00  0.5544E+03
      6.589  0.0000E+00  0.5544E+03
      6.632  0.0000E+00  0.5544E+03
      6.675  0.0000E+00  0.5544E+03
      6.718  0.0000E+00  0.5544E+03
      6.761  0.0000E+00  0.5544E+03
      6.804  0.0000E+00  0.5544E+03
