       N       E                     dE             d eps       ncg     rms          rms(c)
DAV:   1     0.292853130725E+05    0.29285E+05   -0.86649E+05 27944   0.197E+03
DAV:   2     0.120771787685E+04   -0.28078E+05   -0.27462E+05 27720   0.605E+02
DAV:   3    -0.194027722581E+04   -0.31480E+04   -0.27337E+04 39032   0.280E+02
DAV:   4    -0.261208595068E+04   -0.67181E+03   -0.61158E+03 50946   0.979E+01
DAV:   5    -0.273254229526E+04   -0.12046E+03   -0.11282E+03 48300   0.399E+01    0.204E+02
RMM:   6    -0.706619525130E+04   -0.43337E+04   -0.16264E+04 48627   0.279E+02    0.815E+02
RMM:   7    -0.705172484969E+04    0.14470E+02   -0.94398E+03 49812   0.134E+02    0.637E+02
RMM:   8    -0.721605892600E+04   -0.16433E+03   -0.17187E+04 38872   0.386E+02    0.117E+03
RMM:   9    -0.917605021427E+04   -0.19600E+04   -0.11415E+04 44313   0.252E+02    0.132E+03
RMM:  10    -0.110838769391E+05   -0.19078E+04   -0.11216E+04 46480   0.273E+02    0.153E+03
RMM:  11    -0.140589299160E+05   -0.29751E+04   -0.14470E+04 50358   0.268E+02    0.115E+03
RMM:  12    -0.134986152861E+05    0.56031E+03   -0.18360E+04 47238   0.299E+02    0.101E+03
RMM:  13    -0.112839615492E+05    0.22147E+04   -0.98292E+03 44882   0.182E+02    0.938E+02
RMM:  14    -0.953199838965E+04    0.17520E+04   -0.82360E+03 49044   0.151E+02    0.822E+02
RMM:  15    -0.895793017507E+04    0.57407E+03   -0.62378E+03 45858   0.944E+01    0.794E+02
RMM:  16    -0.815060072167E+04    0.80733E+03   -0.51969E+03 39542   0.127E+02    0.662E+02
RMM:  17    -0.546501618975E+04    0.26856E+04   -0.42560E+03 27816   0.139E+02    0.508E+02
RMM:  18    -0.265100757411E+04    0.28140E+04   -0.34119E+03 30859   0.106E+02    0.332E+02
RMM:  19    -0.246314962318E+04    0.18786E+03   -0.41196E+03 47275   0.101E+02    0.303E+02
RMM:  20    -0.222762334524E+04    0.23553E+03   -0.28887E+03 49940   0.751E+01    0.242E+02
RMM:  21    -0.238622635289E+04   -0.15860E+03   -0.23566E+03 49529   0.727E+01    0.205E+02
RMM:  22    -0.249479430792E+04   -0.10857E+03   -0.19030E+03 45750   0.615E+01    0.182E+02
RMM:  23    -0.262134125816E+04   -0.12655E+03   -0.12902E+03 49996   0.497E+01    0.157E+02
RMM:  24    -0.272289186389E+04   -0.10155E+03   -0.80946E+02 47664   0.438E+01    0.156E+02
RMM:  25    -0.278568251125E+04   -0.62791E+02   -0.62679E+02 48473   0.388E+01    0.162E+02
RMM:  26    -0.274146348522E+04    0.44219E+02   -0.52955E+02 49911   0.319E+01    0.149E+02
RMM:  27    -0.275459342974E+04   -0.13130E+02   -0.36776E+02 47465   0.289E+01    0.152E+02
RMM:  28    -0.273908411899E+04    0.15509E+02   -0.23140E+02 49553   0.272E+01    0.161E+02
RMM:  29    -0.265681853873E+04    0.82266E+02   -0.29708E+02 47842   0.233E+01    0.159E+02
RMM:  30    -0.263128188667E+04    0.25537E+02   -0.25595E+02 47485   0.175E+01    0.144E+02
RMM:  31    -0.263634274429E+04   -0.50609E+01   -0.14248E+02 46789   0.127E+01    0.146E+02
RMM:  32    -0.265191699866E+04   -0.15574E+02   -0.30972E+01 48768   0.109E+01    0.152E+02
RMM:  33    -0.269189822340E+04   -0.39981E+02   -0.11634E+01 47579   0.103E+01    0.162E+02
RMM:  34    -0.271254657267E+04   -0.20648E+02   -0.77946E+00 50025   0.872E+00    0.170E+02
RMM:  35    -0.272146518651E+04   -0.89186E+01   -0.11161E+02 44737   0.134E+01    0.187E+02
RMM:  36    -0.273153532892E+04   -0.10070E+02   -0.14639E+02 49654   0.871E+00    0.195E+02
RMM:  37    -0.274647918391E+04   -0.14944E+02   -0.14043E+02 44955   0.783E+00    0.202E+02
RMM:  38    -0.275857914437E+04   -0.12100E+02   -0.13504E+02 48043   0.676E+00    0.209E+02
RMM:  39    -0.279403005915E+04   -0.35451E+02   -0.12823E+02 45492   0.682E+00    0.217E+02
RMM:  40    -0.282446011527E+04   -0.30430E+02   -0.12563E+02 48569   0.632E+00    0.224E+02
RMM:  41    -0.283189603288E+04   -0.74359E+01   -0.13469E+02 43885   0.660E+00    0.227E+02
RMM:  42    -0.282315510097E+04    0.87409E+01   -0.16748E+02 45522   0.751E+00    0.229E+02
RMM:  43    -0.279210694690E+04    0.31048E+02   -0.17939E+02 45452   0.761E+00    0.228E+02
RMM:  44    -0.275857075901E+04    0.33536E+02   -0.20757E+02 45646   0.732E+00    0.227E+02
RMM:  45    -0.272755539526E+04    0.31015E+02   -0.23571E+02 46220   0.664E+00    0.225E+02
RMM:  46    -0.271662349240E+04    0.10932E+02   -0.26774E+02 45712   0.588E+00    0.225E+02
RMM:  47    -0.271931637927E+04   -0.26929E+01   -0.30458E+02 42382   0.585E+00    0.226E+02
RMM:  48    -0.274617693968E+04   -0.26861E+02   -0.35623E+02 46277   0.517E+00    0.230E+02
RMM:  49    -0.279605996387E+04   -0.49883E+02   -0.40253E+02 45288   0.484E+00    0.236E+02
RMM:  50    -0.277435517532E+04    0.21705E+02   -0.34976E+02 37945   0.747E+00    0.241E+02
RMM:  51    -0.296599465247E+04   -0.19164E+03   -0.79509E+02 35899   0.250E+01    0.262E+02
RMM:  52    -0.274302345131E+04    0.22297E+03   -0.67081E+02 44843   0.133E+01    0.264E+02
RMM:  53    -0.263536438412E+04    0.10766E+03   -0.37536E+02 39363   0.107E+01    0.239E+02
RMM:  54    -0.257722493398E+04    0.58139E+02   -0.21743E+02 41142   0.821E+00    0.230E+02
RMM:  55    -0.261306260651E+04   -0.35838E+02   -0.12759E+02 42323   0.562E+00    0.242E+02
RMM:  56    -0.336811247091E+04   -0.75505E+03   -0.12790E+03 38088   0.421E+01    0.287E+02
RMM:  57    -0.249548783353E+04    0.87262E+03   -0.40497E+02 32210   0.296E+01    0.179E+02
RMM:  58    -0.246942017156E+04    0.26068E+02   -0.45903E+02 39562   0.206E+01    0.150E+02
RMM:  59    -0.250301640737E+04   -0.33596E+02   -0.35509E+02 45587   0.998E+00    0.155E+02
RMM:  60    -0.251888900866E+04   -0.15873E+02   -0.13451E+02 44711   0.571E+00    0.164E+02
RMM:  61    -0.244848438964E+04    0.70405E+02   -0.82871E+01 31539   0.133E+01    0.145E+02
RMM:  62    -0.251618628316E+04   -0.67702E+02   -0.81053E+01 28719   0.182E+01    0.172E+02
RMM:  63    -0.242808642157E+04    0.88100E+02   -0.12357E+02 41351   0.105E+01    0.134E+02
RMM:  64    -0.238443215992E+04    0.43654E+02   -0.70346E+01 35349   0.938E+00    0.106E+02
RMM:  65    -0.240466024437E+04   -0.20228E+02   -0.10461E+02 37708   0.110E+01    0.115E+02
RMM:  66    -0.252432931161E+04   -0.11967E+03   -0.22257E+02 35397   0.193E+01    0.158E+02
RMM:  67    -0.248337281749E+04    0.40956E+02   -0.16157E+02 44960   0.891E+00    0.142E+02
RMM:  68    -0.249540343382E+04   -0.12031E+02   -0.95264E+01 43770   0.541E+00    0.151E+02
RMM:  69    -0.250306264180E+04   -0.76592E+01   -0.70640E+01 47247   0.305E+00    0.160E+02
RMM:  70    -0.250506793906E+04   -0.20053E+01   -0.38005E+01 42285   0.249E+00    0.164E+02
RMM:  71    -0.250202020641E+04    0.30477E+01   -0.73558E+01 31435   0.134E+01    0.166E+02
RMM:  72    -0.249129157074E+04    0.10729E+02   -0.25424E+01 27808   0.122E+01    0.162E+02
RMM:  73    -0.249139400717E+04   -0.10244E+00   -0.20641E+01 31419   0.678E+00    0.163E+02
RMM:  74    -0.249039297782E+04    0.10010E+01   -0.17170E+01 32851   0.486E+00    0.165E+02
RMM:  75    -0.249065636491E+04   -0.26339E+00   -0.12899E+01 34420   0.386E+00    0.167E+02
RMM:  76    -0.261606987461E+04   -0.12541E+03   -0.38949E+02 32007   0.319E+01    0.192E+02
RMM:  77    -0.254205592468E+04    0.74014E+02   -0.17117E+02 27993   0.278E+01    0.166E+02
RMM:  78    -0.248961389242E+04    0.52442E+02   -0.11804E+02 32756   0.147E+01    0.151E+02
RMM:  79    -0.242754059024E+04    0.62073E+02   -0.63309E+01 28410   0.158E+01    0.131E+02
RMM:  80    -0.238863339381E+04    0.38907E+02   -0.81436E+01 31038   0.143E+01    0.109E+02
RMM:  81    -0.247074132216E+04   -0.82108E+02   -0.19109E+02 27755   0.290E+01    0.152E+02
RMM:  82    -0.246578435111E+04    0.49570E+01   -0.88181E+01 27784   0.201E+01    0.148E+02
RMM:  83    -0.243044591236E+04    0.35338E+02   -0.67267E+01 30943   0.130E+01    0.129E+02
RMM:  84    -0.241755896698E+04    0.12887E+02   -0.61392E+01 35302   0.999E+00    0.121E+02
RMM:  85    -0.243002207525E+04   -0.12463E+02   -0.49121E+01 34844   0.881E+00    0.128E+02
RMM:  86    -0.253517768809E+04   -0.10516E+03   -0.21295E+02 28737   0.283E+01    0.181E+02
RMM:  87    -0.242619374392E+04    0.10898E+03   -0.93146E+01 27726   0.226E+01    0.131E+02
RMM:  88    -0.241026532356E+04    0.15928E+02   -0.70339E+01 32096   0.119E+01    0.118E+02
RMM:  89    -0.243440282338E+04   -0.24137E+02   -0.80455E+01 32948   0.122E+01    0.130E+02
RMM:  90    -0.245886526256E+04   -0.24462E+02   -0.10218E+02 37880   0.110E+01    0.134E+02
RMM:  91    -0.263269866872E+04   -0.17383E+03   -0.38653E+02 31360   0.337E+01    0.198E+02
RMM:  92    -0.250365621732E+04    0.12904E+03   -0.13663E+02 28042   0.270E+01    0.148E+02
RMM:  93    -0.250561457778E+04   -0.19584E+01   -0.15967E+02 46102   0.726E+00    0.150E+02
RMM:  94    -0.251651952807E+04   -0.10905E+02   -0.11236E+02 46918   0.427E+00    0.161E+02
RMM:  95    -0.255116155839E+04   -0.34642E+02   -0.13599E+02 37898   0.138E+01    0.169E+02
RMM:  96    -0.284805791103E+04   -0.29690E+03   -0.40128E+02 33984   0.300E+01    0.227E+02
RMM:  97    -0.280554696666E+04    0.42511E+02   -0.27135E+02 35277   0.223E+01    0.220E+02
RMM:  98    -0.283923595973E+04   -0.33689E+02   -0.31064E+02 45486   0.954E+00    0.226E+02
RMM:  99    -0.285782716042E+04   -0.18591E+02   -0.16621E+02 45583   0.632E+00    0.233E+02
RMM: 100    -0.281545664294E+04    0.42371E+02   -0.48381E+01 36027   0.753E+00
   1 F= -.28154566E+04 E0= -.28132239E+04  d E =-.281546E+04
       N       E                     dE             d eps       ncg     rms          rms(c)
DAV:   1    -0.279145038970E+04    0.66377E+02   -0.10449E+04 41006   0.163E+02    0.251E+02
RMM:   2    -0.513186588142E+05   -0.48527E+05   -0.11787E+05 51883   0.114E+03    0.514E+03
RMM:   3    -0.596664222550E+05   -0.83478E+04   -0.13245E+05 50231   0.976E+02    0.370E+03
RMM:   4    -0.639312312563E+05   -0.42648E+04   -0.13085E+05 50746   0.758E+02    0.652E+03
RMM:   5    -0.761450064988E+05   -0.12214E+05   -0.16259E+05 50709   0.920E+02    0.511E+03
RMM:   6    -0.921693004140E+05   -0.16024E+05   -0.18298E+05 50712   0.987E+02    0.624E+03
RMM:   7    -0.105720342757E+06   -0.13551E+05   -0.18633E+05 50700   0.962E+02    0.550E+03
RMM:   8    -0.113782812484E+06   -0.80625E+04   -0.13354E+05 50733   0.807E+02    0.573E+03
RMM:   9    -0.120633836825E+06   -0.68510E+04   -0.74703E+04 50750   0.695E+02    0.713E+03
RMM:  10    -0.115139624908E+06    0.54942E+04   -0.49928E+04 50692   0.537E+02    0.724E+03
RMM:  11    -0.952486794122E+05    0.19891E+05   -0.19887E+04 47765   0.261E+02    0.676E+03
RMM:  12    -0.930778657495E+05    0.21708E+04   -0.11169E+04 46568   0.149E+02    0.690E+03
RMM:  13    -0.809516695634E+05    0.12126E+05   -0.17379E+04 50557   0.144E+02    0.742E+03
RMM:  14    -0.821500334276E+05   -0.11984E+04   -0.91499E+03 48329   0.112E+02    0.775E+03
RMM:  15    -0.707651184247E+05    0.11385E+05   -0.11291E+04 50800   0.818E+01    0.792E+03
RMM:  16    -0.695201601395E+05    0.12450E+04   -0.42903E+03 42989   0.827E+01    0.822E+03
RMM:  17    -0.672211160552E+05    0.22990E+04   -0.50895E+03 50762   0.408E+01    0.815E+03
RMM:  18    -0.665145361424E+05    0.70658E+03   -0.15323E+03 36525   0.809E+01    0.832E+03
RMM:  19    -0.679929413522E+05   -0.14784E+04   -0.26491E+03 50783   0.264E+01    0.844E+03
RMM:  20    -0.700311516399E+05   -0.20382E+04   -0.11899E+03 47178   0.525E+01    0.869E+03
RMM:  21    -0.659411247059E+05    0.40900E+04   -0.50984E+03 49975   0.431E+01    0.879E+03
RMM:  22    -0.594997937065E+05    0.64413E+04   -0.15231E+03 40229   0.528E+01    0.870E+03
RMM:  23    -0.581055899013E+05    0.13942E+04   -0.11582E+03 47269   0.220E+01    0.871E+03
RMM:  24    -0.582562920982E+05   -0.15070E+03   -0.75471E+02 50650   0.269E+01    0.874E+03
RMM:  25    -0.456136012529E+05    0.12643E+05   -0.94441E+02 44382   0.286E+01    0.812E+03
RMM:  26    -0.219747106325E+05    0.23639E+05   -0.37088E+03 45369   0.749E+01    0.672E+03
RMM:  27    -0.136193852459E+04    0.20613E+05   -0.67499E+03 46472   0.105E+02    0.561E+03
RMM:  28     0.481091962756E+04    0.61729E+04   -0.54042E+03 49218   0.145E+02    0.527E+03
RMM:  29     0.341718703659E+04   -0.13937E+04   -0.11263E+04 45849   0.132E+02    0.505E+03
RMM:  30     0.163302323902E+04   -0.17842E+04   -0.15993E+04 50605   0.176E+02    0.472E+03
RMM:  31     0.420165447934E+04    0.25686E+04   -0.20050E+04 49091   0.225E+02    0.404E+03
RMM:  32     0.227693233856E+04   -0.19247E+04   -0.15511E+04 50364   0.232E+02    0.363E+03
RMM:  33     0.349578472440E+03   -0.19274E+04   -0.13897E+04 48951   0.241E+02    0.330E+03
RMM:  34    -0.144125773255E+04   -0.17908E+04   -0.15082E+04 49305   0.272E+02    0.302E+03
RMM:  35    -0.402091951903E+04   -0.25797E+04   -0.15564E+04 49728   0.231E+02    0.236E+03
RMM:  36    -0.174078067898E+04    0.22801E+04   -0.14937E+04 48199   0.211E+02    0.151E+03
RMM:  37    -0.320100768187E+04   -0.14602E+04   -0.12780E+04 49359   0.178E+02    0.132E+03
RMM:  38    -0.413267961127E+04   -0.93167E+03   -0.11738E+04 49212   0.144E+02    0.953E+02
RMM:  39    -0.234542820756E+04    0.17873E+04   -0.14894E+04 50072   0.171E+02    0.653E+02
RMM:  40    -0.222222580732E+04    0.12320E+03   -0.97436E+03 51313   0.152E+02    0.495E+02
RMM:  41    -0.293721703510E+04   -0.71499E+03   -0.77032E+03 51087   0.124E+02    0.427E+02
RMM:  42    -0.389748652813E+04   -0.96027E+03   -0.79587E+03 46224   0.144E+02    0.458E+02
RMM:  43    -0.460417294557E+04   -0.70669E+03   -0.10892E+04 47551   0.249E+02    0.552E+02
RMM:  44    -0.432059753502E+04    0.28358E+03   -0.71776E+03 49535   0.120E+02    0.412E+02
RMM:  45    -0.464578509266E+04   -0.32519E+03   -0.56373E+03 49779   0.830E+01    0.396E+02
RMM:  46    -0.491412618856E+04   -0.26834E+03   -0.42531E+03 51182   0.669E+01    0.395E+02
RMM:  47    -0.619286697072E+04   -0.12787E+04   -0.97897E+03 50819   0.163E+02    0.706E+02
RMM:  48    -0.789437706746E+04   -0.17015E+04   -0.71065E+03 42647   0.179E+02    0.586E+02
RMM:  49    -0.811953405596E+04   -0.22516E+03   -0.53287E+03 50257   0.859E+01    0.595E+02
RMM:  50    -0.834647042120E+04   -0.22694E+03   -0.31778E+03 50279   0.652E+01    0.599E+02
RMM:  51    -0.850427049549E+04   -0.15780E+03   -0.37285E+03 40757   0.725E+01    0.609E+02
RMM:  52    -0.925958102630E+04   -0.75531E+03   -0.18542E+04 48679   0.309E+02    0.992E+02
RMM:  53    -0.699660053325E+04    0.22630E+04   -0.94145E+03 49778   0.167E+02    0.718E+02
RMM:  54    -0.914787675487E+04   -0.21513E+04   -0.73867E+03 41109   0.170E+02    0.596E+02
RMM:  55    -0.397314416913E+04    0.51747E+04   -0.60709E+03 28709   0.191E+02    0.423E+02
RMM:  56    -0.497750751569E+04   -0.10044E+04   -0.57809E+03 43738   0.182E+02    0.433E+02
RMM:  57    -0.515458013734E+04   -0.17707E+03   -0.96359E+03 51445   0.152E+02    0.744E+02
RMM:  58    -0.484842797674E+04    0.30615E+03   -0.62613E+03 50711   0.118E+02    0.597E+02
RMM:  59    -0.548937982486E+04   -0.64095E+03   -0.42939E+03 48718   0.108E+02    0.568E+02
RMM:  60    -0.356740095438E+04    0.19220E+04   -0.26952E+03 38925   0.139E+02    0.503E+02
RMM:  61    -0.311374414314E+04    0.45366E+03   -0.15063E+03 47525   0.839E+01    0.414E+02
RMM:  62    -0.320241888881E+04   -0.88675E+02   -0.16621E+03 44186   0.104E+02    0.436E+02
RMM:  63    -0.281299607372E+04    0.38942E+03   -0.54030E+02 40459   0.946E+01    0.357E+02
RMM:  64    -0.261024913742E+04    0.20275E+03   -0.15426E+02 41270   0.723E+01    0.339E+02
RMM:  65    -0.291646976553E+04   -0.30622E+03   -0.52148E+02 42046   0.665E+01    0.452E+02
RMM:  66    -0.295203843194E+04   -0.35569E+02   -0.23336E+02 47997   0.413E+01    0.491E+02
RMM:  67    -0.276129490433E+04    0.19074E+03   -0.45914E+02 47991   0.557E+01    0.446E+02
RMM:  68    -0.281178140650E+04   -0.50487E+02   -0.13984E+02 46904   0.538E+01    0.498E+02
RMM:  69    -0.286715797903E+04   -0.55377E+02   -0.28571E+02 48188   0.396E+01    0.522E+02
RMM:  70    -0.292274604437E+04   -0.55588E+02   -0.40051E+02 48651   0.449E+01    0.513E+02
RMM:  71    -0.307727863083E+04   -0.15453E+03   -0.13126E+01 48315   0.430E+01    0.499E+02
RMM:  72    -0.284167645687E+04    0.23560E+03   -0.34660E+02 39513   0.662E+01    0.545E+02
RMM:  73    -0.276685729107E+04    0.74819E+02    0.81517E+02 38672   0.490E+01    0.631E+02
RMM:  74    -0.278385881179E+04   -0.17002E+02   -0.57672E+02 44254   0.407E+01    0.721E+02
RMM:  75    -0.272344549532E+04    0.60413E+02   -0.27467E+01 47451   0.346E+01    0.629E+02
RMM:  76    -0.267041319937E+04    0.53032E+02    0.33607E+02 43562   0.301E+01    0.589E+02
RMM:  77    -0.262507533221E+04    0.45338E+02   -0.13449E+02 39151   0.439E+01    0.593E+02
RMM:  78    -0.261682355981E+04    0.82518E+01    0.17551E+01 37627   0.428E+01    0.514E+02
RMM:  79    -0.259464644184E+04    0.22177E+02   -0.30090E+02 38347   0.478E+01    0.454E+02
RMM:  80    -0.246610020361E+04    0.12855E+03   -0.24259E+02 39130   0.428E+01    0.319E+02
RMM:  81    -0.247600377843E+04   -0.99036E+01   -0.33123E+02 40602   0.397E+01    0.286E+02
RMM:  82    -0.242034052998E+04    0.55663E+02   -0.29725E+02 47362   0.340E+01    0.219E+02
RMM:  83    -0.238803706270E+04    0.32303E+02   -0.15493E+02 33706   0.282E+01    0.204E+02
RMM:  84    -0.236405433902E+04    0.23983E+02   -0.63743E+01 40051   0.279E+01    0.162E+02
RMM:  85    -0.234847228483E+04    0.15582E+02   -0.71782E+01 43920   0.169E+01    0.146E+02
RMM:  86    -0.234570010856E+04    0.27722E+01   -0.10491E+01 43276   0.196E+01    0.130E+02
RMM:  87    -0.241456350982E+04   -0.68863E+02   -0.13530E+02 37457   0.219E+01    0.163E+02
RMM:  88    -0.234323867978E+04    0.71325E+02   -0.49388E+01 34621   0.245E+01    0.124E+02
RMM:  89    -0.232769194523E+04    0.15547E+02   -0.23413E+01 39028   0.159E+01    0.110E+02
RMM:  90    -0.232662260099E+04    0.10693E+01    0.11498E+01 40778   0.144E+01    0.106E+02
RMM:  91    -0.233920400038E+04   -0.12581E+02   -0.20626E+01 35636   0.127E+01    0.111E+02
RMM:  92    -0.243769352546E+04   -0.98490E+02   -0.16121E+02 40240   0.260E+01    0.162E+02
RMM:  93    -0.234654115288E+04    0.91152E+02   -0.62067E+01 34758   0.206E+01    0.108E+02
RMM:  94    -0.233310795565E+04    0.13433E+02   -0.31001E+01 47817   0.141E+01    0.932E+01
RMM:  95    -0.232162701496E+04    0.11481E+02   -0.10443E+00 41339   0.127E+01    0.816E+01
RMM:  96    -0.232182170750E+04   -0.19469E+00   -0.34197E+01 45120   0.948E+00    0.772E+01
RMM:  97    -0.235182261314E+04   -0.30001E+02   -0.32827E+01 39464   0.172E+01    0.106E+02
RMM:  98    -0.232222469375E+04    0.29598E+02   -0.29826E+01 33012   0.133E+01    0.777E+01
RMM:  99    -0.231942583901E+04    0.27989E+01    0.14945E-02 45410   0.977E+00    0.739E+01
RMM: 100    -0.232221409491E+04   -0.27883E+01   -0.11942E+01 38709   0.100E+01
   2 F= -.23222141E+04 E0= -.23193883E+04  d E =0.493243E+03
       N       E                     dE             d eps       ncg     rms          rms(c)
DAV:   1    -0.233064212284E+04   -0.11216E+02   -0.40317E+02 44408   0.294E+01    0.772E+01
RMM:   2    -0.772200923411E+04   -0.53914E+04   -0.63109E+03 45248   0.164E+02    0.462E+02
RMM:   3    -0.638837529293E+04    0.13336E+04   -0.46779E+03 27750   0.149E+02    0.391E+02
RMM:   4    -0.435478784365E+04    0.20336E+04   -0.26193E+03 28393   0.111E+02    0.310E+02
RMM:   5    -0.465692284293E+04   -0.30213E+03   -0.15622E+03 30830   0.806E+01    0.345E+02
RMM:   6    -0.295196027068E+04    0.17050E+04   -0.72027E+02 28002   0.620E+01    0.245E+02
RMM:   7    -0.333156117316E+04   -0.37960E+03   -0.99729E+02 35926   0.543E+01    0.268E+02
RMM:   8    -0.277090491305E+04    0.56066E+03   -0.45485E+02 28881   0.429E+01    0.214E+02
RMM:   9    -0.251096219024E+04    0.25994E+03   -0.31395E+02 33566   0.280E+01    0.167E+02
RMM:  10    -0.243484800144E+04    0.76114E+02   -0.27316E+02 34966   0.223E+01    0.136E+02
RMM:  11    -0.238436434514E+04    0.50484E+02   -0.17089E+02 31629   0.203E+01    0.103E+02
RMM:  12    -0.238060033872E+04    0.37640E+01   -0.12524E+02 29876   0.195E+01    0.101E+02
RMM:  13    -0.233552886944E+04    0.45071E+02   -0.57223E+01 27796   0.163E+01    0.612E+01
RMM:  14    -0.233063689458E+04    0.48920E+01   -0.50999E+01 34977   0.846E+00    0.548E+01
RMM:  15    -0.232689991310E+04    0.37370E+01   -0.22324E+01 38379   0.510E+00    0.505E+01
RMM:  16    -0.232416335937E+04    0.27366E+01   -0.10745E+01 40163   0.270E+00    0.455E+01
RMM:  17    -0.232463327609E+04   -0.46992E+00   -0.75649E+00 46272   0.806E-01    0.464E+01
RMM:  18    -0.232312484891E+04    0.15084E+01   -0.13987E+00 31356   0.154E+00    0.437E+01
RMM:  19    -0.231992535839E+04    0.31995E+01   -0.25790E+00 37714   0.187E+00    0.359E+01
RMM:  20    -0.232028211948E+04   -0.35676E+00   -0.12317E+00 35569   0.125E+00    0.368E+01
RMM:  21    -0.232064363824E+04   -0.36152E+00   -0.11076E+00 43256   0.623E-01    0.376E+01
RMM:  22    -0.232138109651E+04   -0.73746E+00   -0.39749E-01 30177   0.107E+00    0.394E+01
RMM:  23    -0.232151293320E+04   -0.13184E+00   -0.44831E-01 43079   0.370E-01    0.395E+01
RMM:  24    -0.232148075269E+04    0.32181E-01   -0.20248E-01 44660   0.186E-01    0.394E+01
RMM:  25    -0.232266627201E+04   -0.11855E+01   -0.37721E-01 30591   0.979E-01    0.416E+01
RMM:  26    -0.232233071028E+04    0.33556E+00   -0.34998E-01 41231   0.523E-01    0.407E+01
RMM:  27    -0.232284266326E+04   -0.51195E+00   -0.69506E-01 29368   0.155E+00    0.414E+01
RMM:  28    -0.232328714363E+04   -0.44448E+00   -0.15035E+00 31076   0.196E+00    0.419E+01
RMM:  29    -0.232251537392E+04    0.77177E+00   -0.37262E+00 34567   0.265E+00    0.385E+01
RMM:  30    -0.232820117549E+04   -0.56858E+01   -0.10001E+01 32656   0.447E+00    0.452E+01
RMM:  31    -0.235033428394E+04   -0.22133E+02   -0.24163E+01 34906   0.653E+00    0.730E+01
RMM:  32    -0.236053987376E+04   -0.10206E+02   -0.22386E+01 38831   0.562E+00    0.828E+01
RMM:  33    -0.236025948519E+04    0.28039E+00   -0.10447E+01 40240   0.311E+00    0.836E+01
RMM:  34    -0.236086182632E+04   -0.60234E+00   -0.42601E+00 41551   0.179E+00    0.857E+01
RMM:  35    -0.235881673614E+04    0.20451E+01   -0.13519E+00 32534   0.158E+00    0.843E+01
RMM:  36    -0.235135443005E+04    0.74623E+01   -0.19543E+00 28749   0.273E+00    0.764E+01
RMM:  37    -0.234415071462E+04    0.72037E+01   -0.31718E+00 28138   0.369E+00    0.691E+01
RMM:  38    -0.234093594500E+04    0.32148E+01   -0.40880E+00 29480   0.359E+00    0.659E+01
RMM:  39    -0.234255433926E+04   -0.16184E+01   -0.49125E+00 38291   0.263E+00    0.674E+01
RMM:  40    -0.234352955096E+04   -0.97521E+00   -0.18967E+00 37172   0.149E+00    0.683E+01
RMM:  41    -0.234411120806E+04   -0.58166E+00   -0.10944E+00 44207   0.593E-01    0.688E+01
RMM:  42    -0.234461108084E+04   -0.49987E+00   -0.31599E-01 45052   0.246E-01    0.693E+01
RMM:  43    -0.234462264900E+04   -0.11568E-01   -0.10594E-01 39057   0.245E-01    0.693E+01
RMM:  44    -0.234492998642E+04   -0.30734E+00   -0.82172E-02 38658   0.296E-01    0.696E+01
RMM:  45    -0.234510777968E+04   -0.17779E+00   -0.66442E-02 45805   0.116E-01    0.698E+01
RMM:  46    -0.234437660070E+04    0.73118E+00   -0.27127E-01 31186   0.833E-01    0.696E+01
RMM:  47    -0.233079941613E+04    0.13577E+02   -0.19376E+00 30106   0.243E+00    0.528E+01
RMM:  48    -0.232899716038E+04    0.18023E+01   -0.21642E+00 43426   0.881E-01    0.494E+01
RMM:  49    -0.232636130582E+04    0.26359E+01   -0.77510E-01 30901   0.145E+00    0.452E+01
RMM:  50    -0.232294323789E+04    0.34181E+01   -0.24176E+00 34324   0.208E+00    0.390E+01
RMM:  51    -0.231990177608E+04    0.30415E+01   -0.28757E+00 35793   0.215E+00    0.325E+01
RMM:  52    -0.231761276882E+04    0.22890E+01   -0.57688E+00 40617   0.229E+00    0.260E+01
RMM:  53    -0.231754793766E+04    0.64831E-01   -0.14765E+00 38459   0.131E+00    0.246E+01
RMM:  54    -0.231747074617E+04    0.77191E-01   -0.68938E-01 40964   0.708E-01    0.233E+01
RMM:  55    -0.231728360774E+04    0.18714E+00   -0.36053E-01 34003   0.773E-01    0.221E+01
RMM:  56    -0.231683480150E+04    0.44881E+00   -0.40332E-01 31661   0.958E-01    0.198E+01
RMM:  57    -0.231942976105E+04   -0.25950E+01   -0.17352E+00 30136   0.230E+00    0.287E+01
RMM:  58    -0.231708155259E+04    0.23482E+01   -0.77763E-01 27720   0.213E+00    0.198E+01
RMM:  59    -0.231710162605E+04   -0.20073E-01   -0.48855E-01 27959   0.157E+00    0.199E+01
RMM:  60    -0.231633229774E+04    0.76933E+00   -0.84757E-01 30371   0.151E+00    0.159E+01
RMM:  61    -0.231590912617E+04    0.42317E+00   -0.70221E-01 33935   0.111E+00    0.130E+01
RMM:  62    -0.231714181689E+04   -0.12327E+01   -0.34023E+00 38460   0.208E+00    0.195E+01
RMM:  63    -0.231629917587E+04    0.84264E+00   -0.11741E+00 33403   0.145E+00    0.152E+01
RMM:  64    -0.231626652236E+04    0.32654E-01   -0.63240E-01 32516   0.113E+00    0.150E+01
RMM:  65    -0.231578479116E+04    0.48173E+00   -0.48942E-01 36954   0.822E-01    0.110E+01
RMM:  66    -0.231540212372E+04    0.38267E+00   -0.21515E-01 30983   0.749E-01    0.633E+00
RMM:  67    -0.231581746044E+04   -0.41534E+00   -0.92906E-01 28522   0.187E+00    0.107E+01
RMM:  68    -0.231533920119E+04    0.47826E+00   -0.34670E-01 27756   0.154E+00    0.490E+00
RMM:  69    -0.231529670312E+04    0.42498E-01   -0.17197E-01 30267   0.715E-01    0.385E+00
RMM:  70    -0.231525142234E+04    0.45281E-01   -0.13531E-01 35078   0.458E-01    0.251E+00
RMM:  71    -0.231524958474E+04    0.18376E-02   -0.70828E-02 31062   0.434E-01    0.235E+00
RMM:  72    -0.231529019150E+04   -0.40607E-01   -0.97253E-02 28592   0.612E-01    0.369E+00
RMM:  73    -0.231524948220E+04    0.40709E-01   -0.37774E-02 27884   0.455E-01    0.231E+00
RMM:  74    -0.231524752347E+04    0.19587E-02   -0.21480E-02 29835   0.266E-01    0.216E+00
RMM:  75    -0.231523547693E+04    0.12047E-01   -0.21754E-02 30489   0.252E-01    0.150E+00
RMM:  76    -0.231522997826E+04    0.54987E-02   -0.16789E-02 33262   0.175E-01    0.958E-01
RMM:  77    -0.231522977877E+04    0.19949E-03   -0.14473E-02 30822   0.201E-01    0.913E-01
RMM:  78    -0.231522953885E+04    0.23992E-03   -0.78703E-03 30307   0.155E-01    0.882E-01
RMM:  79    -0.231522880115E+04    0.73770E-03   -0.83247E-03 34000   0.121E-01    0.702E-01
RMM:  80    -0.231522874488E+04    0.56273E-04   -0.35041E-03 30123   0.105E-01    0.682E-01
RMM:  81    -0.231522875691E+04   -0.12032E-04   -0.30238E-03 31875   0.849E-02    0.650E-01
RMM:  82    -0.231523067229E+04   -0.19154E-02   -0.32367E-03 29217   0.106E-01    0.897E-01
RMM:  83    -0.231522880643E+04    0.18659E-02   -0.14804E-03 28057   0.858E-02    0.637E-01
RMM:  84    -0.231522824152E+04    0.56491E-03   -0.17263E-03 32848   0.581E-02    0.514E-01
RMM:  85    -0.231522759735E+04    0.64416E-03   -0.11055E-03 36552   0.385E-02    0.348E-01
RMM:  86    -0.231522726806E+04    0.32929E-03   -0.79859E-04 37441   0.310E-02    0.229E-01
RMM:  87    -0.231522827911E+04   -0.10110E-02   -0.21832E-03 28362   0.926E-02    0.478E-01
RMM:  88    -0.231522732181E+04    0.95730E-03   -0.83963E-04 27726   0.780E-02    0.232E-01
RMM:  89    -0.231522724417E+04    0.77640E-04   -0.38219E-04 30513   0.337E-02    0.193E-01
RMM:  90    -0.231522721940E+04    0.24765E-04   -0.43291E-04 33608   0.280E-02    0.158E-01
RMM:  91    -0.231522721481E+04    0.45902E-05   -0.19568E-04 31129   0.224E-02    0.142E-01
RMM:  92    -0.231522721758E+04   -0.27677E-05   -0.22035E-04 30805   0.246E-02    0.147E-01
RMM:  93    -0.231522715961E+04    0.57973E-04   -0.82811E-05 28684   0.194E-02    0.819E-02
RMM:  94    -0.231522714419E+04    0.15414E-04   -0.65778E-05 33232   0.102E-02    0.476E-02
RMM:  95    -0.231522715219E+04   -0.79928E-05   -0.46617E-05 34253   0.880E-03    0.432E-02
RMM:  96    -0.231522716206E+04   -0.98745E-05   -0.20148E-05 30077   0.702E-03    0.403E-02
RMM:  97    -0.231522716659E+04   -0.45304E-05   -0.17942E-05 29379   0.766E-03    0.423E-02
RMM:  98    -0.231522716968E+04   -0.30942E-05   -0.10528E-05 26055   0.620E-03    0.305E-02
RMM:  99    -0.231522717937E+04   -0.96897E-05   -0.85426E-06 22919   0.397E-03    0.198E-02
RMM: 100    -0.231522718812E+04   -0.87426E-05   -0.56895E-06 21330   0.392E-03
   3 F= -.23152272E+04 E0= -.23124369E+04  d E =0.500229E+03
       N       E                     dE             d eps       ncg     rms          rms(c)
DAV:   1    -0.231611292902E+04   -0.88575E+00   -0.12938E+02 27734   0.119E+01    0.309E+00
RMM:   2    -0.234804114188E+04   -0.31928E+02   -0.11812E+01 31251   0.571E+00    0.708E+01
RMM:   3    -0.233969352599E+04    0.83476E+01   -0.62003E+00 39876   0.246E+00    0.652E+01
RMM:   4    -0.232609875703E+04    0.13595E+02   -0.23239E+00 27777   0.322E+00    0.427E+01
RMM:   5    -0.231936074932E+04    0.67380E+01   -0.21229E+00 34624   0.188E+00    0.233E+01
RMM:   6    -0.231738466441E+04    0.19761E+01   -0.13295E+00 27821   0.225E+00    0.144E+01
RMM:   7    -0.232112218268E+04   -0.37375E+01   -0.38579E+00 36807   0.231E+00    0.316E+01
RMM:   8    -0.231929593440E+04    0.18262E+01   -0.19351E+00 30190   0.224E+00    0.237E+01
RMM:   9    -0.231653452037E+04    0.27614E+01   -0.63184E-01 27731   0.180E+00    0.709E+00
RMM:  10    -0.231640007126E+04    0.13445E+00   -0.44074E-01 30446   0.106E+00    0.639E+00
RMM:  11    -0.231638112719E+04    0.18944E-01   -0.48140E-01 34488   0.950E-01    0.572E+00
RMM:  12    -0.231626701005E+04    0.11412E+00   -0.16399E-01 28338   0.769E-01    0.323E+00
RMM:  13    -0.231624706437E+04    0.19946E-01   -0.13200E-01 32801   0.492E-01    0.254E+00
RMM:  14    -0.231623882116E+04    0.82432E-02   -0.87135E-02 38195   0.326E-01    0.213E+00
RMM:  15    -0.231622616494E+04    0.12656E-01   -0.32300E-02 31328   0.285E-01    0.146E+00
RMM:  16    -0.231622296038E+04    0.32046E-02   -0.19431E-02 30768   0.236E-01    0.127E+00
RMM:  17    -0.231622150984E+04    0.14505E-02   -0.15974E-02 32994   0.177E-01    0.107E+00
RMM:  18    -0.231622028214E+04    0.12277E-02   -0.10211E-02 31744   0.160E-01    0.862E-01
RMM:  19    -0.231621908859E+04    0.11935E-02   -0.40662E-03 28233   0.140E-01    0.737E-01
RMM:  20    -0.231621912029E+04   -0.31695E-04   -0.40832E-03 31297   0.104E-01    0.730E-01
RMM:  21    -0.231621830498E+04    0.81531E-03   -0.30105E-03 30037   0.963E-02    0.624E-01
RMM:  22    -0.231621760423E+04    0.70076E-03   -0.15333E-03 29046   0.829E-02    0.486E-01
RMM:  23    -0.231621735440E+04    0.24983E-03   -0.17984E-03 32188   0.634E-02    0.416E-01
RMM:  24    -0.231621684487E+04    0.50953E-03   -0.10294E-03 31285   0.512E-02    0.264E-01
RMM:  25    -0.231621660468E+04    0.24020E-03   -0.50601E-04 30995   0.371E-02    0.131E-01
RMM:  26    -0.231621661225E+04   -0.75754E-05   -0.52338E-04 38353   0.213E-02    0.110E-01
RMM:  27    -0.231621661684E+04   -0.45879E-05   -0.24691E-04 34272   0.197E-02    0.101E-01
RMM:  28    -0.231621659549E+04    0.21344E-04   -0.11905E-04 31314   0.169E-02    0.752E-02
RMM:  29    -0.231621658973E+04    0.57659E-05   -0.88720E-05 34138   0.118E-02    0.613E-02
RMM:  30    -0.231621659421E+04   -0.44823E-05   -0.70683E-05 34755   0.108E-02    0.646E-02
RMM:  31    -0.231621658844E+04    0.57710E-05   -0.36701E-05 30922   0.979E-03    0.536E-02
RMM:  32    -0.231621658591E+04    0.25288E-05   -0.32338E-05 34577   0.569E-03    0.440E-02
RMM:  33    -0.231621658442E+04    0.14917E-05   -0.13262E-05 27968   0.461E-03    0.366E-02
RMM:  34    -0.231621657986E+04    0.45568E-05   -0.53177E-06 21169   0.431E-03    0.160E-02
RMM:  35    -0.231621657940E+04    0.46435E-06   -0.28680E-06 18531   0.277E-03
   4 F= -.23162166E+04 E0= -.23134350E+04  d E =0.499240E+03
       N       E                     dE             d eps       ncg     rms          rms(c)
DAV:   1    -0.231659823405E+04   -0.38165E+00   -0.10278E+03 27762   0.341E+01    0.102E+01
RMM:   2    -0.254075119585E+04   -0.22415E+03   -0.16167E+02 32642   0.215E+01    0.158E+02
RMM:   3    -0.251654754845E+04    0.24204E+02   -0.64334E+01 38149   0.927E+00    0.171E+02
RMM:   4    -0.239587698669E+04    0.12067E+03   -0.22461E+01 27735   0.100E+01    0.114E+02
RMM:   5    -0.233920920153E+04    0.56668E+02   -0.16163E+01 38221   0.477E+00    0.610E+01
RMM:   6    -0.233162928006E+04    0.75799E+01   -0.75333E+00 27819   0.549E+00    0.484E+01
RMM:   7    -0.233602798235E+04   -0.43987E+01   -0.16958E+01 37462   0.502E+00    0.545E+01
RMM:   8    -0.233751715568E+04   -0.14892E+01   -0.14540E+01 29357   0.632E+00    0.593E+01
RMM:   9    -0.232156298533E+04    0.15954E+02   -0.42738E+00 27776   0.471E+00    0.239E+01
RMM:  10    -0.232055848627E+04    0.10045E+01   -0.24407E+00 30190   0.256E+00    0.204E+01
RMM:  11    -0.231957988496E+04    0.97860E+00   -0.26036E+00 33555   0.219E+00    0.162E+01
RMM:  12    -0.231836224360E+04    0.12176E+01   -0.72877E-01 27755   0.184E+00    0.696E+00
RMM:  13    -0.231925740439E+04   -0.89516E+00   -0.74738E-01 28156   0.175E+00    0.149E+01
RMM:  14    -0.231843562011E+04    0.82178E+00   -0.68796E-01 32721   0.111E+00    0.746E+00
RMM:  15    -0.231834968534E+04    0.85935E-01   -0.29201E-01 30944   0.837E-01    0.675E+00
RMM:  16    -0.231828202976E+04    0.67656E-01   -0.29946E-01 36626   0.634E-01    0.544E+00
RMM:  17    -0.231821716127E+04    0.64868E-01   -0.15186E-01 29375   0.698E-01    0.411E+00
RMM:  18    -0.231814839652E+04    0.68765E-01   -0.72380E-02 28358   0.565E-01    0.206E+00
RMM:  19    -0.231813808105E+04    0.10315E-01   -0.59824E-02 30925   0.391E-01    0.155E+00
RMM:  20    -0.231814234205E+04   -0.42610E-02   -0.59994E-02 34724   0.312E-01    0.162E+00
RMM:  21    -0.231814648543E+04   -0.41434E-02   -0.30889E-02 29610   0.331E-01    0.188E+00
RMM:  22    -0.231814502890E+04    0.14565E-02   -0.26981E-02 28833   0.321E-01    0.172E+00
RMM:  23    -0.231814021200E+04    0.48169E-02   -0.17742E-02 28064   0.272E-01    0.137E+00
RMM:  24    -0.231813594069E+04    0.42713E-02   -0.91271E-03 27970   0.212E-01    0.972E-01
RMM:  25    -0.231813452057E+04    0.14201E-02   -0.10317E-02 34377   0.122E-01    0.818E-01
RMM:  26    -0.231813340087E+04    0.11197E-02   -0.40168E-03 32688   0.876E-02    0.667E-01
RMM:  27    -0.231813326201E+04    0.13886E-03   -0.29220E-03 36380   0.587E-02    0.635E-01
RMM:  28    -0.231813274412E+04    0.51789E-03   -0.16750E-03 31453   0.642E-02    0.552E-01
RMM:  29    -0.231813216138E+04    0.58274E-03   -0.13233E-03 29430   0.677E-02    0.441E-01
RMM:  30    -0.231813214331E+04    0.18070E-04   -0.20022E-03 38477   0.492E-02    0.408E-01
RMM:  31    -0.231813181269E+04    0.33062E-03   -0.89339E-04 33820   0.404E-02    0.329E-01
RMM:  32    -0.231813159260E+04    0.22009E-03   -0.47366E-04 31915   0.325E-02    0.262E-01
RMM:  33    -0.231813151718E+04    0.75416E-04   -0.48845E-04 39285   0.221E-02    0.221E-01
RMM:  34    -0.231813137386E+04    0.14333E-03   -0.22092E-04 33405   0.200E-02    0.154E-01
RMM:  35    -0.231813134100E+04    0.32853E-04   -0.15799E-04 33774   0.166E-02    0.131E-01
RMM:  36    -0.231813132681E+04    0.14197E-04   -0.13961E-04 41538   0.104E-02    0.113E-01
RMM:  37    -0.231813130857E+04    0.18236E-04   -0.78141E-05 32076   0.130E-02    0.907E-02
RMM:  38    -0.231813129510E+04    0.13473E-04   -0.50218E-05 31224   0.115E-02    0.724E-02
RMM:  39    -0.231813129720E+04   -0.21085E-05   -0.65522E-05 39337   0.831E-03    0.690E-02
RMM:  40    -0.231813129551E+04    0.16922E-05   -0.31553E-05 31097   0.886E-03    0.627E-02
RMM:  41    -0.231813129399E+04    0.15215E-05   -0.24901E-05 32937   0.661E-03    0.576E-02
RMM:  42    -0.231813129237E+04    0.16182E-05   -0.16665E-05 30286   0.499E-03    0.519E-02
RMM:  43    -0.231813129040E+04    0.19690E-05   -0.11858E-05 28964   0.617E-03    0.463E-02
RMM:  44    -0.231813128899E+04    0.14106E-05   -0.87745E-06 25841   0.459E-03    0.430E-02
RMM:  45    -0.231813128423E+04    0.47634E-05   -0.64480E-06 22979   0.398E-03    0.296E-02
RMM:  46    -0.231813128208E+04    0.21495E-05   -0.35330E-06 18437   0.397E-03    0.203E-02
RMM:  47    -0.231813128263E+04   -0.55158E-06   -0.87066E-06 24467   0.435E-03
   5 F= -.23181313E+04 E0= -.23153719E+04  d E =0.497325E+03
