unknown system                          
           1
     9.726678    0.000000    0.000000
     0.000000    8.423550    0.000000
     0.000000    0.000000   45.000000
   Fe   Mn
 281   7
Direct configuration=     1
   0.06380256  0.03526979  0.12606734
   0.31285787  0.87057601  0.65359004
   0.18714925  0.11757563  0.78697363
   0.43766966  0.29098671  0.38989289
   0.31343154  0.70569260  0.83114924
   0.81289313  0.20568921  0.83158134
   0.18726284  0.95682493  0.83179826
   0.56282923  0.20711967  0.56477548
   0.06146208  0.03696760  0.74219797
   0.81248495  0.87109171  0.52110269
   0.18812534  0.28685526  0.74222849
   0.93749474  0.45729979  0.34646872
   0.93720355  0.29097725  0.38998658
   0.81096670  0.03893573  0.87387992
   0.18701874  0.78716726  0.60987789
   0.56251523  0.04154549  0.38999326
   0.93826874  0.95780913  0.83219497
   0.31356724  0.53849476  0.87412500
   0.68717928  0.28680561  0.74213591
   0.18752839  0.62024266  0.16880039
   0.81221894  0.20624253  0.47872993
   0.81364596  0.53731480  0.60983828
   0.31296362  0.87385822  0.43487550
   0.81245551  0.04166150  0.25780692
   0.68758935  0.95730401  0.34647142
   0.93694034  0.12011018  0.16850324
   0.93784781  0.12161314  0.52117890
   0.56288112  0.54091734  0.25775632
   0.68593530  0.78841198  0.87401181
   0.56282857  0.37052227  0.16863176
   0.43693864  0.78796050  0.74239782
   0.81280915  0.70713970  0.56484508
   0.56268741  0.86816769  0.78676047
   0.68770226  0.12108610  0.52110901
   0.81328800  0.36981548  0.65368780
   0.93743725  0.45580480  0.83151082
   0.06234596  0.20315160  0.69825942
   0.43708418  0.95357998  0.69809355
   0.31148578  0.20461311  0.83142105
   0.43826309  0.62104743  0.65374963
   0.31158041  0.53684984  0.60979875
   0.93725983  0.45701115  0.56489021
   0.68853474  0.78776338  0.74249564
   0.93856498  0.79305522  0.12602981
   0.68731021  0.79091083  0.38998193
   0.93859801  0.78717490  0.74233265
   0.06239657  0.20739472  0.34644010
   0.81209753  0.04102954  0.39004158
   0.43765149  0.11723151  0.78683985
   0.06200970  0.20910550  0.21332320
   0.06209047  0.37031517  0.16868141
   0.93770033  0.79038615  0.25784251
   0.56269701  0.20414328  0.69838697
   0.68725518  0.95327749  0.69812983
   0.43699410  0.79201457  0.12590784
   0.43725256  0.95696102  0.56483317
   0.81254846  0.36803723  0.78689402
   0.68818747  0.29048593  0.25784644
   0.18795594  0.45694818  0.56486471
   0.06275739  0.87032314  0.16865884
   0.18825616  0.28750031  0.61001832
   0.56260806  0.70720642  0.34649109
   0.31232421  0.20474105  0.69834029
   0.56128613  0.53789242  0.87401725
   0.06252367  0.70719894  0.56482752
   0.68814796  0.61686162  0.78658466
   0.31124681  0.54158875  0.39009521
   0.18774534  0.62103926  0.52110801
   0.56275616  0.87403412  0.43478131
   0.43692348  0.45711893  0.56482394
   0.43620248  0.28701393  0.74219899
   0.81245509  0.87349256  0.30188078
   0.81251860  0.70736156  0.34646969
   0.43746844  0.45561666  0.83135978
   0.68751233  0.95580889  0.47871270
   0.68759541  0.45332549  0.69808191
   0.56256761  0.87131492  0.52112437
   0.56284194  0.37038834  0.65356185
   0.81232472  0.86955812  0.65353982
   0.81260288  0.37341696  0.43468484
   0.81240773  0.54073278  0.25783781
   0.68746118  0.45553917  0.83139085
   0.18803184  0.79147162  0.12591612
   0.68757288  0.29103688  0.38987292
   0.31278809  0.37047707  0.65353387
   0.31254563  0.20723924  0.34652041
   0.81233779  0.53832418  0.74250356
   0.68712236  0.95553957  0.83155615
   0.56237328  0.87030068  0.65349408
   0.31216235  0.70721895  0.56486129
   0.31139469  0.53606441  0.12595848
   0.68771056  0.95878935  0.21335573
   0.31290079  0.20716746  0.56482638
   0.18775996  0.95607735  0.47883850
   0.68790495  0.95703093  0.56482201
   0.43819841  0.78729263  0.60988054
   0.68760721  0.61897633  0.16841620
   0.31258576  0.87372985  0.30194678
   0.31243005  0.70628126  0.47884281
   0.93695080  0.28732783  0.60998409
   0.43733978  0.62360474  0.30196993
   0.81267078  0.86991674  0.16861500
   0.56317378  0.20902240  0.21326250
   0.93757852  0.61906605  0.16845034
   0.93889485  0.78847271  0.87401181
   0.56223991  0.36814239  0.78688941
   0.06256957  0.37111409  0.52107323
   0.31230823  0.37031605  0.16872389
   0.68754866  0.12361605  0.30193575
   0.43862690  0.95560809  0.83133662
   0.18891626  0.29217479  0.12605947
   0.18797777  0.29051131  0.25792617
   0.31230893  0.37384105  0.43486228
   0.56159265  0.03474144  0.12607858
   0.43798669  0.28771262  0.60991016
   0.18762522  0.45780607  0.34655978
   0.43593024  0.29203726  0.12614266
   0.68722112  0.79055077  0.25791512
   0.43742596  0.12108370  0.52107455
   0.18853672  0.28952558  0.87421833
   0.18711805  0.12043752  0.65351556
   0.93790891  0.12056335  0.65353950
   0.31266657  0.20826438  0.21335443
   0.06241542  0.04027190  0.38989733
   0.18796736  0.11970690  0.16864636
   0.06232038  0.53566026  0.61005110
   0.93726333  0.29045700  0.25791993
   0.56344453  0.53705250  0.60977357
   0.93695405  0.95709559  0.56483423
   0.68735502  0.62390036  0.30199355
   0.93671836  0.62422824  0.43493603
   0.93686612  0.61683101  0.78649386
   0.56176476  0.70305363  0.69792118
   0.06213033  0.70836357  0.83191920
   0.93760034  0.12380102  0.30194174
   0.93858394  0.78757131  0.60986418
   0.43847670  0.79047554  0.25784483
   0.31237315  0.36874233  0.78671098
   0.43817889  0.45913155  0.21337806
   0.18725645  0.12152562  0.52118126
   0.81225911  0.70315008  0.69819835
   0.06283894  0.03729899  0.60987902
   0.56189161  0.20601285  0.83135096
   0.31248727  0.87088777  0.52112427
   0.68738834  0.29285461  0.12573358
   0.18793236  0.95899986  0.21342212
   0.68686768  0.28767493  0.60984943
   0.31358637  0.03735495  0.61008229
   0.93757631  0.11711105  0.78687970
   0.43772854  0.78845724  0.87384612
   0.81205135  0.03806755  0.74235321
   0.93697608  0.45367041  0.69804141
   0.18775959  0.62046508  0.65358719
   0.31271221  0.70305379  0.69810315
   0.93747364  0.29259075  0.12580239
   0.43722549  0.45639425  0.47880991
   0.06241230  0.70570162  0.47886889
   0.93729324  0.12439169  0.43491642
   0.43746660  0.12369425  0.30184742
   0.18709514  0.12460265  0.43489619
   0.56135818  0.03827332  0.87428978
   0.18806658  0.95695474  0.56482512
   0.68632134  0.79295444  0.12604722
   0.56095085  0.53703039  0.12589275
   0.31256007  0.04038285  0.38989074
   0.68832371  0.12013322  0.16851907
   0.81248206  0.20831988  0.21329566
   0.06250986  0.54061861  0.25771335
   0.56265355  0.70602371  0.47870473
   0.06269639  0.20703748  0.56483263
   0.56233071  0.37423097  0.30203803
   0.43742108  0.95741632  0.34649344
   0.18797047  0.95377431  0.69815524
   0.43757908  0.62030193  0.16879201
   0.93845199  0.45956521  0.21354220
   0.06354837  0.53666080  0.12585540
   0.81290029  0.37078200  0.52109781
   0.93707922  0.62445193  0.30195626
   0.31272070  0.04058770  0.25791562
   0.68865921  0.78706729  0.60995284
   0.18744017  0.45632604  0.83142338
   0.43746980  0.11998937  0.16857418
   0.31245259  0.37080407  0.52112259
   0.43766014  0.61699605  0.78669906
   0.06211948  0.04058667  0.25785456
   0.56240603  0.70709349  0.56488002
   0.93656481  0.28656126  0.74223945
   0.68704413  0.11719615  0.78677646
   0.18680437  0.45930862  0.21339203
   0.93746044  0.79120423  0.38994011
   0.68692877  0.29105662  0.87431354
   0.31257166  0.87032099  0.16880198
   0.43819492  0.45399032  0.69818899
   0.93809347  0.95755699  0.34650786
   0.68730001  0.62163881  0.52106247
   0.06258741  0.87034182  0.65354635
   0.06226965  0.86902596  0.78658673
   0.06237599  0.36940558  0.65357184
   0.68794155  0.45608499  0.47879391
   0.18682003  0.79023761  0.25782999
   0.43706832  0.12452338  0.43492034
   0.81293502  0.03582141  0.12573466
   0.93738518  0.62088611  0.52113145
   0.06233567  0.87441988  0.43530421
   0.81190658  0.53527140  0.12594432
   0.43782427  0.45732050  0.34651939
   0.81241292  0.20728809  0.34649431
   0.31258777  0.70679496  0.34643654
   0.68748404  0.12045141  0.65354394
   0.56238157  0.87371745  0.30184922
   0.06361225  0.53737790  0.74231489
   0.93716369  0.95898163  0.21337259
   0.81240304  0.70893641  0.21326676
   0.06245620  0.87368886  0.30185861
   0.18732699  0.12387898  0.30182275
   0.06242527  0.70701249  0.34646316
   0.81164573  0.03722599  0.60995991
   0.06259045  0.37397401  0.43486336
   0.56257142  0.20731277  0.34643468
   0.81284128  0.37485207  0.30211405
   0.43751245  0.95581265  0.47875636
   0.56238456  0.54088895  0.39002377
   0.06237934  0.20610825  0.47868473
   0.31324267  0.86824053  0.78656512
   0.93789745  0.95343832  0.69818156
   0.06244766  0.37352064  0.30185087
   0.68714263  0.62088887  0.65367799
   0.68786216  0.45722306  0.56484113
   0.43674190  0.95913581  0.21341679
   0.31242466  0.20614248  0.47874139
   0.43767620  0.12023688  0.65351494
   0.68765117  0.62412220  0.43484724
   0.81283166  0.20406572  0.69823697
   0.81259062  0.70610983  0.47878111
   0.81214230  0.87366348  0.43474843
   0.93707144  0.95604062  0.47886409
   0.56251372  0.20594553  0.47876149
   0.18798087  0.62418140  0.43483340
   0.31214425  0.03763969  0.74224819
   0.93754420  0.62045357  0.65356578
   0.56247262  0.70586223  0.83150289
   0.31253419  0.37358148  0.30183694
   0.56232127  0.70832538  0.21330305
   0.18774069  0.45591040  0.47880535
   0.31369546  0.03962193  0.87391342
   0.18674348  0.45375034  0.69813676
   0.81145295  0.53689731  0.87417268
   0.18762965  0.29088506  0.38990173
   0.43769301  0.62439164  0.43492788
   0.06232410  0.70833618  0.21334537
   0.56220005  0.37434262  0.43520381
   0.43793410  0.62159956  0.52117260
   0.81116653  0.70759146  0.83109469
   0.06276293  0.37006827  0.78653146
   0.43806105  0.29054402  0.87440760
   0.31324475  0.03677519  0.12576907
   0.68757447  0.12343674  0.43467634
   0.18711302  0.95762381  0.34651625
   0.06261729  0.20635907  0.83188468
   0.56260828  0.03590780  0.61021060
   0.68654681  0.45935189  0.21342776
   0.18803813  0.78688389  0.74228194
   0.18802882  0.62484234  0.30206927
   0.43693504  0.79136912  0.39009566
   0.43724865  0.29035080  0.25794995
   0.06357372  0.53797983  0.87398908
   0.56310907  0.03749061  0.74226444
   0.18593445  0.78794578  0.87388222
   0.93750018  0.45595466  0.47870736
   0.81268407  0.54085223  0.39004362
   0.81209047  0.20716817  0.56480458
   0.18700764  0.61680637  0.78655727
   0.06380776  0.54155159  0.39010170
   0.06284987  0.70334871  0.69805705
   0.31234451  0.54007161  0.25785262
   0.31245594  0.70945821  0.21325905
   0.56236962  0.87010947  0.16867180
   0.56202125  0.53848515  0.74215579
   0.68752136  0.45719682  0.34647057
   0.93600500  0.28980444  0.87413825
   0.56229295  0.04074578  0.25786616
   0.06276270  0.03692063  0.87373002
   0.18740555  0.79156198  0.39006898
   0.81222798  0.36986956  0.16751972
   0.56260926  0.37125105  0.52116741
   0.06261304  0.87113153  0.52120983
   0.81166621  0.86961632  0.78636938
   0.31231850  0.53748347  0.74250589
Direct configuration=     2
   0.06365872  0.03714039  0.12663905
   0.31341504  0.87095357  0.65440604
   0.18572836  0.11855367  0.78569806
   0.44685847  0.29177464  0.38898306
   0.31290706  0.70528150  0.83068032
   0.81127680  0.20501839  0.83220092
   0.18665166  0.95375048  0.83106406
   0.56184147  0.20955421  0.56575022
   0.05912370  0.03684009  0.74083489
   0.81657248  0.87288949  0.52081987
   0.18676636  0.28947599  0.74082536
   0.93372818  0.45580894  0.34310616
   0.92810250  0.29017798  0.38777672
   0.81048029  0.03820406  0.87631474
   0.18826011  0.78767167  0.61057160
   0.57042104  0.04402957  0.38891094
   0.93419111  0.95560090  0.83238738
   0.31530913  0.54062829  0.87663477
   0.68825280  0.28810278  0.74115050
   0.18947075  0.62167718  0.16968510
   0.81058139  0.20692669  0.47723479
   0.81178202  0.53568578  0.61052783
   0.31002214  0.87013869  0.43394322
   0.81407320  0.03957623  0.25969257
   0.69356318  0.95812283  0.34490899
   0.93726142  0.12098927  0.16869854
   0.93872452  0.11760506  0.52124749
   0.56298310  0.54211561  0.25939030
   0.68926073  0.78727872  0.87628711
   0.56216708  0.36875022  0.16923642
   0.43775865  0.78560979  0.74055219
   0.81144242  0.70581124  0.56636085
   0.56373267  0.86625962  0.78574727
   0.68507457  0.12418834  0.52152312
   0.81325651  0.36924699  0.65372295
   0.93523089  0.45785591  0.83170154
   0.06316587  0.20276704  0.69802380
   0.43672348  0.95146521  0.69726647
   0.31302731  0.20623062  0.83084676
   0.43820323  0.62305509  0.65439259
   0.31315922  0.53680380  0.61000568
   0.93674834  0.45496254  0.56634080
   0.68905862  0.78632474  0.74095786
   0.93842143  0.79473972  0.12623517
   0.68927779  0.79060517  0.38878056
   0.93858091  0.78618296  0.74091737
   0.05364691  0.20816686  0.34228518
   0.80781774  0.04315131  0.38827943
   0.43835196  0.11831216  0.78567702
   0.06251981  0.20818374  0.21421802
   0.06229121  0.36934830  0.16894867
   0.93796901  0.78959768  0.26009763
   0.56099465  0.20233711  0.69786896
   0.68601549  0.95222284  0.69808411
   0.43681703  0.79440590  0.12696674
   0.43743506  0.95814811  0.56617707
   0.81324526  0.36752886  0.78558800
   0.68889293  0.29127888  0.25918583
   0.19002190  0.45574705  0.56602012
   0.06407454  0.87160497  0.16921461
   0.18891498  0.28649867  0.61015735
   0.56729491  0.70575975  0.34486720
   0.31258931  0.20311092  0.69789916
   0.56589828  0.53957844  0.87659042
   0.06503968  0.70860619  0.56554041
   0.68818709  0.61692261  0.78533910
   0.31368731  0.54677793  0.38922451
   0.18609963  0.62359944  0.52082521
   0.56705625  0.87410426  0.43304389
   0.43846548  0.45510607  0.56593337
   0.43604174  0.28893349  0.74082516
   0.81369346  0.87145265  0.30220982
   0.81471703  0.70500052  0.34376891
   0.43947481  0.45698709  0.83135515
   0.69033342  0.95681738  0.47705182
   0.68759921  0.45502579  0.69803643
   0.56236380  0.87195787  0.52190517
   0.56356622  0.36902930  0.65356397
   0.81314220  0.87162578  0.65399306
   0.80673055  0.37386346  0.43328690
   0.81351952  0.54318978  0.26025221
   0.68907154  0.45645214  0.83224311
   0.18697001  0.79256251  0.12694650
   0.68867129  0.29059860  0.38842439
   0.31327752  0.36915889  0.65388595
   0.31191058  0.20820349  0.34366766
   0.81339174  0.53853386  0.74130187
   0.68977375  0.95530138  0.83225442
   0.56022605  0.87169609  0.65424881
   0.31277599  0.70616472  0.56621249
   0.31061991  0.53452851  0.12690249
   0.68760701  0.95870085  0.21416982
   0.31435432  0.20783408  0.56626161
   0.18172706  0.95016909  0.47834974
   0.68621427  0.95887503  0.56625224
   0.43813381  0.78732010  0.61036294
   0.68742988  0.61930566  0.16900587
   0.30997017  0.87192932  0.30093454
   0.30979161  0.70399823  0.47778780
   0.93545523  0.28646052  0.61066412
   0.43730569  0.62358648  0.30112544
   0.81324661  0.87183839  0.16913231
   0.56233840  0.20812990  0.21398612
   0.93829290  0.61949738  0.16885195
   0.93390375  0.78861387  0.87637303
   0.56330373  0.36871952  0.78542464
   0.06372870  0.37141095  0.52151236
   0.31243120  0.36952125  0.16941723
   0.69218212  0.12320335  0.30233977
   0.44054220  0.95416012  0.83111943
   0.18797082  0.28913212  0.12647808
   0.18762179  0.29070943  0.25967693
   0.31819940  0.37704043  0.43468093
   0.56085913  0.03785509  0.12614788
   0.43898568  0.28694230  0.61013283
   0.18188177  0.45907790  0.34247344
   0.43535817  0.28766627  0.12662276
   0.68906494  0.78976199  0.26015649
   0.44019598  0.12473235  0.52197285
   0.18576269  0.29026504  0.87688985
   0.18721278  0.11898726  0.65405561
   0.93794520  0.12062712  0.65384491
   0.31294383  0.20806365  0.21399864
   0.05804201  0.03515592  0.38885656
   0.18993578  0.11904299  0.16911512
   0.06181851  0.53517603  0.61074182
   0.93845627  0.29056140  0.26010680
   0.56411487  0.53531996  0.61008242
   0.93818551  0.95829126  0.56562699
   0.69190366  0.62404229  0.30197301
   0.93437235  0.62738884  0.43418350
   0.93793153  0.61706497  0.78537557
   0.56006371  0.70490955  0.69780750
   0.05899351  0.70735324  0.83128183
   0.93761493  0.12548781  0.30263936
   0.93839339  0.78699027  0.61059794
   0.43724241  0.79045056  0.25945006
   0.31177705  0.36952837  0.78533381
   0.43684516  0.45861915  0.21421418
   0.18641355  0.11835664  0.52155072
   0.81232528  0.70303031  0.69841871
   0.06227804  0.03857126  0.61071326
   0.56564956  0.20623044  0.83170354
   0.30910179  0.87015374  0.52132266
   0.68921769  0.28949471  0.12623818
   0.18792861  0.95856887  0.21412461
   0.68681901  0.28831495  0.61024030
   0.31472696  0.03894889  0.61064592
   0.93652993  0.11878076  0.78559664
   0.44128447  0.78635167  0.87632164
   0.81295795  0.03726398  0.74101537
   0.93777787  0.45500751  0.69810449
   0.18756958  0.62258575  0.65438259
   0.31340172  0.70431469  0.69776844
   0.93741461  0.28970582  0.12546396
   0.44258167  0.45544677  0.47800505
   0.06358460  0.71130278  0.47825995
   0.93254028  0.12160504  0.43371158
   0.43794334  0.12450213  0.30096907
   0.18590367  0.11858621  0.43479142
   0.56751970  0.03783665  0.87665909
   0.18845380  0.95669398  0.56573205
   0.68771622  0.79591390  0.12660967
   0.56049590  0.53585265  0.12655252
   0.31501461  0.03576729  0.38912236
   0.68753139  0.12064589  0.16889332
   0.81260492  0.20920156  0.21399108
   0.06245574  0.54176782  0.25987554
   0.56312208  0.70082936  0.47726080
   0.06367662  0.20782167  0.56616731
   0.56532200  0.37609642  0.30190935
   0.43909409  0.95756285  0.34516413
   0.18867442  0.95212799  0.69762128
   0.43464858  0.62133402  0.16977994
   0.93725191  0.45821126  0.21444642
   0.06326988  0.53558707  0.12633077
   0.80868957  0.37126180  0.52108794
   0.93581848  0.62238807  0.30252118
   0.31079912  0.03980337  0.25946064
   0.68731796  0.78655447  0.61042174
   0.18600608  0.45859858  0.83079261
   0.43591790  0.11920522  0.16898899
   0.31553550  0.37206877  0.52149777
   0.43803669  0.61734597  0.78552762
   0.06242611  0.03935569  0.25994219
   0.56066815  0.70595159  0.56634214
   0.93722561  0.28848680  0.74123551
   0.68872601  0.11852694  0.78576664
   0.18788887  0.45924667  0.21428480
   0.93659645  0.79169975  0.38890517
   0.68975035  0.29110710  0.87668675
   0.31219554  0.87234556  0.16962317
   0.43758752  0.45614412  0.69825548
   0.93547630  0.95920646  0.34350778
   0.68608275  0.61726365  0.52081604
   0.06348380  0.87079789  0.65424996
   0.06201147  0.86645011  0.78559314
   0.06112144  0.36886963  0.65400706
   0.68315351  0.45514721  0.47718402
   0.18611499  0.79034701  0.25979828
   0.44373700  0.12674681  0.43363014
   0.81324458  0.03712282  0.12597487
   0.94053272  0.62455436  0.52051045
   0.06161803  0.87184002  0.43475536
   0.81354212  0.53276657  0.12640201
   0.43985635  0.45711357  0.34500111
   0.81544886  0.20903414  0.34444304
   0.30826538  0.70769813  0.34466452
   0.68682379  0.12133599  0.65365554
   0.56673642  0.87152587  0.30110009
   0.06308907  0.53722490  0.74097367
   0.93738546  0.95877375  0.21422998
   0.81258052  0.70952986  0.21444335
   0.05961752  0.87296505  0.30176116
   0.18212785  0.12505784  0.30164082
   0.05952504  0.70850551  0.34368777
   0.81091981  0.04005796  0.61056461
   0.05854498  0.37607632  0.43435805
   0.56786811  0.20838067  0.34538740
   0.81667093  0.37664234  0.30294417
   0.43602880  0.95525103  0.47774707
   0.56901523  0.53814030  0.38908994
   0.06147955  0.20297590  0.47809720
   0.31175634  0.86584919  0.78562433
   0.93863027  0.95290579  0.69805209
   0.05867833  0.37425773  0.30250450
   0.68646986  0.61970015  0.65396016
   0.68485687  0.45455973  0.56622470
   0.43648214  0.95972425  0.21400194
   0.31345633  0.20764631  0.47813283
   0.43813018  0.11886405  0.65400768
   0.68816106  0.62115364  0.43355839
   0.81336041  0.20277667  0.69798470
   0.81366988  0.70541690  0.47711687
   0.81113488  0.87404614  0.43351314
   0.94156109  0.95133046  0.47800742
   0.56415942  0.21405406  0.47770044
   0.18686749  0.62923873  0.43431821
   0.31186489  0.03819447  0.74051242
   0.93820844  0.61962672  0.65403579
   0.56584434  0.70506011  0.83181741
   0.30951315  0.37593098  0.30110161
   0.56184332  0.70846859  0.21416797
   0.18951289  0.46089788  0.47807960
   0.31433531  0.03799952  0.87665157
   0.18678569  0.45552031  0.69833980
   0.80970367  0.53881619  0.87633442
   0.18744988  0.29147767  0.38922886
   0.44038686  0.62246322  0.43436307
   0.06338445  0.70885583  0.21434208
   0.56660359  0.37449330  0.43432711
   0.43739038  0.61804373  0.52099548
   0.81151606  0.70705657  0.83200280
   0.06158074  0.37051190  0.78494311
   0.44293900  0.29204737  0.87686455
   0.31353652  0.03941395  0.12651181
   0.68720351  0.12541145  0.43278532
   0.18101197  0.95383701  0.34422799
   0.05915682  0.20813762  0.83153288
   0.56275652  0.03783009  0.61081487
   0.68773274  0.45770563  0.21429142
   0.18648735  0.78363287  0.74080660
   0.18473745  0.62349393  0.30156870
   0.43807479  0.79073800  0.38930998
   0.43547561  0.29123061  0.25927783
   0.05888064  0.53931770  0.87631456
   0.56498608  0.03673233  0.74073098
   0.18401705  0.78720127  0.87653747
   0.93519354  0.45895853  0.47770140
   0.80794036  0.53866176  0.38805365
   0.81055265  0.20735196  0.56634431
   0.18558654  0.61823137  0.78529274
   0.06078825  0.54705283  0.38921403
   0.06375577  0.70342898  0.69796927
   0.31118336  0.54080089  0.25971188
   0.31182819  0.70867920  0.21395373
   0.56100958  0.87282094  0.16932867
   0.56294702  0.53928770  0.74083713
   0.69461152  0.45641287  0.34475060
   0.93132927  0.28879338  0.87661594
   0.56218203  0.03932718  0.25932079
   0.05600449  0.03602741  0.87759584
   0.18474544  0.79148393  0.38789435
   0.81316425  0.36720620  0.16804096
   0.56285376  0.37120528  0.52048471
   0.06188530  0.87076432  0.51974379
   0.81254284  0.86868618  0.78509955
   0.31036624  0.53764840  0.74055954
Direct configuration=     3
   0.06368633  0.03678134  0.12652932
   0.31330810  0.87088110  0.65424941
   0.18600108  0.11836594  0.78594290
   0.44509476  0.29162341  0.38915770
   0.31300773  0.70536041  0.83077033
   0.81158704  0.20514715  0.83208199
   0.18676897  0.95434059  0.83120498
   0.56203106  0.20908692  0.56556313
   0.05957253  0.03686456  0.74109652
   0.81578791  0.87254442  0.52087415
   0.18702720  0.28897296  0.74109468
   0.93445114  0.45609510  0.34375157
   0.92984936  0.29033139  0.38820088
   0.81057365  0.03834450  0.87584740
   0.18802184  0.78757486  0.61043845
   0.56890359  0.04355277  0.38911868
   0.93497378  0.95602475  0.83235045
   0.31497479  0.54021878  0.87615304
   0.68804675  0.28785380  0.74133964
   0.18909793  0.62140184  0.16951529
   0.81089570  0.20679537  0.47752177
   0.81213979  0.53599845  0.61039547
   0.31058673  0.87085262  0.43412217
   0.81376270  0.03997648  0.25933064
   0.69241655  0.95796566  0.34520889
   0.93719979  0.12082054  0.16866106
   0.93855624  0.11837437  0.52123433
   0.56296353  0.54188562  0.25907667
   0.68862244  0.78749624  0.87585039
   0.56229405  0.36909035  0.16912036
   0.43760126  0.78606099  0.74090645
   0.81170476  0.70606623  0.56606991
   0.56353204  0.86662586  0.78594174
   0.68557894  0.12359290  0.52144364
   0.81326256  0.36935611  0.65371621
   0.93565438  0.45746222  0.83166493
   0.06300850  0.20284085  0.69806902
   0.43679271  0.95187112  0.69742522
   0.31273142  0.20592015  0.83095699
   0.43821472  0.62266974  0.65426918
   0.31285618  0.53681264  0.60996596
   0.93684651  0.45535575  0.56606237
   0.68895806  0.78660087  0.74125302
   0.93844898  0.79441640  0.12619575
   0.68890013  0.79066384  0.38901115
   0.93858419  0.78637335  0.74118902
   0.05532632  0.20801866  0.34308268
   0.80863921  0.04274405  0.38861766
   0.43821751  0.11810474  0.78590021
   0.06242190  0.20836066  0.21404627
   0.06225268  0.36953388  0.16889737
   0.93791744  0.78974902  0.25966478
   0.56132140  0.20268379  0.69796839
   0.68625344  0.95242527  0.69809289
   0.43685102  0.79394691  0.12676349
   0.43740003  0.95792026  0.56591912
   0.81311152  0.36762644  0.78583868
   0.68875752  0.29112668  0.25892874
   0.18962536  0.45597760  0.56579835
   0.06382173  0.87135894  0.16910793
   0.18878853  0.28669093  0.61013066
   0.56639531  0.70603743  0.34517889
   0.31253842  0.20342381  0.69798383
   0.56501302  0.53925482  0.87609652
   0.06455675  0.70833608  0.56540357
   0.68817958  0.61691091  0.78557817
   0.31321888  0.54578192  0.38939163
   0.18641551  0.62310804  0.52087949
   0.56623089  0.87409080  0.43337738
   0.43816950  0.45549242  0.56572043
   0.43607259  0.28856505  0.74108885
   0.81345576  0.87184419  0.30214666
   0.81429506  0.70545370  0.34428730
   0.43908971  0.45672405  0.83135604
   0.68979194  0.95662381  0.47737061
   0.68759848  0.45469943  0.69804516
   0.56240292  0.87183446  0.52175531
   0.56342720  0.36929016  0.65356356
   0.81298529  0.87122891  0.65390606
   0.80785769  0.37377776  0.43355523
   0.81330612  0.54271819  0.25978879
   0.68876244  0.45627690  0.83207952
   0.18717382  0.79235312  0.12674873
   0.68846046  0.29068272  0.38870242
   0.31318358  0.36941190  0.65381837
   0.31203248  0.20801841  0.34421522
   0.81318944  0.53849361  0.74153252
   0.68926484  0.95534710  0.83212039
   0.56063819  0.87142825  0.65410395
   0.31265821  0.70636707  0.56595314
   0.31076862  0.53482331  0.12672130
   0.68762688  0.95871783  0.21401356
   0.31407533  0.20770613  0.56598613
   0.18288502  0.95130313  0.47844355
   0.68653878  0.95852107  0.56597772
   0.43814621  0.78731483  0.61027035
   0.68746392  0.61924244  0.16889269
   0.31047221  0.87227491  0.30112883
   0.31029804  0.70443644  0.47799030
   0.93574229  0.28662699  0.61053359
   0.43731223  0.62358998  0.30128754
   0.81313608  0.87146955  0.16903302
   0.56249874  0.20830120  0.21384723
   0.93815578  0.61941459  0.16877486
   0.93486175  0.78858678  0.87591982
   0.56309954  0.36860875  0.78570579
   0.06350621  0.37135397  0.52142807
   0.31240760  0.36967381  0.16928415
   0.69129277  0.12328256  0.30226222
   0.44017458  0.95443805  0.83116112
   0.18815229  0.28971613  0.12639773
   0.18769012  0.29067141  0.25934089
   0.31706878  0.37642634  0.43471574
   0.56099993  0.03725746  0.12613458
   0.43879393  0.28709016  0.61009009
   0.18298418  0.45883379  0.34325778
   0.43546798  0.28850525  0.12653061
   0.68871104  0.78991339  0.25972628
   0.43966430  0.12403202  0.52180043
   0.18629514  0.29012310  0.87637707
   0.18719460  0.11926563  0.65395195
   0.93793823  0.12061488  0.65378629
   0.31289062  0.20810218  0.21387499
   0.05888145  0.03613788  0.38905633
   0.18955796  0.11917043  0.16902515
   0.06191484  0.53526898  0.61060924
   0.93822729  0.29054136  0.25968705
   0.56398620  0.53565251  0.61002314
   0.93794914  0.95806176  0.56547482
   0.69103059  0.62401505  0.30197695
   0.93482264  0.62678219  0.43432794
   0.93772704  0.61702006  0.78559021
   0.56039021  0.70455332  0.69782932
   0.05959560  0.70754717  0.83140417
   0.93761213  0.12516404  0.30250546
   0.93842996  0.78710180  0.61045710
   0.43747932  0.79045535  0.25914195
   0.31189147  0.36937750  0.78559814
   0.43710116  0.45871750  0.21405370
   0.18657534  0.11896489  0.52147980
   0.81231258  0.70305330  0.69837641
   0.06238570  0.03832706  0.61055313
   0.56492825  0.20618868  0.83163587
   0.30975160  0.87029463  0.52128458
   0.68886656  0.29013961  0.12614132
   0.18792933  0.95865160  0.21398978
   0.68682835  0.28819210  0.61016528
   0.31450804  0.03864295  0.61053774
   0.93673078  0.11846027  0.78584291
   0.44060194  0.78675582  0.87584649
   0.81278394  0.03741822  0.74127215
   0.93762398  0.45475086  0.69809239
   0.18760605  0.62217871  0.65422992
   0.31326938  0.70407268  0.69783269
   0.93742594  0.29025955  0.12552892
   0.44155360  0.45562863  0.47815954
   0.06335959  0.71022769  0.47837683
   0.93345257  0.12213991  0.43394284
   0.43785183  0.12434706  0.30113766
   0.18613236  0.11974101  0.43481153
   0.56633705  0.03792046  0.87620433
   0.18837948  0.95674403  0.56555797
   0.68744848  0.79534586  0.12650171
   0.56058322  0.53607870  0.12642588
   0.31454348  0.03665321  0.38926984
   0.68768346  0.12054749  0.16882148
   0.81258134  0.20903233  0.21385760
   0.06246613  0.54154724  0.25946053
   0.56303215  0.70182637  0.47753795
   0.06348847  0.20767115  0.56591113
   0.56474785  0.37573837  0.30193405
   0.43877297  0.95753472  0.34541928
   0.18853931  0.95244399  0.69772377
   0.43521106  0.62113592  0.16959031
   0.93748226  0.45847114  0.21427286
   0.06332333  0.53579316  0.12623953
   0.80949778  0.37116970  0.52108984
   0.93606046  0.62278421  0.30241275
   0.31116795  0.03995392  0.25916409
   0.68757540  0.78665290  0.61033174
   0.18628134  0.45816239  0.83091368
   0.43621578  0.11935573  0.16890937
   0.31494376  0.37182602  0.52142576
   0.43796441  0.61727880  0.78575247
   0.06236726  0.03959197  0.25954148
   0.56100172  0.70617077  0.56606150
   0.93709877  0.28811721  0.74142821
   0.68840319  0.11827150  0.78596046
   0.18768071  0.45925856  0.21411344
   0.93676229  0.79160464  0.38910381
   0.68920877  0.29109741  0.87623123
   0.31226773  0.87195696  0.16946555
   0.43770410  0.45573072  0.69824272
   0.93597864  0.95888986  0.34408362
   0.68631639  0.61810343  0.52086334
   0.06331175  0.87071036  0.65411491
   0.06206103  0.86694452  0.78578385
   0.06136224  0.36897250  0.65392352
   0.68407254  0.45532721  0.47749302
   0.18625032  0.79032601  0.25942049
   0.44245700  0.12632004  0.43387778
   0.81318517  0.03687303  0.12592876
   0.93992858  0.62385027  0.52062965
   0.06175578  0.87233520  0.43486071
   0.81322820  0.53324735  0.12631416
   0.43946631  0.45715329  0.34529254