       N       E                     dE             d eps       ncg     rms          rms(c)
DAV:   1     0.292395100122E+05    0.29240E+05   -0.86597E+05 27944   0.197E+03
DAV:   2     0.119849286342E+04   -0.28041E+05   -0.27428E+05 27720   0.605E+02
DAV:   3    -0.194089852270E+04   -0.31394E+04   -0.27275E+04 39102   0.280E+02
DAV:   4    -0.261087436572E+04   -0.66998E+03   -0.61015E+03 50876   0.977E+01
DAV:   5    -0.273121697650E+04   -0.12034E+03   -0.11271E+03 48286   0.399E+01    0.203E+02
RMM:   6    -0.573604277972E+04   -0.30048E+04   -0.11929E+04 48333   0.245E+02    0.651E+02
RMM:   7    -0.371408149911E+04    0.20220E+04   -0.36714E+03 44191   0.101E+02    0.393E+02
RMM:   8    -0.980138108491E+04   -0.60873E+04   -0.17443E+04 46655   0.341E+02    0.112E+03
RMM:   9    -0.121081029328E+05   -0.23067E+04   -0.16512E+04 48841   0.184E+02    0.910E+02
RMM:  10    -0.109387069876E+05    0.11694E+04   -0.90473E+03 47497   0.178E+02    0.816E+02
RMM:  11    -0.928412182529E+04    0.16546E+04   -0.16226E+04 42184   0.284E+02    0.781E+02
RMM:  12    -0.920981704847E+04    0.74305E+02   -0.89002E+03 47093   0.159E+02    0.681E+02
RMM:  13    -0.806606690170E+04    0.11438E+04   -0.78486E+03 34543   0.199E+02    0.599E+02
RMM:  14    -0.579438392689E+04    0.22717E+04   -0.78881E+03 33013   0.212E+02    0.500E+02
RMM:  15    -0.463969318006E+04    0.11547E+04   -0.52093E+03 27987   0.157E+02    0.408E+02
RMM:  16    -0.390601855642E+04    0.73367E+03   -0.26997E+03 38913   0.130E+02    0.291E+02
RMM:  17    -0.360861495479E+04    0.29740E+03   -0.21247E+03 47954   0.616E+01    0.236E+02
RMM:  18    -0.391463493494E+04   -0.30602E+03   -0.15558E+03 41026   0.635E+01    0.283E+02
RMM:  19    -0.344415643069E+04    0.47048E+03   -0.14456E+03 46778   0.485E+01    0.233E+02
RMM:  20    -0.330971267263E+04    0.13444E+03   -0.84317E+02 41679   0.360E+01    0.208E+02
RMM:  21    -0.297859516635E+04    0.33112E+03   -0.10604E+03 43594   0.345E+01    0.207E+02
RMM:  22    -0.264678838090E+04    0.33181E+03   -0.96860E+02 41915   0.298E+01    0.190E+02
RMM:  23    -0.246526562172E+04    0.18152E+03   -0.18498E+02 29041   0.243E+01    0.135E+02
RMM:  24    -0.244167044870E+04    0.23595E+02   -0.27822E+02 39881   0.161E+01    0.121E+02
RMM:  25    -0.244271590843E+04   -0.10455E+01   -0.21017E+02 35699   0.166E+01    0.134E+02
RMM:  26    -0.239754582745E+04    0.45170E+02   -0.16984E+02 41118   0.101E+01    0.109E+02
RMM:  27    -0.238484890866E+04    0.12697E+02   -0.80531E+01 43646   0.573E+00    0.994E+01
RMM:  28    -0.238023180695E+04    0.46171E+01   -0.22453E+01 28093   0.963E+00    0.925E+01
RMM:  29    -0.246141761621E+04   -0.81186E+02   -0.69296E+01 35673   0.763E+00    0.131E+02
RMM:  30    -0.243677162337E+04    0.24646E+02   -0.38520E+01 42214   0.426E+00    0.125E+02
RMM:  31    -0.244371040967E+04   -0.69388E+01   -0.98116E+00 30439   0.453E+00    0.135E+02
RMM:  32    -0.240045621153E+04    0.43254E+02   -0.18488E+01 32801   0.582E+00    0.109E+02
RMM:  33    -0.235444181338E+04    0.46014E+02   -0.19820E+01 37116   0.516E+00    0.774E+01
RMM:  34    -0.234349900144E+04    0.10943E+02   -0.16502E+01 34223   0.499E+00    0.647E+01
RMM:  35    -0.233943451913E+04    0.40645E+01   -0.57834E+00 31442   0.391E+00    0.564E+01
RMM:  36    -0.233634202520E+04    0.30925E+01   -0.54660E+00 29758   0.436E+00    0.539E+01
RMM:  37    -0.233850986407E+04   -0.21678E+01   -0.66145E+00 34501   0.353E+00    0.560E+01
RMM:  38    -0.232772624198E+04    0.10784E+02   -0.80856E+00 34742   0.354E+00    0.432E+01
RMM:  39    -0.232570255291E+04    0.20237E+01   -0.69485E+00 34986   0.334E+00    0.400E+01
RMM:  40    -0.232701147019E+04   -0.13089E+01   -0.30242E+00 28908   0.354E+00    0.409E+01
RMM:  41    -0.232649522098E+04    0.51625E+00   -0.30643E+00 36469   0.212E+00    0.417E+01
RMM:  42    -0.232592121359E+04    0.57401E+00   -0.31293E+00 36586   0.201E+00    0.418E+01
RMM:  43    -0.232499550889E+04    0.92570E+00   -0.30269E+00 33455   0.219E+00    0.403E+01
RMM:  44    -0.232507100677E+04   -0.75498E-01   -0.26784E+00 41190   0.145E+00    0.401E+01
RMM:  45    -0.232427831622E+04    0.79269E+00   -0.96237E-01 38772   0.879E-01    0.380E+01
RMM:  46    -0.232391841698E+04    0.35990E+00   -0.63727E-01 31330   0.124E+00    0.371E+01
RMM:  47    -0.232488883198E+04   -0.97041E+00   -0.22118E+00 31352   0.234E+00    0.415E+01
RMM:  48    -0.232383490397E+04    0.10539E+01   -0.20155E+00 41438   0.126E+00    0.390E+01
RMM:  49    -0.232365133576E+04    0.18357E+00   -0.77796E-01 37009   0.868E-01    0.382E+01
RMM:  50    -0.232250588236E+04    0.11455E+01   -0.52568E-01 33515   0.929E-01    0.355E+01
RMM:  51    -0.237582217934E+04   -0.53316E+02   -0.39795E+01 29447   0.117E+01    0.100E+02
RMM:  52    -0.237136725050E+04    0.44549E+01   -0.21544E+01 30008   0.817E+00    0.100E+02
RMM:  53    -0.235334300997E+04    0.18024E+02   -0.90151E+00 28769   0.600E+00    0.791E+01
RMM:  54    -0.235619394785E+04   -0.28509E+01   -0.70604E+00 28819   0.605E+00    0.836E+01
RMM:  55    -0.234931369440E+04    0.68803E+01   -0.93230E+00 30034   0.549E+00    0.764E+01
RMM:  56    -0.235979215511E+04   -0.10478E+02   -0.30737E+01 30910   0.888E+00    0.824E+01
RMM:  57    -0.233746266166E+04    0.22329E+02   -0.29575E+01 40377   0.552E+00    0.579E+01
RMM:  58    -0.234244124149E+04   -0.49786E+01   -0.12028E+01 30240   0.596E+00    0.647E+01
RMM:  59    -0.234265064640E+04   -0.20940E+00   -0.14137E+01 28219   0.765E+00    0.644E+01
RMM:  60    -0.233290662966E+04    0.97440E+01   -0.97994E+00 27745   0.707E+00    0.501E+01
RMM:  61    -0.232694641426E+04    0.59602E+01   -0.17579E+01 31155   0.654E+00    0.406E+01
RMM:  62    -0.232492663104E+04    0.20198E+01   -0.13438E+01 38203   0.413E+00    0.360E+01
RMM:  63    -0.232482873485E+04    0.97896E-01   -0.56519E+00 38903   0.248E+00    0.358E+01
RMM:  64    -0.232690539817E+04   -0.20767E+01   -0.20189E+00 29317   0.268E+00    0.407E+01
RMM:  65    -0.232663821468E+04    0.26718E+00   -0.18158E+00 29098   0.260E+00    0.395E+01
RMM:  66    -0.232347927395E+04    0.31589E+01   -0.28506E+00 27877   0.342E+00    0.304E+01
RMM:  67    -0.232677555961E+04   -0.32963E+01   -0.27668E+00 28389   0.370E+00    0.390E+01
RMM:  68    -0.232709187044E+04   -0.31631E+00   -0.29633E+00 29615   0.307E+00    0.399E+01
RMM:  69    -0.232471914648E+04    0.23727E+01   -0.16405E+00 29342   0.239E+00    0.343E+01
RMM:  70    -0.232231436300E+04    0.24048E+01   -0.12680E+00 33414   0.147E+00    0.271E+01
RMM:  71    -0.233278893175E+04   -0.10475E+02   -0.15823E+01 34130   0.487E+00    0.491E+01
RMM:  72    -0.232224223270E+04    0.10547E+02   -0.30913E+00 28078   0.368E+00    0.268E+01
RMM:  73    -0.232019677415E+04    0.20455E+01   -0.14928E+00 30358   0.206E+00    0.192E+01
RMM:  74    -0.232016649025E+04    0.30284E-01   -0.96881E-01 28851   0.188E+00    0.188E+01
RMM:  75    -0.232014108945E+04    0.25401E-01   -0.81727E-01 28074   0.198E+00    0.185E+01
RMM:  76    -0.232063134521E+04   -0.49026E+00   -0.36980E+00 30269   0.313E+00    0.205E+01
RMM:  77    -0.231922528321E+04    0.14061E+01   -0.14900E+00 27867   0.289E+00    0.130E+01
RMM:  78    -0.231892409237E+04    0.30119E+00   -0.94589E-01 31012   0.156E+00    0.112E+01
RMM:  79    -0.231852129559E+04    0.40280E+00   -0.50688E-01 31291   0.114E+00    0.739E+00
RMM:  80    -0.231844201163E+04    0.79284E-01   -0.22439E-01 30351   0.807E-01    0.663E+00
RMM:  81    -0.231851610420E+04   -0.74093E-01   -0.35463E-01 31772   0.902E-01    0.751E+00
RMM:  82    -0.231839764795E+04    0.11846E+00   -0.11376E-01 28128   0.744E-01    0.573E+00
RMM:  83    -0.231841218802E+04   -0.14540E-01   -0.14431E-01 30448   0.640E-01    0.594E+00
RMM:  84    -0.231831542818E+04    0.96760E-01   -0.71069E-02 28617   0.555E-01    0.390E+00
RMM:  85    -0.231828038451E+04    0.35044E-01   -0.76661E-02 31345   0.430E-01    0.282E+00
RMM:  86    -0.231827153758E+04    0.88469E-02   -0.84404E-02 30054   0.494E-01    0.239E+00
RMM:  87    -0.231825291150E+04    0.18626E-01   -0.36634E-02 28583   0.410E-01    0.145E+00
RMM:  88    -0.231825340417E+04   -0.49267E-03   -0.55313E-02 38641   0.211E-01    0.130E+00
RMM:  89    -0.231825383096E+04   -0.42679E-03   -0.17263E-02 32933   0.184E-01    0.138E+00
RMM:  90    -0.231825213009E+04    0.17009E-02   -0.91028E-03 32392   0.137E-01    0.122E+00
RMM:  91    -0.231825408781E+04   -0.19577E-02   -0.13807E-02 31896   0.179E-01    0.129E+00
RMM:  92    -0.231825065947E+04    0.34283E-02   -0.51721E-03 28282   0.168E-01    0.105E+00
RMM:  93    -0.231824998983E+04    0.66964E-03   -0.39910E-03 32381   0.927E-02    0.949E-01
RMM:  94    -0.231824871973E+04    0.12701E-02   -0.28037E-03 30759   0.885E-02    0.768E-01
RMM:  95    -0.231824801887E+04    0.70085E-03   -0.19536E-03 29571   0.834E-02    0.657E-01
RMM:  96    -0.231824844294E+04   -0.42407E-03   -0.38848E-03 30524   0.104E-01    0.682E-01
RMM:  97    -0.231824691517E+04    0.15278E-02   -0.13213E-03 28529   0.817E-02    0.431E-01
RMM:  98    -0.231824706436E+04   -0.14918E-03   -0.14319E-03 34676   0.456E-02    0.452E-01
RMM:  99    -0.231824691931E+04    0.14505E-03   -0.53396E-04 30062   0.406E-02    0.418E-01
RMM: 100    -0.231824682316E+04    0.96151E-04   -0.51454E-04 29651   0.419E-02
   1 F= -.23182468E+04 E0= -.23154798E+04  d E =-.231825E+04
       N       E                     dE             d eps       ncg     rms          rms(c)
DAV:   1    -0.231837510887E+04   -0.12819E+00   -0.30893E+01 29036   0.582E+00    0.101E+00
RMM:   2    -0.232473382759E+04   -0.63587E+01   -0.10271E+00 29375   0.180E+00    0.333E+01
RMM:   3    -0.231925722363E+04    0.54766E+01   -0.35277E-01 34870   0.852E-01    0.117E+01
RMM:   4    -0.232037262556E+04   -0.11154E+01   -0.21869E-01 30021   0.775E-01    0.192E+01
RMM:   5    -0.231869937798E+04    0.16732E+01   -0.16558E-01 27844   0.843E-01    0.671E+00
RMM:   6    -0.231869137705E+04    0.80009E-02   -0.19514E-01 30797   0.723E-01    0.727E+00
RMM:   7    -0.231917423908E+04   -0.48286E+00   -0.44150E-01 33400   0.885E-01    0.116E+01
RMM:   8    -0.231852787113E+04    0.64637E+00   -0.15166E-01 27734   0.836E-01    0.451E+00
RMM:   9    -0.231844437382E+04    0.83497E-01   -0.53335E-02 28192   0.454E-01    0.261E+00
RMM:  10    -0.231843374581E+04    0.10628E-01   -0.54337E-02 31799   0.331E-01    0.221E+00
RMM:  11    -0.231841910873E+04    0.14637E-01   -0.34647E-02 29950   0.313E-01    0.146E+00
RMM:  12    -0.231841120866E+04    0.79001E-02   -0.13713E-02 28395   0.243E-01    0.909E-01
RMM:  13    -0.231840909203E+04    0.21166E-02   -0.94626E-03 31565   0.145E-01    0.663E-01
RMM:  14    -0.231840881414E+04    0.27789E-03   -0.75848E-03 35072   0.107E-01    0.573E-01
RMM:  15    -0.231840786087E+04    0.95327E-03   -0.29655E-03 31010   0.875E-02    0.384E-01
RMM:  16    -0.231840741056E+04    0.45031E-03   -0.14622E-03 30757   0.637E-02    0.240E-01
RMM:  17    -0.231840756187E+04   -0.15132E-03   -0.17740E-03 35684   0.516E-02    0.264E-01
RMM:  18    -0.231840744410E+04    0.11778E-03   -0.68496E-04 30823   0.434E-02    0.205E-01
RMM:  19    -0.231840737946E+04    0.64641E-04   -0.39760E-04 30892   0.336E-02    0.168E-01
RMM:  20    -0.231840735870E+04    0.20760E-04   -0.50298E-04 36816   0.257E-02    0.140E-01
RMM:  21    -0.231840728489E+04    0.73806E-04   -0.16955E-04 30805   0.218E-02    0.767E-02
RMM:  22    -0.231840728291E+04    0.19814E-05   -0.16009E-04 38860   0.122E-02    0.582E-02
RMM:  23    -0.231840728698E+04   -0.40718E-05   -0.84417E-05 36282   0.103E-02    0.572E-02
RMM:  24    -0.231840727906E+04    0.79177E-05   -0.32124E-05 31052   0.858E-03    0.373E-02
RMM:  25    -0.231840727958E+04   -0.51348E-06   -0.29814E-05 33622   0.544E-03    0.324E-02
RMM:  26    -0.231840727850E+04    0.10729E-05   -0.15761E-05 29919   0.563E-03    0.251E-02
RMM:  27    -0.231840727719E+04    0.13165E-05   -0.64351E-06 22030   0.445E-03    0.192E-02
RMM:  28    -0.231840727714E+04    0.44005E-07   -0.47745E-06 20605   0.250E-03
   2 F= -.23184073E+04 E0= -.23156346E+04  d E =-.160454E+00
       N       E                     dE             d eps       ncg     rms          rms(c)
DAV:   1    -0.231833566221E+04    0.71615E-01   -0.27757E+02 27720   0.175E+01    0.334E+00
RMM:   2    -0.233011663072E+04   -0.11781E+02   -0.77162E+00 27841   0.588E+00    0.462E+01
RMM:   3    -0.233153902774E+04   -0.14224E+01   -0.37251E+00 38676   0.230E+00    0.463E+01
RMM:   4    -0.233830499742E+04   -0.67660E+01   -0.16575E+00 28922   0.248E+00    0.585E+01
RMM:   5    -0.232002646275E+04    0.18279E+02   -0.10979E+00 30270   0.185E+00    0.130E+01
RMM:   6    -0.232382272257E+04   -0.37963E+01   -0.23765E+00 30473   0.244E+00    0.300E+01
RMM:   7    -0.232125744183E+04    0.25653E+01   -0.13944E+00 29134   0.214E+00    0.215E+01
RMM:   8    -0.232013147852E+04    0.11260E+01   -0.78884E-01 27779   0.186E+00    0.162E+01
RMM:   9    -0.231897682825E+04    0.11547E+01   -0.36231E-01 27833   0.136E+00    0.670E+00
RMM:  10    -0.231915035465E+04   -0.17353E+00   -0.52859E-01 29685   0.126E+00    0.925E+00
RMM:  11    -0.231886627913E+04    0.28408E+00   -0.28344E-01 28404   0.106E+00    0.542E+00
RMM:  12    -0.231872568308E+04    0.14060E+00   -0.12364E-01 27872   0.800E-01    0.222E+00
RMM:  13    -0.231871776655E+04    0.79165E-02   -0.10510E-01 33400   0.407E-01    0.184E+00
RMM:  14    -0.231872742153E+04   -0.96550E-02   -0.81282E-02 36006   0.332E-01    0.211E+00
RMM:  15    -0.231871751595E+04    0.99056E-02   -0.29883E-02 29661   0.298E-01    0.159E+00
RMM:  16    -0.231870816130E+04    0.93546E-02   -0.14959E-02 30434   0.208E-01    0.888E-01
RMM:  17    -0.231870962151E+04   -0.14602E-02   -0.21557E-02 34646   0.193E-01    0.936E-01
RMM:  18    -0.231870765670E+04    0.19648E-02   -0.85176E-03 29735   0.168E-01    0.716E-01
RMM:  19    -0.231870772678E+04   -0.70085E-04   -0.76688E-03 37149   0.943E-02    0.683E-01
RMM:  20    -0.231870717188E+04    0.55490E-03   -0.33187E-03 33566   0.775E-02    0.586E-01
RMM:  21    -0.231870634488E+04    0.82701E-03   -0.17979E-03 31027   0.693E-02    0.410E-01
RMM:  22    -0.231870619512E+04    0.14976E-03   -0.17161E-03 38448   0.444E-02    0.342E-01
RMM:  23    -0.231870593749E+04    0.25762E-03   -0.89592E-04 31873   0.453E-02    0.245E-01
RMM:  24    -0.231870591026E+04    0.27230E-04   -0.35836E-04 29830   0.373E-02    0.240E-01
RMM:  25    -0.231870590640E+04    0.38648E-05   -0.42404E-04 37214   0.200E-02    0.225E-01
RMM:  26    -0.231870576979E+04    0.13661E-03   -0.19821E-04 35843   0.159E-02    0.147E-01
RMM:  27    -0.231870572555E+04    0.44234E-04   -0.95709E-05 34034   0.120E-02    0.111E-01
RMM:  28    -0.231870569556E+04    0.29996E-04   -0.81246E-05 37392   0.104E-02    0.744E-02
RMM:  29    -0.231870567346E+04    0.22091E-04   -0.32476E-05 30789   0.919E-03    0.370E-02
RMM:  30    -0.231870567405E+04   -0.58432E-06   -0.32900E-05 35567   0.598E-03    0.340E-02
RMM:  31    -0.231870567265E+04    0.14004E-05   -0.15366E-05 28440   0.513E-03    0.265E-02
RMM:  32    -0.231870567028E+04    0.23706E-05   -0.59830E-06 21396   0.404E-03    0.150E-02
RMM:  33    -0.231870567015E+04    0.13239E-06   -0.39398E-06 20111   0.226E-03
   3 F= -.23187057E+04 E0= -.23159182E+04  d E =-.458847E+00
       N       E                     dE             d eps       ncg     rms          rms(c)
DAV:   1    -0.231650931962E+04    0.21964E+01   -0.11091E+03 27720   0.354E+01    0.738E+00
RMM:   2    -0.237396605842E+04   -0.57457E+02   -0.42693E+01 27884   0.132E+01    0.996E+01
RMM:   3    -0.239612596933E+04   -0.22160E+02   -0.19126E+01 38594   0.512E+00    0.110E+02
RMM:   4    -0.241312634156E+04   -0.17000E+02   -0.11589E+01 29529   0.596E+00    0.123E+02
RMM:   5    -0.232359440021E+04    0.89532E+02   -0.54814E+00 29605   0.429E+00    0.279E+01
RMM:   6    -0.233677284187E+04   -0.13178E+02   -0.91808E+00 34815   0.398E+00    0.568E+01
RMM:   7    -0.232592713160E+04    0.10846E+02   -0.59498E+00 28367   0.465E+00    0.355E+01
RMM:   8    -0.232395526312E+04    0.19719E+01   -0.37018E+00 27813   0.421E+00    0.315E+01
RMM:   9    -0.232137755329E+04    0.25777E+01   -0.17766E+00 27852   0.292E+00    0.228E+01
RMM:  10    -0.232087466146E+04    0.50289E+00   -0.19280E+00 27927   0.284E+00    0.211E+01
RMM:  11    -0.231906300390E+04    0.18117E+01   -0.94353E-01 27782   0.224E+00    0.103E+01
RMM:  12    -0.231857408044E+04    0.48892E+00   -0.44620E-01 28027   0.145E+00    0.462E+00
RMM:  13    -0.231861221350E+04   -0.38133E-01   -0.58283E-01 33668   0.979E-01    0.521E+00
RMM:  14    -0.231865470466E+04   -0.42491E-01   -0.35041E-01 32051   0.857E-01    0.561E+00
RMM:  15    -0.231860511616E+04    0.49589E-01   -0.20787E-01 31733   0.664E-01    0.470E+00
RMM:  16    -0.231857009355E+04    0.35023E-01   -0.15037E-01 36895   0.428E-01    0.378E+00
RMM:  17    -0.231851589303E+04    0.54201E-01   -0.68916E-02 32995   0.364E-01    0.205E+00
RMM:  18    -0.231850996261E+04    0.59304E-02   -0.25953E-02 28787   0.329E-01    0.192E+00
RMM:  19    -0.231850790505E+04    0.20576E-02   -0.32854E-02 36895   0.211E-01    0.172E+00
RMM:  20    -0.231850228604E+04    0.56190E-02   -0.90315E-03 29612   0.181E-01    0.136E+00
RMM:  21    -0.231850095978E+04    0.13263E-02   -0.11019E-02 32143   0.158E-01    0.117E+00
RMM:  22    -0.231850000726E+04    0.95252E-03   -0.76871E-03 29697   0.159E-01    0.104E+00
RMM:  23    -0.231849921009E+04    0.79717E-03   -0.44425E-03 29790   0.127E-01    0.933E-01
RMM:  24    -0.231849766967E+04    0.15404E-02   -0.61448E-03 33046   0.108E-01    0.758E-01
RMM:  25    -0.231849582129E+04    0.18484E-02   -0.25607E-03 30391   0.870E-02    0.492E-01
RMM:  26    -0.231849567432E+04    0.14697E-03   -0.26107E-03 37988   0.522E-02    0.431E-01
RMM:  27    -0.231849516506E+04    0.50927E-03   -0.12141E-03 33152   0.469E-02    0.289E-01
RMM:  28    -0.231849497545E+04    0.18961E-03   -0.47219E-04 30400   0.388E-02    0.232E-01
RMM:  29    -0.231849504293E+04   -0.67477E-04   -0.61669E-04 37598   0.272E-02    0.247E-01
RMM:  30    -0.231849495382E+04    0.89111E-04   -0.22776E-04 30899   0.247E-02    0.200E-01
RMM:  31    -0.231849491701E+04    0.36802E-04   -0.17523E-04 34401   0.169E-02    0.176E-01
RMM:  32    -0.231849481286E+04    0.10416E-03   -0.12688E-04 35376   0.145E-02    0.927E-02
RMM:  33    -0.231849478232E+04    0.30538E-04   -0.48836E-05 30017   0.128E-02    0.605E-02
RMM:  34    -0.231849478607E+04   -0.37474E-05   -0.63217E-05 38082   0.838E-03    0.602E-02
RMM:  35    -0.231849478214E+04    0.39267E-05   -0.30975E-05 31466   0.826E-03    0.517E-02
RMM:  36    -0.231849477607E+04    0.60678E-05   -0.17793E-05 30132   0.582E-03    0.354E-02
RMM:  37    -0.231849477459E+04    0.14798E-05   -0.11101E-05 25310   0.349E-03    0.281E-02
RMM:  38    -0.231849477286E+04    0.17288E-05   -0.45936E-06 20386   0.397E-03    0.208E-02
RMM:  39    -0.231849477245E+04    0.41109E-06   -0.24698E-06 17832   0.302E-03
   4 F= -.23184948E+04 E0= -.23156859E+04  d E =-.247949E+00
       N       E                     dE             d eps       ncg     rms          rms(c)
DAV:   1    -0.231791364905E+04    0.58112E+00   -0.53891E+02 27720   0.245E+01    0.455E+00
RMM:   2    -0.233381777733E+04   -0.15904E+02   -0.15186E+01 27830   0.784E+00    0.519E+01
RMM:   3    -0.233984752877E+04   -0.60298E+01   -0.57608E+00 39430   0.267E+00    0.622E+01
RMM:   4    -0.234519313392E+04   -0.53456E+01   -0.26309E+00 28968   0.299E+00    0.683E+01
RMM:   5    -0.232243812818E+04    0.22755E+02   -0.18553E+00 28743   0.258E+00    0.239E+01
RMM:   6    -0.232299424305E+04   -0.55611E+00   -0.34134E+00 30535   0.296E+00    0.274E+01
RMM:   7    -0.232133539268E+04    0.16589E+01   -0.20604E+00 28000   0.289E+00    0.218E+01
RMM:   8    -0.232032316227E+04    0.10122E+01   -0.89259E-01 27865   0.207E+00    0.171E+01
RMM:   9    -0.232025109616E+04    0.72066E-01   -0.63372E-01 28772   0.140E+00    0.168E+01
RMM:  10    -0.231931194346E+04    0.93915E+00   -0.66301E-01 27772   0.170E+00    0.100E+01
RMM:  11    -0.231908443929E+04    0.22750E+00   -0.55554E-01 29007   0.140E+00    0.742E+00
RMM:  12    -0.231888444402E+04    0.20000E+00   -0.22737E-01 27895   0.107E+00    0.509E+00
RMM:  13    -0.231884263377E+04    0.41810E-01   -0.16989E-01 30450   0.678E-01    0.419E+00
RMM:  14    -0.231882299865E+04    0.19635E-01   -0.16364E-01 32682   0.571E-01    0.369E+00
RMM:  15    -0.231876017439E+04    0.62824E-01   -0.48451E-02 27834   0.481E-01    0.133E+00
RMM:  16    -0.231875755605E+04    0.26183E-02   -0.45538E-02 33517   0.279E-01    0.107E+00
RMM:  17    -0.231876275647E+04   -0.52004E-02   -0.36107E-02 37699   0.213E-01    0.137E+00
RMM:  18    -0.231876059194E+04    0.21645E-02   -0.11489E-02 30678   0.177E-01    0.121E+00
RMM:  19    -0.231875893494E+04    0.16570E-02   -0.11893E-02 37159   0.122E-01    0.101E+00
RMM:  20    -0.231875546592E+04    0.34690E-02   -0.52909E-03 30918   0.118E-01    0.543E-01
RMM:  21    -0.231875481907E+04    0.64685E-03   -0.28133E-03 30425   0.927E-02    0.415E-01
RMM:  22    -0.231875544192E+04   -0.62285E-03   -0.37307E-03 34062   0.809E-02    0.511E-01
RMM:  23    -0.231875453969E+04    0.90222E-03   -0.11336E-03 29349   0.652E-02    0.297E-01
RMM:  24    -0.231875442225E+04    0.11745E-03   -0.11274E-03 35697   0.372E-02    0.231E-01
RMM:  25    -0.231875430531E+04    0.11693E-03   -0.69928E-04 35388   0.323E-02    0.166E-01
RMM:  26    -0.231875422575E+04    0.79560E-04   -0.26303E-04 31134   0.261E-02    0.112E-01
RMM:  27    -0.231875423123E+04   -0.54762E-05   -0.28094E-04 41388   0.139E-02    0.983E-02
RMM:  28    -0.231875420136E+04    0.29867E-04   -0.96715E-05 35546   0.108E-02    0.536E-02
RMM:  29    -0.231875419365E+04    0.77058E-05   -0.43601E-05 32968   0.815E-03    0.333E-02
RMM:  30    -0.231875419642E+04   -0.27634E-05   -0.39297E-05 36246   0.674E-03    0.356E-02
RMM:  31    -0.231875419333E+04    0.30872E-05   -0.15230E-05 29097   0.625E-03    0.260E-02
RMM:  32    -0.231875419247E+04    0.86211E-06   -0.96657E-06 24375   0.393E-03
   5 F= -.23187542E+04 E0= -.23159590E+04  d E =-.507369E+00
