 288 288   0   0
  0.1280206E+02  0.9726678E-09  0.8423550E-09  0.4500000E-08  0.2500000E-15
  1.000000000000000E-004
  CAR 
 unknown system                          
      6.81569090     -6.01889014  301      4.29752116      1.00000000
     -6.019  0.0000E+00  0.0000E+00
     -5.976  0.0000E+00  0.0000E+00
     -5.933  0.0000E+00  0.0000E+00
     -5.891  0.0000E+00  0.0000E+00
     -5.848  0.0000E+00  0.0000E+00
     -5.805  0.0000E+00  0.0000E+00
     -5.762  0.0000E+00  0.0000E+00
     -5.719  0.0000E+00  0.0000E+00
     -5.677  0.0000E+00  0.0000E+00
     -5.634  0.0000E+00  0.0000E+00
     -5.591  0.0000E+00  0.0000E+00
     -5.548  0.0000E+00  0.0000E+00
     -5.506  0.0000E+00  0.0000E+00
     -5.463  0.0000E+00  0.0000E+00
     -5.420  0.0000E+00  0.0000E+00
     -5.377  0.1622E-15  0.6939E-17
     -5.334  0.4185E-14  0.1860E-15
     -5.292  0.8992E-13  0.4033E-14
     -5.249  0.1642E-11  0.7428E-13
     -5.206  0.2554E-10  0.1167E-11
     -5.163  0.3384E-09  0.1564E-10
     -5.120  0.3821E-08  0.1791E-09
     -5.078  0.3678E-07  0.1753E-08
     -5.035  0.3021E-06  0.1468E-07
     -4.992  0.2118E-05  0.1053E-06
     -4.949  0.1270E-04  0.6484E-06
     -4.907  0.6517E-04  0.3437E-05
     -4.864  0.2872E-03  0.1572E-04
     -4.821  0.1090E-02  0.6237E-04
     -4.778  0.3581E-02  0.2156E-03
     -4.735  0.1024E-01  0.6539E-03
     -4.693  0.2572E-01  0.1754E-02
     -4.650  0.5726E-01  0.4204E-02
     -4.607  0.1142E+00  0.9091E-02
     -4.564  0.2065E+00  0.1793E-01
     -4.522  0.3420E+00  0.3256E-01
     -4.479  0.5229E+00  0.5493E-01
     -4.436  0.7429E+00  0.8672E-01
     -4.393  0.9855E+00  0.1289E+00
     -4.350  0.1226E+01  0.1813E+00
     -4.308  0.1438E+01  0.2429E+00
     -4.265  0.1602E+01  0.3114E+00
     -4.222  0.1710E+01  0.3845E+00
     -4.179  0.1774E+01  0.4604E+00
     -4.136  0.1825E+01  0.5385E+00
     -4.094  0.1901E+01  0.6198E+00
     -4.051  0.2037E+01  0.7070E+00
     -4.008  0.2243E+01  0.8029E+00
     -3.965  0.2503E+01  0.9100E+00
     -3.923  0.2776E+01  0.1029E+01
     -3.880  0.3008E+01  0.1157E+01
     -3.837  0.3151E+01  0.1292E+01
     -3.794  0.3189E+01  0.1429E+01
     -3.751  0.3142E+01  0.1563E+01
     -3.709  0.3061E+01  0.1694E+01
     -3.666  0.3011E+01  0.1823E+01
     -3.623  0.3043E+01  0.1953E+01
     -3.580  0.3176E+01  0.2089E+01
     -3.538  0.3391E+01  0.2234E+01
     -3.495  0.3636E+01  0.2390E+01
     -3.452  0.3856E+01  0.2555E+01
     -3.409  0.4013E+01  0.2726E+01
     -3.366  0.4098E+01  0.2902E+01
     -3.324  0.4129E+01  0.3078E+01
     -3.281  0.4137E+01  0.3255E+01
     -3.238  0.4154E+01  0.3433E+01
     -3.195  0.4205E+01  0.3613E+01
     -3.153  0.4302E+01  0.3797E+01
     -3.110  0.4446E+01  0.3987E+01
     -3.067  0.4626E+01  0.4185E+01
     -3.024  0.4824E+01  0.4391E+01
     -2.981  0.5015E+01  0.4606E+01
     -2.939  0.5172E+01  0.4827E+01
     -2.896  0.5282E+01  0.5053E+01
     -2.853  0.5348E+01  0.5282E+01
     -2.810  0.5395E+01  0.5513E+01
     -2.767  0.5454E+01  0.5746E+01
     -2.725  0.5542E+01  0.5983E+01
     -2.682  0.5645E+01  0.6225E+01
     -2.639  0.5709E+01  0.6469E+01
     -2.596  0.5678E+01  0.6712E+01
     -2.554  0.5552E+01  0.6949E+01
     -2.511  0.5409E+01  0.7181E+01
     -2.468  0.5388E+01  0.7411E+01
     -2.425  0.5605E+01  0.7651E+01
     -2.382  0.6082E+01  0.7911E+01
     -2.340  0.6709E+01  0.8198E+01
     -2.297  0.7287E+01  0.8510E+01
     -2.254  0.7617E+01  0.8836E+01
     -2.211  0.7606E+01  0.9161E+01
     -2.169  0.7321E+01  0.9474E+01
     -2.126  0.6958E+01  0.9772E+01
     -2.083  0.6752E+01  0.1006E+02
     -2.040  0.6854E+01  0.1035E+02
     -1.997  0.7267E+01  0.1067E+02
     -1.955  0.7855E+01  0.1100E+02
     -1.912  0.8418E+01  0.1136E+02
     -1.869  0.8787E+01  0.1174E+02
     -1.826  0.8897E+01  0.1212E+02
     -1.783  0.8814E+01  0.1249E+02
     -1.741  0.8684E+01  0.1287E+02
     -1.698  0.8645E+01  0.1324E+02
     -1.655  0.8755E+01  0.1361E+02
     -1.612  0.8985E+01  0.1400E+02
     -1.570  0.9266E+01  0.1439E+02
     -1.527  0.9550E+01  0.1480E+02
     -1.484  0.9822E+01  0.1522E+02
     -1.441  0.1008E+02  0.1565E+02
     -1.398  0.1030E+02  0.1609E+02
     -1.356  0.1044E+02  0.1654E+02
     -1.313  0.1052E+02  0.1699E+02
     -1.270  0.1069E+02  0.1745E+02
     -1.227  0.1115E+02  0.1792E+02
     -1.185  0.1201E+02  0.1844E+02
     -1.142  0.1319E+02  0.1900E+02
     -1.099  0.1440E+02  0.1962E+02
     -1.056  0.1526E+02  0.2027E+02
     -1.013  0.1560E+02  0.2094E+02
     -0.971  0.1555E+02  0.2160E+02
     -0.928  0.1549E+02  0.2227E+02
     -0.885  0.1586E+02  0.2294E+02
     -0.842  0.1685E+02  0.2367E+02
     -0.799  0.1844E+02  0.2445E+02
     -0.757  0.2049E+02  0.2533E+02
     -0.714  0.2304E+02  0.2632E+02
     -0.671  0.2626E+02  0.2744E+02
     -0.628  0.3035E+02  0.2874E+02
     -0.586  0.3515E+02  0.3024E+02
     -0.543  0.4013E+02  0.3196E+02
     -0.500  0.4461E+02  0.3387E+02
     -0.457  0.4812E+02  0.3593E+02
     -0.414  0.5067E+02  0.3809E+02
     -0.372  0.5256E+02  0.4034E+02
     -0.329  0.5411E+02  0.4266E+02
     -0.286  0.5542E+02  0.4503E+02
     -0.243  0.5641E+02  0.4744E+02
     -0.201  0.5695E+02  0.4988E+02
     -0.158  0.5707E+02  0.5232E+02
     -0.115  0.5695E+02  0.5476E+02
     -0.072  0.5685E+02  0.5719E+02
     -0.029  0.5706E+02  0.5963E+02
      0.013  0.5782E+02  0.6210E+02
      0.056  0.5928E+02  0.6464E+02
      0.099  0.6148E+02  0.6727E+02
      0.142  0.6436E+02  0.7002E+02
      0.184  0.6776E+02  0.7292E+02
      0.227  0.7148E+02  0.7598E+02
      0.270  0.7523E+02  0.7920E+02
      0.313  0.7870E+02  0.8257E+02
      0.356  0.8162E+02  0.8606E+02
      0.398  0.8384E+02  0.8965E+02
      0.441  0.8544E+02  0.9330E+02
      0.484  0.8653E+02  0.9700E+02
      0.527  0.8716E+02  0.1007E+03
      0.570  0.8731E+02  0.1045E+03
      0.612  0.8698E+02  0.1082E+03
      0.655  0.8625E+02  0.1119E+03
      0.698  0.8517E+02  0.1155E+03
      0.741  0.8374E+02  0.1191E+03
      0.783  0.8195E+02  0.1226E+03
      0.826  0.7990E+02  0.1260E+03
      0.869  0.7794E+02  0.1294E+03
      0.912  0.7647E+02  0.1326E+03
      0.955  0.7575E+02  0.1359E+03
      0.997  0.7575E+02  0.1391E+03
      1.040  0.7609E+02  0.1424E+03
      1.083  0.7634E+02  0.1456E+03
      1.126  0.7619E+02  0.1489E+03
      1.168  0.7560E+02  0.1521E+03
      1.211  0.7476E+02  0.1553E+03
      1.254  0.7392E+02  0.1585E+03
      1.297  0.7319E+02  0.1616E+03
      1.340  0.7254E+02  0.1647E+03
      1.382  0.7177E+02  0.1678E+03
      1.425  0.7065E+02  0.1708E+03
      1.468  0.6912E+02  0.1738E+03
      1.511  0.6744E+02  0.1767E+03
      1.554  0.6614E+02  0.1795E+03
      1.596  0.6581E+02  0.1823E+03
      1.639  0.6678E+02  0.1852E+03
      1.682  0.6895E+02  0.1881E+03
      1.725  0.7188E+02  0.1912E+03
      1.767  0.7506E+02  0.1944E+03
      1.810  0.7817E+02  0.1977E+03
      1.853  0.8104E+02  0.2012E+03
      1.896  0.8364E+02  0.2048E+03
      1.939  0.8595E+02  0.2085E+03
      1.981  0.8800E+02  0.2122E+03
      2.024  0.8985E+02  0.2161E+03
      2.067  0.9154E+02  0.2200E+03
      2.110  0.9301E+02  0.2240E+03
      2.152  0.9420E+02  0.2280E+03
      2.195  0.9524E+02  0.2321E+03
      2.238  0.9646E+02  0.2362E+03
      2.281  0.9831E+02  0.2404E+03
      2.324  0.1011E+03  0.2447E+03
      2.366  0.1049E+03  0.2492E+03
      2.409  0.1093E+03  0.2539E+03
      2.452  0.1137E+03  0.2588E+03
      2.495  0.1176E+03  0.2638E+03
      2.537  0.1207E+03  0.2690E+03
      2.580  0.1231E+03  0.2742E+03
      2.623  0.1251E+03  0.2796E+03
      2.666  0.1270E+03  0.2850E+03
      2.709  0.1289E+03  0.2905E+03
      2.751  0.1311E+03  0.2961E+03
      2.794  0.1337E+03  0.3019E+03
      2.837  0.1367E+03  0.3077E+03
      2.880  0.1396E+03  0.3137E+03
      2.923  0.1418E+03  0.3198E+03
      2.965  0.1422E+03  0.3258E+03
      3.008  0.1401E+03  0.3318E+03
      3.051  0.1350E+03  0.3376E+03
      3.094  0.1276E+03  0.3431E+03
      3.136  0.1187E+03  0.3481E+03
      3.179  0.1098E+03  0.3528E+03
      3.222  0.1017E+03  0.3572E+03
      3.265  0.9533E+02  0.3613E+03
      3.308  0.9074E+02  0.3652E+03
      3.350  0.8773E+02  0.3689E+03
      3.393  0.8591E+02  0.3726E+03
      3.436  0.8488E+02  0.3762E+03
      3.479  0.8426E+02  0.3798E+03
      3.521  0.8371E+02  0.3834E+03
      3.564  0.8307E+02  0.3870E+03
      3.607  0.8251E+02  0.3905E+03
      3.650  0.8249E+02  0.3940E+03
      3.693  0.8357E+02  0.3976E+03
      3.735  0.8606E+02  0.4013E+03
      3.778  0.8982E+02  0.4051E+03
      3.821  0.9427E+02  0.4091E+03
      3.864  0.9872E+02  0.4134E+03
      3.907  0.1026E+03  0.4178E+03
      3.949  0.1057E+03  0.4223E+03
      3.992  0.1077E+03  0.4269E+03
      4.035  0.1088E+03  0.4315E+03
      4.078  0.1088E+03  0.4362E+03
      4.120  0.1081E+03  0.4408E+03
      4.163  0.1069E+03  0.4454E+03
      4.206  0.1056E+03  0.4499E+03
      4.249  0.1043E+03  0.4544E+03
      4.292  0.1031E+03  0.4588E+03
      4.334  0.1022E+03  0.4632E+03
      4.377  0.1016E+03  0.4675E+03
      4.420  0.1014E+03  0.4718E+03
      4.463  0.1012E+03  0.4762E+03
      4.505  0.1007E+03  0.4805E+03
      4.548  0.9963E+02  0.4847E+03
      4.591  0.9829E+02  0.4890E+03
      4.634  0.9718E+02  0.4931E+03
      4.677  0.9688E+02  0.4973E+03
      4.719  0.9770E+02  0.5014E+03
      4.762  0.9959E+02  0.5057E+03
      4.805  0.1022E+03  0.5101E+03
      4.848  0.1050E+03  0.5146E+03
      4.891  0.1074E+03  0.5191E+03
      4.933  0.1089E+03  0.5238E+03
      4.976  0.1091E+03  0.5285E+03
      5.019  0.1077E+03  0.5331E+03
      5.062  0.1038E+03  0.5375E+03
      5.104  0.9660E+02  0.5417E+03
      5.147  0.8553E+02  0.5453E+03
      5.190  0.7092E+02  0.5484E+03
      5.233  0.5430E+02  0.5507E+03
      5.276  0.3792E+02  0.5523E+03
      5.318  0.2392E+02  0.5533E+03
      5.361  0.1354E+02  0.5539E+03
      5.404  0.6836E+01  0.5542E+03
      5.447  0.3067E+01  0.5543E+03
      5.489  0.1219E+01  0.5544E+03
      5.532  0.4285E+00  0.5544E+03
      5.575  0.1331E+00  0.5544E+03
      5.618  0.3647E-01  0.5544E+03
      5.661  0.8818E-02  0.5544E+03
      5.703  0.1879E-02  0.5544E+03
      5.746  0.3523E-03  0.5544E+03
      5.789  0.5801E-04  0.5544E+03
      5.832  0.8366E-05  0.5544E+03
      5.874  0.1053E-05  0.5544E+03
      5.917  0.1154E-06  0.5544E+03
      5.960  0.1097E-07  0.5544E+03
      6.003  0.9018E-09  0.5544E+03
      6.046  0.6391E-10  0.5544E+03
      6.088  0.3895E-11  0.5544E+03
      6.131  0.2028E-12  0.5544E+03
      6.174  0.8629E-14  0.5544E+03
      6.217  0.3244E-15  0.5544E+03
      6.260  0.0000E+00  0.5544E+03
      6.302  0.0000E+00  0.5544E+03
      6.345  0.0000E+00  0.5544E+03
      6.388  0.0000E+00  0.5544E+03
      6.431  0.0000E+00  0.5544E+03
      6.473  0.0000E+00  0.5544E+03
      6.516  0.0000E+00  0.5544E+03
      6.559  0.0000E+00  0.5544E+03
      6.602  0.0000E+00  0.5544E+03
      6.645  0.0000E+00  0.5544E+03
      6.687  0.0000E+00  0.5544E+03
      6.730  0.0000E+00  0.5544E+03
      6.773  0.0000E+00  0.5544E+03
      6.816  0.0000E+00  0.5544E+03
