unknown system                          
           1
     9.726678    0.000000    0.000000
     0.000000    8.423550    0.000000
     0.000000    0.000000   45.000000
   Fe   Mn
 281   7
Direct configuration=     1
   0.05342860  0.70142997  0.21133886
   0.31808507  0.72384626  0.87611869
   0.68773938  0.95813807  0.61136233
   0.43787875  0.45818571  0.61145024
   0.43991404  0.28809343  0.25547324
   0.05868590  0.38846693  0.83338198
   0.30854032  0.88767706  0.83349197
   0.44710192  0.62605489  0.70020121
   0.06024967  0.21252142  0.74481615
   0.17866962  0.45115834  0.21145305
   0.56792240  0.21054259  0.47750773
   0.06654376  0.87503428  0.56687723
   0.56822446  0.22387802  0.87608297
   0.80889610  0.52852958  0.12401284
   0.42960383  0.95086831  0.21144990
   0.56650747  0.37507578  0.56686158
   0.81216885  0.04186900  0.38856075
   0.68168936  0.78905533  0.52248694
   0.44302257  0.46068214  0.47751053
   0.43417422  0.96241718  0.74454691
   0.44160862  0.62496245  0.56686180
   0.57179892  0.87611725  0.70043069
   0.31025223  0.02850352  0.12400592
   0.69029681  0.95938329  0.34418258
   0.68816846  0.78203961  0.12427763
   0.05251907  0.37383284  0.29970735
   0.68943810  0.46742546  0.87589222
   0.42857859  0.45145144  0.21146761
   0.80850078  0.37511411  0.43312479
   0.56302567  0.70822717  0.61152436
   0.55971794  0.54059867  0.65582283
   0.93344178  0.12499013  0.43307896
   0.56493622  0.53804216  0.25541668
   0.69026148  0.45931813  0.34415950
   0.19122173  0.61183803  0.16637217
   0.19529853  0.79927768  0.78869687
   0.44728221  0.12600470  0.70022907
   0.92763750  0.62358930  0.29967495
   0.31747849  0.22313640  0.87606152
   0.31655749  0.87472156  0.56682125
   0.81731101  0.22354572  0.87611491
   0.80961695  0.54085670  0.65578266
   0.55799107  0.52739997  0.12382388
   0.57002160  0.04941534  0.78882078
   0.19000382  0.28821264  0.25544864
   0.80846934  0.87499393  0.43308388
   0.57233657  0.37610979  0.70026065
   0.05874307  0.02786582  0.12408378
   0.30963628  0.54067849  0.65582735
   0.56516492  0.20934861  0.34410977
   0.18766143  0.95815552  0.61135776
   0.30271097  0.37394634  0.29976096
   0.43454928  0.79046731  0.65585641
   0.19601157  0.29827246  0.78863499
   0.06705276  0.36315739  0.16665126
   0.69711451  0.62622804  0.70034926
   0.31206925  0.54178326  0.38857438
   0.06782083  0.72281482  0.87612856
   0.93364384  0.63760454  0.83367084
   0.32012481  0.54936476  0.78879860
   0.30421130  0.20102408  0.21132157
   0.06799645  0.71071153  0.47747271
   0.55317894  0.20118011  0.21132018
   0.31036904  0.21157176  0.74460496
   0.07214474  0.37631422  0.70035649
   0.18326251  0.63755703  0.83351463
   0.07014431  0.04910217  0.78886314
   0.44159515  0.12497714  0.56691222
   0.93466114  0.29074278  0.65581274
   0.80368398  0.20128113  0.21129319
   0.92951536  0.95094773  0.21152654
   0.94153014  0.62502686  0.56686370
   0.80818130  0.38772943  0.83348825
   0.19722471  0.62597529  0.70015917
   0.80855066  0.88766042  0.83352261
   0.68477143  0.29061344  0.65590096
   0.31261607  0.20795011  0.61135152
   0.43495912  0.46257488  0.74470713
   0.43677496  0.79156060  0.38847372
   0.68495480  0.96256233  0.74454585
   0.80337500  0.70128336  0.21128943
   0.81315080  0.70832144  0.61152699
   0.43725733  0.78289639  0.12422653
   0.31008681  0.71180198  0.74453340
   0.32101807  0.04919095  0.78870966
   0.81159564  0.54156304  0.38840348
   0.68238668  0.28827997  0.52234942
   0.69578818  0.79885463  0.78873925
   0.18995111  0.78786157  0.25543622
   0.69139132  0.11177355  0.16656612
   0.69259981  0.96055493  0.47749375
   0.94036983  0.95943887  0.34412858
   0.80687020  0.03890052  0.52251765
   0.68342416  0.62500427  0.43312430
   0.44030872  0.45940041  0.34418426
   0.81089911  0.21140616  0.74457250
   0.43941825  0.96753459  0.87588735
   0.56656881  0.87475066  0.56685251
   0.81093329  0.02821360  0.12394139
   0.42765960  0.62386289  0.29970349
   0.81693729  0.72292590  0.87619639
   0.68761833  0.45799069  0.61136876
   0.55857840  0.38760097  0.83329255
   0.80281637  0.37357327  0.29962976
   0.18697208  0.29175598  0.38845624
   0.82047445  0.54920580  0.78883055
   0.18220951  0.78894426  0.52255685
   0.30272208  0.87408540  0.29975454
   0.17821943  0.95118207  0.21143229
   0.18479814  0.46228128  0.74481420
   0.43239986  0.28848036  0.52234593
   0.06514935  0.70915071  0.34401554
   0.18472430  0.79061184  0.65580548
   0.44573836  0.79885356  0.78870694
   0.68328355  0.12498992  0.43308350
   0.93203779  0.78844716  0.52236866
   0.69136774  0.61257840  0.16668296
   0.81524611  0.70935281  0.34409004
   0.93462814  0.46252231  0.74492774
   0.19035393  0.45937008  0.34417444
   0.57051163  0.54941176  0.78884260
   0.56600862  0.36349193  0.16660047
   0.56520197  0.70942517  0.34411692
   0.55255586  0.37376389  0.29972387
   0.18929281  0.46740416  0.87589574
   0.19131714  0.11182218  0.16658264
   0.44512041  0.29866459  0.78866879
   0.68993969  0.78800526  0.25543799
   0.93358514  0.13760467  0.83351963
   0.44275341  0.96072699  0.47748193
   0.56762143  0.72418078  0.87608467
   0.19269650  0.46078909  0.47747579
   0.93472594  0.28226309  0.12423926
   0.31224833  0.04190931  0.38860645
   0.05975884  0.04055971  0.65590190
   0.55845290  0.37494977  0.43311686
   0.68445779  0.46257874  0.74492108
   0.56046773  0.21241386  0.74459929
   0.94719312  0.12617848  0.70029034
   0.55968781  0.04063641  0.65579313
   0.55684824  0.53906820  0.52252974
   0.17767593  0.12395432  0.29971916
   0.44038877  0.11031204  0.16652334
   0.67764487  0.62375060  0.29962748
   0.92766299  0.12393550  0.29982352
   0.81658168  0.37501448  0.56687411
   0.05266335  0.87399510  0.29975421
   0.19161653  0.62487318  0.56688864
   0.94553590  0.79946564  0.78871258
   0.30832977  0.38750315  0.83346824
   0.93927561  0.46812358  0.87589578
   0.43366358  0.63786616  0.83347791
   0.06511170  0.20918322  0.34400764
   0.18955967  0.96741547  0.87603669
   0.93527338  0.78253595  0.12408088
   0.68691370  0.79161472  0.38851626
   0.93469460  0.79068104  0.65582513
   0.94060522  0.11088900  0.16659058
   0.43494733  0.29068426  0.65596177
   0.05381608  0.20159159  0.21128623
   0.67853277  0.95165066  0.21143059
   0.17761643  0.62372171  0.29961442
   0.82215207  0.87626129  0.70037152
   0.94706014  0.62638007  0.70037051
   0.19718055  0.12599608  0.70015307
   0.94298236  0.46076533  0.47744994
   0.81274288  0.20806470  0.61138379
   0.18338794  0.62506742  0.43313640
   0.42771169  0.12383920  0.29963291
   0.67778774  0.12381292  0.29968876
   0.56204955  0.54178777  0.38851582
   0.81508255  0.20923037  0.34401845
   0.43929311  0.46753316  0.87578429
   0.55865369  0.88754109  0.83331161
   0.31786832  0.21057141  0.47747020
   0.19271882  0.96051519  0.47750094
   0.05841930  0.88760235  0.83347599
   0.05683842  0.53892448  0.52247113
   0.94279080  0.96055171  0.47745225
   0.06284842  0.70819054  0.61149412
   0.55708091  0.03844987  0.52237655
   0.69577976  0.29874060  0.78869456
   0.81676356  0.36177576  0.16674122
   0.43345712  0.12499016  0.43307827
   0.06781794  0.21065474  0.47746662
   0.30971077  0.04071062  0.65581743
   0.43177608  0.78892244  0.52247610
   0.18357419  0.13763569  0.83353926
   0.18598316  0.28263440  0.12421866
   0.94028605  0.45943197  0.34419424
   0.56655647  0.86220801  0.16646159
   0.30291024  0.70078704  0.21144201
   0.94097236  0.61151516  0.16667043
   0.18778285  0.45811156  0.61139192
   0.07226733  0.87619107  0.70017161
   0.05964803  0.54062091  0.65580578
   0.30958935  0.52751605  0.12384077
   0.93680848  0.79160202  0.38849566
   0.94587294  0.29811794  0.78865055
   0.18457685  0.29058530  0.65585319
   0.93757565  0.95801038  0.61137076
   0.81103629  0.71139159  0.74461916
   0.69004979  0.28789788  0.25545166
   0.05979543  0.71197833  0.74489353
   0.67846243  0.45095489  0.21132643
   0.81798717  0.21089175  0.47758651
   0.56774151  0.71057253  0.47745500
   0.06730905  0.86355922  0.16655620
   0.93225520  0.28823757  0.52245157
   0.68457361  0.79054342  0.65581927
   0.05827477  0.87471704  0.43312540
   0.06779316  0.22282667  0.87605318
   0.80960876  0.04056897  0.65584143
   0.56074631  0.02866466  0.12406419
   0.30838283  0.37490838  0.43307601
   0.31652837  0.37490717  0.56685580
   0.31785115  0.71059502  0.47741976
   0.05713483  0.03839187  0.52245104
   0.32221170  0.87635266  0.70038274
   0.06495419  0.53760723  0.25533971
   0.68342829  0.13768165  0.83349990
   0.81483233  0.03765016  0.25540596
   0.18355013  0.12502184  0.43311821
   0.69731980  0.12640764  0.70034051
   0.18234125  0.28838767  0.52236016
   0.43999984  0.78808153  0.25542055
   0.81461381  0.53785222  0.25550585
   0.06273225  0.20813789  0.61135321
   0.18650916  0.79137589  0.38841435
   0.30711775  0.53846252  0.52245153
   0.82203700  0.37617779  0.70012002
   0.68700278  0.29174902  0.38850008
   0.19166615  0.12503015  0.56688358
   0.68969010  0.96830132  0.87609838
   0.69157418  0.12500886  0.56688658
   0.44027178  0.95923049  0.34418409
   0.18403897  0.96252221  0.74453387
   0.94013664  0.78797789  0.25544893
   0.55848631  0.87501194  0.43312251
   0.30838543  0.87498216  0.43309901
   0.80715293  0.53924028  0.52255763
   0.92855538  0.45123821  0.21136399
   0.31457667  0.53808589  0.25549789
   0.56231595  0.04202732  0.38864512
   0.93785589  0.45815060  0.61148603
   0.06210043  0.04180452  0.38855600
   0.06198276  0.54161701  0.38846729
   0.43688239  0.29158449  0.38849791
   0.69292574  0.46070994  0.47745399
   0.06657104  0.37490270  0.56686124
   0.55370129  0.70136518  0.21143920
   0.93998643  0.28801172  0.25544619
   0.81993403  0.04944141  0.78891535
   0.19030941  0.95933661  0.34412108
   0.55271729  0.87393900  0.29980742
   0.05835625  0.37509807  0.43310466
   0.31523854  0.70937730  0.34416950
   0.31515689  0.20932717  0.34413027
   0.94176266  0.12504885  0.56676233
   0.43786583  0.95836101  0.61148440
   0.56480443  0.03763181  0.25540624
   0.18703093  0.78365776  0.12430263
   0.06502561  0.03725918  0.25526113
   0.69160556  0.62482304  0.56688414
   0.05689759  0.52656259  0.12424439
   0.30698959  0.03849393  0.52235810
   0.68681530  0.28182066  0.12431042
   0.81776779  0.71078180  0.47746794
   0.43353868  0.13775252  0.83345300
   0.32230904  0.37614592  0.70022187
   0.68358702  0.63781848  0.83348470
   0.56038907  0.71153886  0.74459241
   0.93721666  0.29188155  0.38861223
   0.93968052  0.96812434  0.87610367
   0.56267265  0.20789516  0.61131355
   0.81661077  0.87503467  0.56687585
   0.80266363  0.87389574  0.29973397
   0.31495784  0.03766705  0.25522201
   0.43553235  0.28332899  0.12381329
   0.31308532  0.70835851  0.61150630
   0.43329949  0.62495791  0.43310841
   0.93238350  0.62527561  0.43332603
   0.31784711  0.86284711  0.16588314
   0.07155762  0.54912472  0.78859903
   0.81819909  0.86311824  0.16606562
   0.31829660  0.36304957  0.16577065
   0.93365057  0.96233850  0.74450965
   0.44151907  0.60891943  0.16563905
Direct configuration=     2
   0.05402209  0.70137089  0.21133221
   0.31778747  0.72329037  0.87605477
   0.68779207  0.95810303  0.61136834
   0.43791538  0.45810962  0.61144167
   0.43934177  0.28798741  0.25549234
   0.05901498  0.38819273  0.83346650
   0.30892481  0.88753254  0.83356554
   0.44643208  0.62610085  0.70021330
   0.06081044  0.21259225  0.74475746
   0.17919285  0.45127194  0.21144084
   0.56735668  0.21034651  0.47756012
   0.06618162  0.87496722  0.56686445
   0.56783018  0.22327211  0.87601012
   0.80923408  0.52892247  0.12411725
   0.43004824  0.95097246  0.21142522
   0.56616071  0.37499654  0.56684575
   0.81213454  0.04192987  0.38855709
   0.68228578  0.78925620  0.52244125
   0.44243851  0.46044048  0.47756016
   0.43478744  0.96240414  0.74453333
   0.44122201  0.62489536  0.56685213
   0.57118186  0.87614571  0.70039869
   0.31033057  0.02885405  0.12404067
   0.68982810  0.95928115  0.34420869
   0.68808374  0.78175468  0.12431351
   0.05321411  0.37378799  0.29971065
   0.68934733  0.46795439  0.87582700
   0.42916714  0.45144509  0.21144986
   0.80886288  0.37512081  0.43312658
   0.56302440  0.70818021  0.61151641
   0.56017072  0.54068793  0.65579549
   0.93379899  0.12502687  0.43309005
   0.56431559  0.53793052  0.25542988
   0.68976703  0.45918479  0.34416164
   0.19076116  0.61198418  0.16635467
   0.19488668  0.79922769  0.78868064
   0.44662316  0.12605716  0.70023806
   0.92830641  0.62357372  0.29969414
   0.31716880  0.22262380  0.87599551
   0.31616836  0.87470639  0.56681342
   0.81703473  0.22300738  0.87604528
   0.81006334  0.54093638  0.65576261
   0.55828162  0.52770479  0.12386618
   0.56964346  0.04939231  0.78881867
   0.18947140  0.28809635  0.25546420
   0.80882149  0.87508425  0.43308597
   0.57163960  0.37617889  0.70027473
   0.05910551  0.02810776  0.12414913
   0.31008625  0.54074278  0.65579785
   0.56470664  0.20923637  0.34413999
   0.18771534  0.95812441  0.61136409
   0.30337707  0.37389762  0.29976749
   0.43501953  0.79060580  0.65583002
   0.19547991  0.29824741  0.78864641
   0.06663179  0.36330342  0.16657174
   0.69643658  0.62624139  0.70033509
   0.31202201  0.54180545  0.38856850
   0.06746668  0.72235319  0.87607580
   0.93403904  0.63747716  0.83373680
   0.31980998  0.54939043  0.78880080
   0.30459783  0.20093901  0.21131009
   0.06742108  0.71047614  0.47753794
   0.55377764  0.20118278  0.21131407
   0.31088433  0.21180731  0.74456803
   0.07145049  0.37637402  0.70034702
   0.18369465  0.63745842  0.83356683
   0.06975281  0.04907844  0.78886271
   0.44123100  0.12491762  0.56689067
   0.93513665  0.29086407  0.65577620
   0.80417964  0.20120362  0.21128802
   0.92995005  0.95111139  0.21150887
   0.94116892  0.62498032  0.56685006
   0.80858666  0.38754016  0.83356108
   0.19651678  0.62605407  0.70017416
   0.80891906  0.88751267  0.83361564
   0.68524836  0.29072868  0.65586990
   0.31269471  0.20793622  0.61136848
   0.43546766  0.46256276  0.74465132
   0.43678849  0.79164374  0.38848844
   0.68538483  0.96252757  0.74453943
   0.80385719  0.70119424  0.21128863
   0.81311311  0.70823580  0.61150612
   0.43719448  0.78250283  0.12420557
   0.31059996  0.71194093  0.74450924
   0.32053689  0.04918040  0.78872693
   0.81167478  0.54166083  0.38842757
   0.68290966  0.28865563  0.52231532
   0.69531257  0.79891032  0.78873925
   0.18943640  0.78784051  0.25545511
   0.69103911  0.11187765  0.16651225
   0.69205253  0.96036249  0.47755044
   0.93990002  0.95937675  0.34415731
   0.80745956  0.03908506  0.52245666
   0.68372233  0.62502390  0.43312450
   0.43984023  0.45930932  0.34420010
   0.81129528  0.21166973  0.74454246
   0.43939302  0.96808668  0.87582434
   0.56620289  0.87470798  0.56683437
   0.81093735  0.02849435  0.12399089
   0.42834798  0.62382218  0.29972406
   0.81668902  0.72254450  0.87612728
   0.68768786  0.45796198  0.61137701
   0.55890671  0.38747678  0.83338246
   0.80345096  0.37359029  0.29964569
   0.18697360  0.29179083  0.38846584
   0.81998246  0.54919431  0.78884756
   0.18277187  0.78914744  0.52250578
   0.30338656  0.87403295  0.29974999
   0.17879196  0.95128763  0.21143002
   0.18541394  0.46233287  0.74474334
   0.43290856  0.28879204  0.52230906
   0.06469728  0.70908160  0.34405858
   0.18520060  0.79067409  0.65577234
   0.44523988  0.79890273  0.78869213
   0.68361061  0.12501574  0.43309440
   0.93259779  0.78873564  0.52233707
   0.69105305  0.61275954  0.16661803
   0.81479974  0.70923921  0.34412470
   0.93521221  0.46250843  0.74484040
   0.18989953  0.45926778  0.34419296
   0.57010397  0.54936186  0.78884678
   0.56565575  0.36355514  0.16650766
   0.56474648  0.70931621  0.34414970
   0.55326247  0.37374148  0.29974095
   0.18920416  0.46791010  0.87584049
   0.19092076  0.11205370  0.16653160
   0.44473298  0.29865641  0.78866565
   0.68938478  0.78795800  0.25545093
   0.93404667  0.13742695  0.83358823
   0.44218130  0.96047295  0.47753618
   0.56731146  0.72359397  0.87602064
   0.19212819  0.46054906  0.47753077
   0.93496303  0.28197911  0.12430839
   0.31217361  0.04192794  0.38859545
   0.06019407  0.04062287  0.65586445
   0.55881911  0.37492872  0.43311692
   0.68495323  0.46253009  0.74483887
   0.56096284  0.21251842  0.74456765
   0.94653823  0.12628476  0.70028709
   0.56014745  0.04070359  0.65576953
   0.55745754  0.53927497  0.52246620
   0.17834495  0.12386162  0.29971347
   0.44010497  0.11071624  0.16647475
   0.67832223  0.62370351  0.29965127
   0.92836037  0.12384086  0.29981006
   0.81620744  0.37496351  0.56686186
   0.05335112  0.87392922  0.29975216
   0.19123263  0.62482579  0.56688182
   0.94498582  0.79936949  0.78872577
   0.30877064  0.38736173  0.83354357
   0.93926958  0.46855952  0.87583129
   0.43408589  0.63773634  0.83353926
   0.06468120  0.20913063  0.34406068
   0.18944006  0.96793269  0.87595268
   0.93544767  0.78214815  0.12413377
   0.68691114  0.79168197  0.38852030
   0.93514651  0.79077654  0.65580234
   0.94028125  0.11121999  0.16655475
   0.43534179  0.29079928  0.65592336
   0.05433766  0.20148694  0.21129254
   0.67903924  0.95166167  0.21144219
   0.17829522  0.62370698  0.29963902
   0.82146184  0.87628300  0.70034910
   0.94640530  0.62640747  0.70036420
   0.19647634  0.12609902  0.70016776
   0.94241946  0.46049445  0.47751360
   0.81279029  0.20802031  0.61139036
   0.18378986  0.62508577  0.43313469
   0.42837737  0.12378227  0.29965028
   0.67841959  0.12375679  0.29969975
   0.56200456  0.54180328  0.38852435
   0.81463730  0.20915868  0.34407784
   0.43925560  0.46805628  0.87572469
   0.55903105  0.88740968  0.83341763
   0.31730517  0.21036231  0.47752768
   0.19217800  0.96030982  0.47755223
   0.05881200  0.88747708  0.83356203
   0.05745874  0.53914528  0.52242047
   0.94222092  0.96031562  0.47750393
   0.06288759  0.70812425  0.61148066
   0.55762785  0.03879261  0.52233833
   0.69530239  0.29869576  0.78869159
   0.81640051  0.36195970  0.16665742
   0.43380211  0.12500125  0.43308634
   0.06726259  0.21039077  0.47752383
   0.31016413  0.04078814  0.65578832
   0.43238418  0.78910988  0.52241964
   0.18403136  0.13750631  0.83359872
   0.18599489  0.28209215  0.12426069
   0.93982767  0.45935051  0.34420594
   0.56632950  0.86244746  0.16640471
   0.30347577  0.70080498  0.21142309
   0.94046829  0.61178031  0.16660655
   0.18782033  0.45806779  0.61139512
   0.07157360  0.87625287  0.70016948
   0.06011979  0.54070926  0.65579139
   0.30975783  0.52805337  0.12385935
   0.93679592  0.79166933  0.38850111
   0.94532239  0.29815090  0.78866009
   0.18502477  0.29070484  0.65582511
   0.93765080  0.95798232  0.61138559
   0.81141455  0.71162036  0.74459938
   0.68948205  0.28782877  0.25546087
   0.06045084  0.71210199  0.74481208
   0.67897786  0.45102598  0.21134319
   0.81740195  0.21058181  0.47762693
   0.56718002  0.71036399  0.47752351
   0.06676969  0.86373242  0.16648810
   0.93280290  0.28856216  0.52241254
   0.68500223  0.79063331  0.65579872
   0.05866099  0.87477118  0.43312320
   0.06748025  0.22232443  0.87600158
   0.81008765  0.04065321  0.65581122
   0.56084876  0.02881317  0.12415021
   0.30874824  0.37489508  0.43308340
   0.31617445  0.37486187  0.56683768
   0.31728635  0.71037107  0.47748462
   0.05768961  0.03868747  0.52239530
   0.32149800  0.87634508  0.70036584
   0.06437010  0.53756338  0.25536482
   0.68388394  0.13758222  0.83356726
   0.81428245  0.03758204  0.25544077
   0.18395716  0.12503229  0.43312241
   0.69663551  0.12641500  0.70032307
   0.18285864  0.28872029  0.52232640
   0.43938557  0.78790820  0.25545599
   0.81409095  0.53775406  0.25550746
   0.06278421  0.20810249  0.61135764
   0.18652892  0.79147518  0.38843743
   0.30766955  0.53875451  0.52240190
   0.82135446  0.37623809  0.70014368
   0.68695928  0.29178893  0.38850409
   0.19128442  0.12497585  0.56686421
   0.68958251  0.96871253  0.87599885
   0.69118805  0.12496132  0.56687063
   0.43981951  0.95916132  0.34420981
   0.18473272  0.96251850  0.74451910
   0.93952165  0.78786124  0.25548390
   0.55884000  0.87509181  0.43312592
   0.30872861  0.87505451  0.43310564
   0.80769156  0.53937890  0.52249369
   0.92908286  0.45131478  0.21136979
   0.31406441  0.53794726  0.25551439
   0.56222265  0.04201701  0.38862925
   0.93787933  0.45806184  0.61147691
   0.06205214  0.04184877  0.38855638
   0.06195219  0.54168013  0.38848110
   0.43688553  0.29163995  0.38850500
   0.69235514  0.46047230  0.47752470
   0.06622596  0.37486897  0.56684811
   0.55423678  0.70137988  0.21141744
   0.93942760  0.28787825  0.25547041
   0.81951171  0.04936920  0.78890380
   0.18984922  0.95925576  0.34415274
   0.55339800  0.87387936  0.29980321
   0.05874813  0.37511616  0.43310386
   0.31477861  0.70926432  0.34419221
   0.31470890  0.20920060  0.34416443
   0.94135526  0.12499512  0.56675687
   0.43787944  0.95828838  0.61147850
   0.56426939  0.03762579  0.25543108
   0.18710402  0.78314236  0.12432904
   0.06445042  0.03735585  0.25531801
   0.69123411  0.62479823  0.56687796
   0.05740251  0.52696310  0.12429367
   0.30756229  0.03881910  0.52232110
   0.68686011  0.28149320  0.12437894
   0.81719582  0.71053598  0.47753231
   0.43399532  0.13759522  0.83350233
   0.32163090  0.37614672  0.70022458
   0.68405811  0.63771576  0.83354128
   0.56084888  0.71167934  0.74456852
   0.93713749  0.29191326  0.38860388
   0.93958781  0.96850212  0.87600890
   0.56273268  0.20787965  0.61132714
   0.81623716  0.87496476  0.56686207
   0.80334151  0.87383293  0.29973265
   0.31436797  0.03759371  0.25528357
   0.43571126  0.28290828  0.12389474
   0.31306698  0.70828091  0.61149254
   0.43363303  0.62498907  0.43311570
   0.93289038  0.62524601  0.43330547
   0.31734194  0.86290533  0.16587452
   0.07102184  0.54910728  0.78861044
   0.81773631  0.86320504  0.16602189
   0.31772344  0.36294014  0.16575469
   0.93425974  0.96240376  0.74451772
   0.44124159  0.60942759  0.16565698
Direct configuration=     3
   0.05580255  0.70119365  0.21131227
   0.31689469  0.72162269  0.87586298
   0.68795012  0.95799790  0.61138638
   0.43802525  0.45788134  0.61141595
   0.43762498  0.28766935  0.25554966
   0.06000219  0.38737012  0.83372007
   0.31007827  0.88709900  0.83378625
   0.44442256  0.62623872  0.70024956
   0.06249276  0.21280475  0.74458140
   0.18076253  0.45161276  0.21140419
   0.56565955  0.20975828  0.47771728
   0.06509521  0.87476604  0.56682613
   0.56664734  0.22145440  0.87579157
   0.81024800  0.53010113  0.12443046
   0.43138148  0.95128493  0.21135115
   0.56512041  0.37475882  0.56679824
   0.81203161  0.04211248  0.38854612
   0.68407504  0.78985879  0.52230418
   0.44068634  0.45971551  0.47770903
   0.43662712  0.96236501  0.74449257
   0.44006220  0.62469407  0.56682311
   0.56933068  0.87623111  0.70030269
   0.31056561  0.02990564  0.12414491
   0.68842197  0.95897472  0.34428701
   0.68782959  0.78089988  0.12442117
   0.05529925  0.37365345  0.29972055
   0.68907500  0.46954119  0.87563133
   0.43093277  0.45142604  0.21139661
   0.80994916  0.37514092  0.43313197
   0.56302058  0.70803935  0.61149256
   0.56152906  0.54095572  0.65571346
   0.93487062  0.12513711  0.43312333
   0.56245369  0.53759558  0.25546950
   0.68828367  0.45878475  0.34416805
   0.18937946  0.61242266  0.16630217
   0.19365115  0.79907772  0.78863193
   0.44464600  0.12621454  0.70026504
   0.93031314  0.62352698  0.29975174
   0.31623972  0.22108602  0.87579751
   0.31500098  0.87466087  0.56678993
   0.81620588  0.22139236  0.87583636
   0.81140250  0.54117540  0.65570246
   0.55915327  0.52861923  0.12399306
   0.56850905  0.04932324  0.78881234
   0.18787415  0.28774747  0.25551086
   0.80987796  0.87535521  0.43309225
   0.56954870  0.37638620  0.70031697
   0.06019282  0.02883358  0.12434519
   0.31143617  0.54093568  0.65570933
   0.56333178  0.20889965  0.34423065
   0.18787708  0.95803108  0.61138305
   0.30537537  0.37375146  0.29978706
   0.43643028  0.79102127  0.65575086
   0.19388492  0.29817227  0.78868067
   0.06536889  0.36374154  0.16633318
   0.69440280  0.62628145  0.70029260
   0.31188029  0.54187203  0.38855088
   0.06640426  0.72096827  0.87591751
   0.93522462  0.63709505  0.83393469
   0.31886549  0.54946744  0.78880741
   0.30575743  0.20068383  0.21127566
   0.06569496  0.70976995  0.47773360
   0.55557373  0.20119082  0.21129574
   0.31243018  0.21251396  0.74445723
   0.06936775  0.37655341  0.70031862
   0.18499109  0.63716256  0.83372341
   0.06857830  0.04900725  0.78886141
   0.44013854  0.12473906  0.56682604
   0.93656319  0.29122794  0.65566661
   0.80566660  0.20097108  0.21127253
   0.93125413  0.95160235  0.21145587
   0.94008525  0.62484069  0.56680916
   0.80980275  0.38697234  0.83377955
   0.19439298  0.62629040  0.70021914
   0.81002423  0.88706942  0.83389475
   0.68667917  0.29107439  0.65577671
   0.31293064  0.20789455  0.61141938
   0.43699330  0.46252639  0.74448387
   0.43682906  0.79189315  0.38853262
   0.68667493  0.96242331  0.74452016
   0.80530376  0.70092687  0.21128623
   0.81300005  0.70797886  0.61144352
   0.43700595  0.78132212  0.12414269
   0.31213943  0.71235778  0.74443678
   0.31909338  0.04914874  0.78877875
   0.81191220  0.54195420  0.38849983
   0.68447859  0.28978260  0.52221301
   0.69388573  0.79907742  0.78873926
   0.18789227  0.78777734  0.25551178
   0.68998247  0.11218995  0.16635067
   0.69041067  0.95978520  0.47772053
   0.93849061  0.95919042  0.34424349
   0.80922763  0.03963868  0.52227368
   0.68461685  0.62508279  0.43312510
   0.43843479  0.45903605  0.34424761
   0.81248379  0.21246043  0.74445233
   0.43931733  0.96974296  0.87563532
   0.56510512  0.87457995  0.56677993
   0.81094953  0.02933659  0.12413939
   0.43041314  0.62370005  0.29978579
   0.81594422  0.72140031  0.87591996
   0.68789645  0.45787588  0.61140174
   0.55989167  0.38710422  0.83365221
   0.80535474  0.37364135  0.29969345
   0.18697815  0.29189540  0.38849463
   0.81850650  0.54915981  0.78889862
   0.18445895  0.78975697  0.52235260
   0.30538002  0.87387559  0.29973632
   0.18050956  0.95160431  0.21142320
   0.18726136  0.46248765  0.74453077
   0.43443465  0.28972710  0.52219845
   0.06334105  0.70887424  0.34418773
   0.18662950  0.79086084  0.65567292
   0.44374443  0.79905025  0.78864770
   0.68459178  0.12509318  0.43312713
   0.93427779  0.78960111  0.52224229
   0.69010900  0.61330294  0.16642324
   0.81346066  0.70889840  0.34422866
   0.93696441  0.46246679  0.74457839
   0.18853634  0.45896090  0.34424851
   0.56888098  0.54921217  0.78885930
   0.56459715  0.36374475  0.16622922
   0.56338001  0.70898930  0.34424805
   0.55538230  0.37367423  0.29979216
   0.18893822  0.46942792  0.87567474
   0.18973161  0.11274827  0.16637846
   0.44357068  0.29863189  0.78865623
   0.68772002  0.78781622  0.25548974
   0.93543127  0.13689381  0.83379401
   0.44046497  0.95971084  0.47769891
   0.56638158  0.72183353  0.87582856
   0.19042324  0.45982895  0.47769571
   0.93567429  0.28112718  0.12451579
   0.31194943  0.04198382  0.38856247
   0.06149978  0.04081235  0.65575209
   0.55991772  0.37486559  0.43311709
   0.68643956  0.46238415  0.74459225
   0.56244815  0.21283212  0.74447273
   0.94457355  0.12660358  0.70027736
   0.56152640  0.04090511  0.65569875
   0.55928545  0.53989528  0.52227559
   0.18035203  0.12358353  0.29969641
   0.43925356  0.11192882  0.16632897
   0.68035430  0.62356226  0.29972263
   0.93045251  0.12355694  0.29976966
   0.81508472  0.37481061  0.56682510
   0.05541443  0.87373157  0.29974602
   0.19008095  0.62468363  0.56686137
   0.94333558  0.79908103  0.78876534
   0.31009326  0.38693750  0.83376956
   0.93925148  0.46986733  0.87563781
   0.43535281  0.63734687  0.83372332
   0.06338968  0.20897286  0.34421978
   0.18908121  0.96948433  0.87570063
   0.93597054  0.78098476  0.12429243
   0.68690345  0.79188373  0.38853240
   0.93650223  0.79106303  0.65573395
   0.93930936  0.11221299  0.16644724
   0.43652519  0.29114435  0.65580814
   0.05590240  0.20117301  0.21131147
   0.68055867  0.95169472  0.21147699
   0.18033157  0.62366277  0.29971282
   0.81939116  0.87634813  0.70028183
   0.94444078  0.62648964  0.70034526
   0.19436373  0.12640783  0.70021184
   0.94073078  0.45968181  0.47770460
   0.81293255  0.20788714  0.61141007
   0.18499564  0.62514079  0.43312955
   0.43037441  0.12361148  0.29970239
   0.68031514  0.12358842  0.29973271
   0.56186959  0.54184982  0.38854994
   0.81330154  0.20894359  0.34425600
   0.43914308  0.46962564  0.87554586
   0.56016314  0.88701544  0.83373570
   0.31561572  0.20973499  0.47770013
   0.19055555  0.95969373  0.47770611
   0.05999011  0.88710127  0.83382015
   0.05931970  0.53980770  0.52226849
   0.94051126  0.95960732  0.47765897
   0.06300512  0.70792538  0.61144026
   0.55926866  0.03982085  0.52222366
   0.69387026  0.29856124  0.78868266
   0.81531136  0.36251151  0.16640601
   0.43483707  0.12503451  0.43311057
   0.06559653  0.20959886  0.47769544
   0.31152419  0.04102070  0.65570100
   0.43420850  0.78967219  0.52225026
   0.18540286  0.13711817  0.83377712
   0.18603008  0.28046543  0.12438678
   0.93845255  0.45910611  0.34424102
   0.56564860  0.86316582  0.16623407
   0.30517235  0.70085878  0.21136633
   0.93895608  0.61257576  0.16641490
   0.18793277  0.45793646  0.61140473
   0.06949240  0.87643828  0.70016310
   0.06153507  0.54097431  0.65574822
   0.31026324  0.52966534  0.12391511
   0.93675824  0.79187127  0.38851746
   0.94367074  0.29824980  0.78868871
   0.18636856  0.29106346  0.65574085
   0.93787622  0.95789813  0.61143008
   0.81254932  0.71230667  0.74454004
   0.68777882  0.28762142  0.25548852
   0.06241710  0.71247297  0.74456775
   0.68052416  0.45123924  0.21139349
   0.81564627  0.20965199  0.47774819