 288 288   0   0
  0.1280206E+02  0.9726678E-09  0.8423550E-09  0.4500000E-08  0.2500000E-15
  1.000000000000000E-004
  CAR 
 unknown system                          
      6.80020236     -6.05346755  301      4.29465330      1.00000000
     -6.053  0.0000E+00  0.0000E+00
     -6.011  0.0000E+00  0.0000E+00
     -5.968  0.0000E+00  0.0000E+00
     -5.925  0.0000E+00  0.0000E+00
     -5.882  0.0000E+00  0.0000E+00
     -5.839  0.0000E+00  0.0000E+00
     -5.796  0.0000E+00  0.0000E+00
     -5.754  0.0000E+00  0.0000E+00
     -5.711  0.0000E+00  0.0000E+00
     -5.668  0.0000E+00  0.0000E+00
     -5.625  0.0000E+00  0.0000E+00
     -5.582  0.0000E+00  0.0000E+00
     -5.539  0.0000E+00  0.0000E+00
     -5.496  0.0000E+00  0.0000E+00
     -5.454  0.0000E+00  0.0000E+00
     -5.411  0.1943E-15  0.8327E-17
     -5.368  0.4502E-14  0.2012E-15
     -5.325  0.9649E-13  0.4335E-14
     -5.282  0.1761E-11  0.7978E-13
     -5.239  0.2734E-10  0.1251E-11
     -5.197  0.3614E-09  0.1674E-10
     -5.154  0.4066E-08  0.1909E-09
     -5.111  0.3895E-07  0.1860E-08
     -5.068  0.3180E-06  0.1548E-07
     -5.025  0.2213E-05  0.1103E-06
     -4.982  0.1314E-04  0.6733E-06
     -4.939  0.6671E-04  0.3532E-05
     -4.897  0.2902E-03  0.1596E-04
     -4.854  0.1085E-02  0.6245E-04
     -4.811  0.3505E-02  0.2126E-03
     -4.768  0.9852E-02  0.6348E-03
     -4.725  0.2432E-01  0.1677E-02
     -4.682  0.5332E-01  0.3961E-02
     -4.640  0.1052E+00  0.8468E-02
     -4.597  0.1890E+00  0.1657E-01
     -4.554  0.3127E+00  0.2996E-01
     -4.511  0.4797E+00  0.5052E-01
     -4.468  0.6866E+00  0.7993E-01
     -4.425  0.9207E+00  0.1194E+00
     -4.382  0.1162E+01  0.1691E+00
     -4.340  0.1385E+01  0.2285E+00
     -4.297  0.1567E+01  0.2956E+00
     -4.254  0.1695E+01  0.3682E+00
     -4.211  0.1773E+01  0.4442E+00
     -4.168  0.1822E+01  0.5223E+00
     -4.125  0.1876E+01  0.6026E+00
     -4.083  0.1969E+01  0.6870E+00
     -4.040  0.2127E+01  0.7781E+00
     -3.997  0.2352E+01  0.8789E+00
     -3.954  0.2620E+01  0.9912E+00
     -3.911  0.2884E+01  0.1115E+01
     -3.868  0.3092E+01  0.1247E+01
     -3.825  0.3206E+01  0.1385E+01
     -3.783  0.3214E+01  0.1522E+01
     -3.740  0.3142E+01  0.1657E+01
     -3.697  0.3045E+01  0.1787E+01
     -3.654  0.2988E+01  0.1915E+01
     -3.611  0.3022E+01  0.2045E+01
     -3.568  0.3165E+01  0.2181E+01
     -3.526  0.3398E+01  0.2326E+01
     -3.483  0.3672E+01  0.2483E+01
     -3.440  0.3926E+01  0.2652E+01
     -3.397  0.4111E+01  0.2828E+01
     -3.354  0.4205E+01  0.3008E+01
     -3.311  0.4215E+01  0.3189E+01
     -3.269  0.4178E+01  0.3368E+01
     -3.226  0.4143E+01  0.3545E+01
     -3.183  0.4158E+01  0.3723E+01
     -3.140  0.4254E+01  0.3906E+01
     -3.097  0.4434E+01  0.4096E+01
     -3.054  0.4675E+01  0.4296E+01
     -3.011  0.4935E+01  0.4507E+01
     -2.969  0.5168E+01  0.4729E+01
     -2.926  0.5332E+01  0.4957E+01
     -2.883  0.5412E+01  0.5189E+01
     -2.840  0.5424E+01  0.5421E+01
     -2.797  0.5414E+01  0.5653E+01
     -2.754  0.5430E+01  0.5886E+01
     -2.712  0.5491E+01  0.6121E+01
     -2.669  0.5570E+01  0.6360E+01
     -2.626  0.5610E+01  0.6600E+01
     -2.583  0.5575E+01  0.6839E+01
     -2.540  0.5492E+01  0.7075E+01
     -2.497  0.5454E+01  0.7308E+01
     -2.454  0.5576E+01  0.7547E+01
     -2.412  0.5929E+01  0.7801E+01
     -2.369  0.6480E+01  0.8079E+01
     -2.326  0.7080E+01  0.8382E+01
     -2.283  0.7521E+01  0.8704E+01
     -2.240  0.7640E+01  0.9032E+01
     -2.197  0.7424E+01  0.9350E+01
     -2.155  0.7029E+01  0.9651E+01
     -2.112  0.6712E+01  0.9939E+01
     -2.069  0.6691E+01  0.1023E+02
     -2.026  0.7037E+01  0.1053E+02
     -1.983  0.7652E+01  0.1085E+02
     -1.940  0.8318E+01  0.1121E+02
     -1.897  0.8806E+01  0.1159E+02
     -1.855  0.8985E+01  0.1197E+02
     -1.812  0.8884E+01  0.1235E+02
     -1.769  0.8669E+01  0.1273E+02
     -1.726  0.8532E+01  0.1309E+02
     -1.683  0.8588E+01  0.1346E+02
     -1.640  0.8829E+01  0.1384E+02
     -1.598  0.9162E+01  0.1423E+02
     -1.555  0.9491E+01  0.1464E+02
     -1.512  0.9768E+01  0.1505E+02
     -1.469  0.9997E+01  0.1548E+02
     -1.426  0.1019E+02  0.1592E+02
     -1.383  0.1036E+02  0.1636E+02
     -1.340  0.1051E+02  0.1681E+02
     -1.298  0.1071E+02  0.1727E+02
     -1.255  0.1111E+02  0.1775E+02
     -1.212  0.1184E+02  0.1826E+02
     -1.169  0.1289E+02  0.1881E+02
     -1.126  0.1404E+02  0.1941E+02
     -1.083  0.1495E+02  0.2005E+02
     -1.041  0.1540E+02  0.2071E+02
     -0.998  0.1542E+02  0.2137E+02
     -0.955  0.1537E+02  0.2203E+02
     -0.912  0.1566E+02  0.2270E+02
     -0.869  0.1660E+02  0.2341E+02
     -0.826  0.1818E+02  0.2419E+02
     -0.783  0.2025E+02  0.2506E+02
     -0.741  0.2271E+02  0.2603E+02
     -0.698  0.2563E+02  0.2713E+02
     -0.655  0.2923E+02  0.2838E+02
     -0.612  0.3351E+02  0.2982E+02
     -0.569  0.3816E+02  0.3145E+02
     -0.526  0.4258E+02  0.3328E+02
     -0.484  0.4625E+02  0.3526E+02
     -0.441  0.4899E+02  0.3736E+02
     -0.398  0.5102E+02  0.3954E+02
     -0.355  0.5267E+02  0.4180E+02
     -0.312  0.5415E+02  0.4412E+02
     -0.269  0.5544E+02  0.4650E+02
     -0.226  0.5640E+02  0.4891E+02
     -0.184  0.5695E+02  0.5135E+02
     -0.141  0.5714E+02  0.5380E+02
     -0.098  0.5721E+02  0.5625E+02
     -0.055  0.5740E+02  0.5871E+02
     -0.012  0.5792E+02  0.6119E+02
      0.031  0.5892E+02  0.6372E+02
      0.073  0.6052E+02  0.6631E+02
      0.116  0.6282E+02  0.6900E+02
      0.159  0.6579E+02  0.7182E+02
      0.202  0.6921E+02  0.7479E+02
      0.245  0.7272E+02  0.7790E+02
      0.288  0.7598E+02  0.8116E+02
      0.331  0.7882E+02  0.8453E+02
      0.373  0.8119E+02  0.8801E+02
      0.416  0.8311E+02  0.9157E+02
      0.459  0.8463E+02  0.9520E+02
      0.502  0.8572E+02  0.9887E+02
      0.545  0.8639E+02  0.1026E+03
      0.588  0.8665E+02  0.1063E+03
      0.630  0.8651E+02  0.1100E+03
      0.673  0.8595E+02  0.1137E+03
      0.716  0.8490E+02  0.1173E+03
      0.759  0.8331E+02  0.1209E+03
      0.802  0.8132E+02  0.1244E+03
      0.845  0.7924E+02  0.1278E+03
      0.888  0.7750E+02  0.1311E+03
      0.930  0.7635E+02  0.1344E+03
      0.973  0.7578E+02  0.1376E+03
      1.016  0.7554E+02  0.1408E+03
      1.059  0.7528E+02  0.1441E+03
      1.102  0.7480E+02  0.1473E+03
      1.145  0.7413E+02  0.1504E+03
      1.187  0.7352E+02  0.1536E+03
      1.230  0.7323E+02  0.1567E+03
      1.273  0.7333E+02  0.1599E+03
      1.316  0.7356E+02  0.1630E+03
      1.359  0.7351E+02  0.1662E+03
      1.402  0.7286E+02  0.1693E+03
      1.445  0.7162E+02  0.1724E+03
      1.487  0.7020E+02  0.1754E+03
      1.530  0.6920E+02  0.1783E+03
      1.573  0.6909E+02  0.1813E+03
      1.616  0.7006E+02  0.1843E+03
      1.659  0.7194E+02  0.1874E+03
      1.702  0.7437E+02  0.1906E+03
      1.744  0.7693E+02  0.1939E+03
      1.787  0.7933E+02  0.1973E+03
      1.830  0.8142E+02  0.2008E+03
      1.873  0.8323E+02  0.2043E+03
      1.916  0.8484E+02  0.2080E+03
      1.959  0.8630E+02  0.2117E+03
      2.001  0.8771E+02  0.2154E+03
      2.044  0.8910E+02  0.2192E+03
      2.087  0.9052E+02  0.2231E+03
      2.130  0.9199E+02  0.2270E+03
      2.173  0.9351E+02  0.2311E+03
      2.216  0.9512E+02  0.2351E+03
      2.259  0.9700E+02  0.2393E+03
      2.301  0.9942E+02  0.2435E+03
      2.344  0.1026E+03  0.2479E+03
      2.387  0.1065E+03  0.2525E+03
      2.430  0.1110E+03  0.2573E+03
      2.473  0.1155E+03  0.2622E+03
      2.516  0.1198E+03  0.2673E+03
      2.558  0.1234E+03  0.2726E+03
      2.601  0.1261E+03  0.2780E+03
      2.644  0.1279E+03  0.2835E+03
      2.687  0.1289E+03  0.2890E+03
      2.730  0.1292E+03  0.2946E+03
      2.773  0.1297E+03  0.3001E+03
      2.816  0.1309E+03  0.3057E+03
      2.858  0.1333E+03  0.3115E+03
      2.901  0.1363E+03  0.3173E+03
      2.944  0.1390E+03  0.3232E+03
      2.987  0.1396E+03  0.3292E+03
      3.030  0.1369E+03  0.3351E+03
      3.073  0.1307E+03  0.3407E+03
      3.115  0.1221E+03  0.3459E+03
      3.158  0.1127E+03  0.3508E+03
      3.201  0.1043E+03  0.3552E+03
      3.244  0.9804E+02  0.3594E+03
      3.287  0.9422E+02  0.3635E+03
      3.330  0.9253E+02  0.3674E+03
      3.373  0.9221E+02  0.3714E+03
      3.415  0.9231E+02  0.3753E+03
      3.458  0.9198E+02  0.3793E+03
      3.501  0.9071E+02  0.3832E+03
      3.544  0.8856E+02  0.3870E+03
      3.587  0.8616E+02  0.3906E+03
      3.630  0.8447E+02  0.3943E+03
      3.672  0.8436E+02  0.3979E+03
      3.715  0.8611E+02  0.4016E+03
      3.758  0.8925E+02  0.4054E+03
      3.801  0.9288E+02  0.4094E+03
      3.844  0.9613E+02  0.4135E+03
      3.887  0.9862E+02  0.4177E+03
      3.930  0.1005E+03  0.4220E+03
      3.972  0.1019E+03  0.4264E+03
      4.015  0.1031E+03  0.4308E+03
      4.058  0.1040E+03  0.4353E+03
      4.101  0.1042E+03  0.4397E+03
      4.144  0.1036E+03  0.4442E+03
      4.187  0.1026E+03  0.4486E+03
      4.229  0.1012E+03  0.4529E+03
      4.272  0.1000E+03  0.4572E+03
      4.315  0.9915E+02  0.4614E+03
      4.358  0.9883E+02  0.4657E+03
      4.401  0.9904E+02  0.4699E+03
      4.444  0.9954E+02  0.4742E+03
      4.487  0.9997E+02  0.4785E+03
      4.529  0.1000E+03  0.4827E+03
      4.572  0.9965E+02  0.4870E+03
      4.615  0.9910E+02  0.4913E+03
      4.658  0.9887E+02  0.4955E+03
      4.701  0.9943E+02  0.4998E+03
      4.744  0.1010E+03  0.5041E+03
      4.786  0.1033E+03  0.5085E+03
      4.829  0.1061E+03  0.5131E+03
      4.872  0.1087E+03  0.5177E+03
      4.915  0.1107E+03  0.5225E+03
      4.958  0.1115E+03  0.5272E+03
      5.001  0.1104E+03  0.5320E+03
      5.044  0.1065E+03  0.5365E+03
      5.086  0.9908E+02  0.5408E+03
      5.129  0.8789E+02  0.5445E+03
      5.172  0.7349E+02  0.5477E+03
      5.215  0.5728E+02  0.5501E+03
      5.258  0.4116E+02  0.5519E+03
      5.301  0.2699E+02  0.5531E+03
      5.343  0.1600E+02  0.5537E+03
      5.386  0.8519E+01  0.5541E+03
      5.429  0.4046E+01  0.5543E+03
      5.472  0.1706E+01  0.5544E+03
      5.515  0.6360E+00  0.5544E+03
      5.558  0.2090E+00  0.5544E+03
      5.601  0.6033E-01  0.5544E+03
      5.643  0.1526E-01  0.5544E+03
      5.686  0.3375E-02  0.5544E+03
      5.729  0.6505E-03  0.5544E+03
      5.772  0.1091E-03  0.5544E+03
      5.815  0.1587E-04  0.5544E+03
      5.858  0.1998E-05  0.5544E+03
      5.900  0.2174E-06  0.5544E+03
      5.943  0.2039E-07  0.5544E+03
      5.986  0.1646E-08  0.5544E+03
      6.029  0.1142E-09  0.5544E+03
      6.072  0.6796E-11  0.5544E+03
      6.115  0.3459E-12  0.5544E+03
      6.158  0.1458E-13  0.5544E+03
      6.200  0.4535E-15  0.5544E+03
      6.243  0.0000E+00  0.5544E+03
      6.286  0.0000E+00  0.5544E+03
      6.329  0.0000E+00  0.5544E+03
      6.372  0.0000E+00  0.5544E+03
      6.415  0.0000E+00  0.5544E+03
      6.457  0.0000E+00  0.5544E+03
      6.500  0.0000E+00  0.5544E+03
      6.543  0.0000E+00  0.5544E+03
      6.586  0.0000E+00  0.5544E+03
      6.629  0.0000E+00  0.5544E+03
      6.672  0.0000E+00  0.5544E+03
      6.715  0.0000E+00  0.5544E+03
      6.757  0.0000E+00  0.5544E+03
      6.800  0.0000E+00  0.5544E+03
