<?xml version="1.0" encoding="ISO-8859-1"?>
<modeling>
 <generator>
  <i name="program" type="string">vasp </i>
  <i name="version" type="string">5.4.4.18Apr17-6-g9f103f2a35  </i>
  <i name="subversion" type="string">(build Sep 27 2018 12:46:37) complex + VL-xray_ parallel </i>
  <i name="platform" type="string">LLNL_Quartz_ifc </i>
  <i name="date" type="string">2021 09 26 </i>
  <i name="time" type="string">21:22:03 </i>
 </generator>
 <incar>
  <i type="int" name="ISTART">     2</i>
  <i type="string" name="PREC">accurate</i>
  <i type="string" name="ALGO"> Fast</i>
  <i type="int" name="ICHARG">     2</i>
  <i type="int" name="INIWAV">     1</i>
  <i type="int" name="NELM">   100</i>
  <i type="int" name="NELMIN">     4</i>
  <i type="int" name="IBRION">     2</i>
  <i name="EDIFF">      0.00000100</i>
  <i type="int" name="NSW">     5</i>
  <i type="int" name="ISIF">     2</i>
  <i type="int" name="ISYM">     2</i>
  <i name="ENCUT">    450.00000000</i>
  <i name="POTIM">      0.25000000</i>
  <i type="string" name="LREAL"> Auto</i>
  <i type="int" name="ISMEAR">     0</i>
  <i name="SIGMA">      0.15000000</i>
  <i type="logical" name="LWAVE"> F  </i>
  <i type="logical" name="LCHARG"> F  </i>
  <i type="int" name="ICORELEVEL">     0</i>
  <i type="int" name="CLNT">     1</i>
  <i type="int" name="CLN">     1</i>
  <i type="int" name="INCAR     ">     0</i>
  <i name="CLZ">      0.00000000</i>
  <v type="int" name="KPOINT_BSE">    -1     0     0     0</v>
  <i type="int" name="NELM">   100</i>
 </incar>
 <structure name="primitive_cell" >
  <crystal>
   <varray name="basis" >
    <v>       9.72667804       0.00000000       0.00000000 </v>
    <v>       0.00000000       8.42355028       0.00000000 </v>
    <v>       0.00000000       0.00000000      45.00000000 </v>
   </varray>
   <i name="volume">   3686.99226691 </i>
   <varray name="rec_basis" >
    <v>       0.10281002       0.00000000       0.00000000 </v>
    <v>       0.00000000       0.11871479       0.00000000 </v>
    <v>       0.00000000       0.00000000       0.02222222 </v>
   </varray>
  </crystal>
  <varray name="positions" >
   <v>       0.06224133       0.03266858       0.12445778 </v>
   <v>      -0.05795098       0.11244244       0.16689772 </v>
   <v>       0.19218079       0.11198027       0.16690779 </v>
   <v>       0.06747163      -0.13801917       0.16691113 </v>
   <v>       0.31179648       0.03266267       0.12440814 </v>
   <v>       0.18706282       0.28252374       0.12445452 </v>
   <v>       0.18684175      -0.21761807       0.12440434 </v>
   <v>      -0.06317889       0.28260812       0.12445862 </v>
   <v>      -0.18838592       0.03261929       0.12441214 </v>
   <v>      -0.06346819      -0.21819983       0.12448015 </v>
   <v>       0.06723258       0.36202293       0.16696685 </v>
   <v>      -0.18324046      -0.13764928       0.16684490 </v>
   <v>       0.31694014      -0.13776606       0.16684260 </v>
   <v>      -0.18296491       0.36245001       0.16686917 </v>
   <v>      -0.30766978       0.11199040       0.16696238 </v>
   <v>       0.18051205      -0.04772062       0.21160799 </v>
   <v>       0.05539194       0.20273351       0.21172452 </v>
   <v>       0.31754409       0.36207645       0.16684571 </v>
   <v>      -0.06956755      -0.04725818       0.21174232 </v>
   <v>      -0.05801525      -0.38759399       0.16686620 </v>
   <v>       0.43714575       0.28234647       0.12441093 </v>
   <v>       0.06187315      -0.46721410       0.12446130 </v>
   <v>      -0.31277543       0.28244590       0.12444668 </v>
   <v>       0.43708146      -0.21770010       0.12443593 </v>
   <v>       0.44209332       0.11216855       0.16686433 </v>
   <v>      -0.31293313      -0.21750379       0.12444270 </v>
   <v>       0.19180730      -0.38761155       0.16685716 </v>
   <v>       0.30529994       0.20263544       0.21174258 </v>
   <v>       0.05550087      -0.29770401       0.21160492 </v>
   <v>      -0.43756348       0.03250986       0.12446349 </v>
   <v>       0.31218283      -0.46741800       0.12445642 </v>
   <v>      -0.18839802      -0.46735534       0.12444130 </v>
   <v>      -0.19450881       0.20276261       0.21172192 </v>
   <v>       0.43040447      -0.04737281       0.21167282 </v>
   <v>       0.30558005      -0.29734944       0.21179146 </v>
   <v>      -0.43256054      -0.13772763       0.16694076 </v>
   <v>      -0.30806412      -0.38783625       0.16695136 </v>
   <v>       0.18058313       0.45269110       0.21167461 </v>
   <v>      -0.19442236      -0.29730819       0.21171189 </v>
   <v>      -0.06966380       0.45301521       0.21182866 </v>
   <v>      -0.31982280      -0.04709874       0.21182099 </v>
   <v>       0.44203702      -0.38787332       0.16684855 </v>
   <v>      -0.43277780       0.36238254       0.16693396 </v>
   <v>       0.06530892       0.03521866       0.25598257 </v>
   <v>      -0.44451054       0.20227153       0.21158423 </v>
   <v>       0.43062361       0.45235548       0.21161740 </v>
   <v>      -0.05950379      -0.21465824       0.25598976 </v>
   <v>      -0.18456700       0.03517721       0.25598812 </v>
   <v>       0.19061424      -0.21455552       0.25593536 </v>
   <v>      -0.05930693       0.28569605       0.25591493 </v>
   <v>       0.19049780       0.28530747       0.25598205 </v>
   <v>       0.31555158       0.03523434       0.25602124 </v>
   <v>      -0.43787842      -0.46752153       0.12445794 </v>
   <v>      -0.31942924       0.45247906       0.21165593 </v>
   <v>      -0.44446313      -0.29739428       0.21168696 </v>
   <v>      -0.30984370      -0.21459684       0.25596676 </v>
   <v>       0.06547876      -0.46481178       0.25593915 </v>
   <v>      -0.30943399       0.28540159       0.25597275 </v>
   <v>       0.44062728      -0.21462494       0.25594890 </v>
   <v>       0.44037781       0.28532529       0.25596490 </v>
   <v>      -0.18449394      -0.46470765       0.25597769 </v>
   <v>      -0.43443672       0.03541777       0.25597184 </v>
   <v>       0.31558608      -0.46458542       0.25586708 </v>
   <v>       0.05384100      -0.12706623       0.30008020 </v>
   <v>       0.17893113       0.12221491       0.30021301 </v>
   <v>      -0.07132631       0.12213609       0.30031373 </v>
   <v>       0.30368566      -0.12758634       0.30030973 </v>
   <v>      -0.19602176      -0.12780371       0.30020524 </v>
   <v>       0.05400840       0.37220908       0.30025324 </v>
   <v>       0.17868039      -0.37794403       0.30033580 </v>
   <v>       0.42867595       0.12209219       0.30031356 </v>
   <v>      -0.43450169      -0.46473990       0.25600646 </v>
   <v>      -0.07121091      -0.37773567       0.30031575 </v>
   <v>       0.30383819       0.37231329       0.30026569 </v>
   <v>      -0.32050289       0.12184225       0.30029128 </v>
   <v>      -0.19644652       0.37196095       0.30035288 </v>
   <v>       0.42874443      -0.37771252       0.30027915 </v>
   <v>      -0.44614962      -0.12804344       0.30035363 </v>
   <v>      -0.32089580      -0.37797900       0.30015363 </v>
   <v>      -0.44622723       0.37217043       0.30032680 </v>
   <v>      -0.05765389      -0.04827384       0.34498312 </v>
   <v>       0.19138565      -0.04803000       0.34498474 </v>
   <v>       0.06577552       0.20270067       0.34504112 </v>
   <v>      -0.18336327       0.20204466       0.34495101 </v>
   <v>       0.06627772      -0.29806030       0.34494193 </v>
   <v>       0.31652968       0.20258869       0.34497726 </v>
   <v>      -0.18329360      -0.29757292       0.34498147 </v>
   <v>      -0.30861788      -0.04837749       0.34496133 </v>
   <v>      -0.05885522       0.45193060       0.34493465 </v>
   <v>       0.31596251      -0.29842490       0.34492519 </v>
   <v>       0.19209737       0.45167754       0.34495207 </v>
   <v>       0.44159030      -0.04765370       0.34496723 </v>
   <v>      -0.43371720       0.20185516       0.34498633 </v>
   <v>      -0.30907119       0.45171123       0.34491259 </v>
   <v>       0.44129347       0.45172338       0.34495922 </v>
   <v>       0.06408426       0.04281727      -0.12440875 </v>
   <v>      -0.43370855      -0.29827957       0.34488516 </v>
   <v>       0.19311709      -0.20340913      -0.12410069 </v>
   <v>      -0.05975325      -0.20492422      -0.12435261 </v>
   <v>      -0.18548586       0.04272039      -0.12432718 </v>
   <v>       0.31494334       0.04157171      -0.12428271 </v>
   <v>      -0.05854820       0.29646135      -0.12421380 </v>
   <v>       0.19072987       0.29607204      -0.12420784 </v>
   <v>       0.05858621       0.03732284       0.38905448 </v>
   <v>      -0.30730623      -0.20391990      -0.12439941 </v>
   <v>       0.06441162      -0.45775974      -0.12433478 </v>
   <v>       0.44066948      -0.20349966      -0.12428865 </v>
   <v>      -0.30666232       0.29685235      -0.12421987 </v>
   <v>       0.44249797       0.29607359      -0.12430157 </v>
   <v>       0.30889880       0.03746983       0.38894694 </v>
   <v>       0.18353935      -0.21270959       0.38905214 </v>
   <v>      -0.06609136      -0.21297823       0.38895715 </v>
   <v>      -0.06625587       0.28740323       0.38885679 </v>
   <v>       0.18355663       0.28781844       0.38905624 </v>
   <v>      -0.19146912       0.03733153       0.38907810 </v>
   <v>      -0.18538147      -0.45740850      -0.12437252 </v>
   <v>       0.31423454      -0.45750858      -0.12445854 </v>
   <v>      -0.43482168       0.04304705      -0.12440548 </v>
   <v>       0.05810297      -0.46195060       0.38905687 </v>
   <v>       0.43372353      -0.21236407       0.38911364 </v>
   <v>       0.43348002       0.28736115       0.38907077 </v>
   <v>      -0.31631641      -0.21224455       0.38910950 </v>
   <v>      -0.31619178       0.28736001       0.38903345 </v>
   <v>      -0.44124606       0.03751774       0.38881140 </v>
   <v>       0.30852026      -0.46253556       0.38908545 </v>
   <v>      -0.19108346      -0.46227099       0.38909855 </v>
   <v>      -0.43486703      -0.45813559      -0.12442347 </v>
   <v>       0.18389662      -0.03678485      -0.16680801 </v>
   <v>      -0.06665239      -0.03636834      -0.16687742 </v>
   <v>       0.05860070       0.21349318      -0.16668693 </v>
   <v>       0.05876320      -0.28695499      -0.16679154 </v>
   <v>       0.30889524       0.21390592      -0.16671500 </v>
   <v>      -0.19115480       0.21318081      -0.16683229 </v>
   <v>      -0.44130704      -0.46260016       0.38904389 </v>
   <v>       0.30797189      -0.28521196      -0.16608968 </v>
   <v>       0.43276433      -0.03700969      -0.16677220 </v>
   <v>      -0.19166569      -0.28629400      -0.16691002 </v>
   <v>      -0.31610803      -0.03648453      -0.16685230 </v>
   <v>       0.18372878       0.46437148      -0.16674269 </v>
   <v>      -0.06635642       0.46330436      -0.16695728 </v>
   <v>      -0.06135196       0.11994435       0.43427832 </v>
   <v>       0.06269397      -0.12881725       0.43454396 </v>
   <v>       0.18803736       0.12035604       0.43444921 </v>
   <v>      -0.44091312       0.21345767      -0.16671742 </v>
   <v>       0.43380044       0.46373185      -0.16678726 </v>
   <v>      -0.31645903       0.46316710      -0.16694644 </v>
   <v>      -0.18720597      -0.12897983       0.43437029 </v>
   <v>      -0.44119380      -0.28690165      -0.16679048 </v>
   <v>       0.31325737      -0.12976823       0.43448645 </v>
   <v>       0.06300228       0.37064475       0.43446733 </v>
   <v>       0.18834197      -0.37997325       0.43426911 </v>
   <v>      -0.06276442      -0.38054728       0.43446372 </v>
   <v>      -0.31203996       0.12011143       0.43451479 </v>
   <v>       0.43802185       0.12038546       0.43446472 </v>
   <v>      -0.18739846       0.37052171       0.43447920 </v>
   <v>       0.31287656       0.37071725       0.43443876 </v>
   <v>      -0.31188696      -0.37953319       0.43443670 </v>
   <v>       0.43832317      -0.37944754       0.43435359 </v>
   <v>      -0.43715154      -0.12985967       0.43442343 </v>
   <v>      -0.43691750       0.37021044       0.43446464 </v>
   <v>      -0.05442305       0.12480646      -0.21150551 </v>
   <v>       0.07085725      -0.12556384      -0.21159023 </v>
   <v>       0.19567537       0.12501552      -0.21151121 </v>
   <v>      -0.17920712      -0.12564927      -0.21163336 </v>
   <v>       0.32072406      -0.12528477      -0.21160861 </v>
   <v>       0.07080965       0.37448565      -0.21159520 </v>
   <v>      -0.05437257      -0.37520557      -0.21152630 </v>
   <v>      -0.30424953       0.12463953      -0.21156618 </v>
   <v>       0.19528374      -0.37540768      -0.21164161 </v>
   <v>      -0.17933908       0.37454490      -0.21158287 </v>
   <v>       0.44541864       0.12500291      -0.21142944 </v>
   <v>       0.32073884       0.37451399      -0.21158741 </v>
   <v>      -0.30458644      -0.37548308      -0.21150102 </v>
   <v>      -0.42953803      -0.12574009      -0.21163406 </v>
   <v>       0.44613877      -0.37553439      -0.21165773 </v>
   <v>       0.18820114      -0.04411392       0.47860580 </v>
   <v>      -0.06249019      -0.04415933       0.47865951 </v>
   <v>       0.06281083       0.20572770       0.47866090 </v>
   <v>      -0.42907530       0.37444728      -0.21162065 </v>
   <v>       0.06304709      -0.29472166       0.47865781 </v>
   <v>      -0.18687154       0.20546875       0.47849558 </v>
   <v>       0.31290229       0.20580585       0.47858793 </v>
   <v>      -0.18708130      -0.29410770       0.47862177 </v>
   <v>       0.31255782      -0.29434254       0.47861080 </v>
   <v>      -0.31223436      -0.04419717       0.47863998 </v>
   <v>       0.43794342      -0.04413508       0.47862078 </v>
   <v>      -0.06228808       0.45568720       0.47860454 </v>
   <v>       0.18787033       0.45575125       0.47860546 </v>
   <v>      -0.43713535       0.20566270       0.47861368 </v>
   <v>      -0.31218071       0.45576574       0.47863049 </v>
   <v>       0.43788814       0.45589743       0.47862135 </v>
   <v>      -0.43720456      -0.29421496       0.47863402 </v>
   <v>       0.06043192       0.04225389      -0.25581519 </v>
   <v>       0.18594406      -0.20836786      -0.25582605 </v>
   <v>      -0.06420354      -0.20816460      -0.25585041 </v>
   <v>       0.31071224       0.04220384      -0.25590106 </v>
   <v>      -0.18933358       0.04228113      -0.25594663 </v>
   <v>       0.18569810       0.29195470      -0.25587101 </v>
   <v>      -0.06401207       0.29174416      -0.25584100 </v>
   <v>       0.06058497      -0.45786889      -0.25581885 </v>
   <v>       0.43590147      -0.20830121      -0.25584379 </v>
   <v>      -0.31426126      -0.20804485      -0.25584229 </v>
   <v>       0.43581734       0.29191572      -0.25587926 </v>
   <v>      -0.31443801       0.29156098      -0.25595081 </v>
   <v>       0.31077170      -0.45758225      -0.25579020 </v>
   <v>      -0.18938261      -0.45778401      -0.25585605 </v>
   <v>      -0.43956421       0.04221361      -0.25580837 </v>
   <v>       0.06327799      -0.12808267      -0.47876655 </v>
   <v>      -0.06139087       0.12238414      -0.47864744 </v>
   <v>       0.18837253       0.12254320      -0.47866809 </v>
   <v>      -0.18666447      -0.12806512      -0.47874362 </v>
   <v>       0.31377329      -0.12810949      -0.47873115 </v>
   <v>       0.06345806       0.37239473      -0.47862972 </v>
   <v>       0.18848850      -0.37783127      -0.47867369 </v>
   <v>      -0.06161272      -0.37799916      -0.47861172 </v>
   <v>      -0.31144143       0.12213749      -0.47867091 </v>
   <v>       0.43829187       0.12186929      -0.47866556 </v>
   <v>      -0.18668382       0.37209057      -0.47867288 </v>
   <v>       0.31355210       0.37223716      -0.47869931 </v>
   <v>      -0.43927423      -0.45769863      -0.25590242 </v>
   <v>      -0.31159531      -0.37762826      -0.47858765 </v>
   <v>       0.43831365      -0.37771507      -0.47868433 </v>
   <v>      -0.43672960      -0.12806632      -0.47867689 </v>
   <v>      -0.43656274       0.37231448      -0.47868054 </v>
   <v>      -0.05945370      -0.04162580      -0.30028093 </v>
   <v>       0.19042077      -0.04167819      -0.30031216 </v>
   <v>       0.06545725       0.20841390      -0.30030185 </v>
   <v>       0.06541404      -0.29154942      -0.30033167 </v>
   <v>      -0.18449743       0.20840791      -0.30035179 </v>
   <v>       0.31536997       0.20838211      -0.30031334 </v>
   <v>      -0.18455991      -0.29161044      -0.30031235 </v>
   <v>      -0.30947482      -0.04164144      -0.30030208 </v>
   <v>       0.31539108      -0.29157476      -0.30030829 </v>
   <v>       0.44039898      -0.04171793      -0.30030223 </v>
   <v>      -0.05956332       0.45839257      -0.30032175 </v>
   <v>       0.19035577       0.45822749      -0.30032289 </v>
   <v>      -0.43421880       0.20825543      -0.30027009 </v>
   <v>      -0.30945989       0.45831625      -0.30030079 </v>
   <v>       0.44025943       0.45827380      -0.30033515 </v>
   <v>       0.18886649      -0.04261558      -0.43476805 </v>
   <v>      -0.06137377      -0.04225968      -0.43454356 </v>
   <v>       0.06386577       0.20769749      -0.43448380 </v>
   <v>      -0.43460850      -0.29157656      -0.30033930 </v>
   <v>       0.06368041      -0.29218650      -0.43457976 </v>
   <v>      -0.18615619       0.20760809      -0.43462964 </v>
   <v>       0.31396398       0.20780302      -0.43445172 </v>
   <v>      -0.18585769      -0.29239735      -0.43458991 </v>
   <v>      -0.31126849      -0.04228615      -0.43455325 </v>
   <v>       0.31388955      -0.29230631      -0.43448726 </v>
   <v>       0.43886882      -0.04231904      -0.43453418 </v>
   <v>      -0.06103322       0.45738821      -0.43458124 </v>
   <v>       0.18880992       0.45765264      -0.43457269 </v>
   <v>      -0.43606859       0.20743518      -0.43460362 </v>
   <v>      -0.31126574       0.45780924      -0.43455700 </v>
   <v>       0.43880797       0.45772707      -0.43455808 </v>
   <v>      -0.43626754      -0.29245158      -0.43461064 </v>
   <v>       0.05886145      -0.12430239      -0.34508748 </v>
   <v>       0.18393062       0.12578854      -0.34509084 </v>
   <v>      -0.06602416       0.12607354      -0.34502041 </v>
   <v>       0.30882281      -0.12438277      -0.34507796 </v>
   <v>      -0.19114063      -0.12439828      -0.34508168 </v>
   <v>       0.05890833       0.37588019      -0.34509207 </v>
   <v>       0.18398489      -0.37409606      -0.34504043 </v>
   <v>      -0.06593705      -0.37397920      -0.34503704 </v>
   <v>       0.43383405       0.12580127      -0.34509567 </v>
   <v>      -0.31598329       0.12602341      -0.34504486 </v>
   <v>       0.30889335       0.37573448      -0.34508211 </v>
   <v>      -0.19114374       0.37562469      -0.34507472 </v>
   <v>       0.43404382      -0.37402657      -0.34504501 </v>
   <v>      -0.44111955      -0.12435605      -0.34509097 </v>
   <v>      -0.31596160      -0.37386927      -0.34502585 </v>
   <v>      -0.44107619       0.37557537      -0.34505958 </v>
   <v>       0.06280499       0.04175536      -0.38922106 </v>
   <v>      -0.06206674      -0.20819064      -0.38921795 </v>
   <v>       0.18758952      -0.20800560      -0.38913962 </v>
   <v>      -0.18707549       0.04177239      -0.38926644 </v>
   <v>       0.31275778       0.04197849      -0.38907672 </v>
   <v>       0.18781236       0.29171895      -0.38922698 </v>
   <v>      -0.06207148       0.29174926      -0.38920695 </v>
   <v>       0.06270042      -0.45831691      -0.38906354 </v>
   <v>      -0.31230370      -0.20806430      -0.38910729 </v>
   <v>       0.43758549      -0.20797725      -0.38913019 </v>
   <v>       0.43781710       0.29179721      -0.38922564 </v>
   <v>      -0.31238807       0.29197998      -0.38913824 </v>
   <v>      -0.18731912      -0.45814267      -0.38914161 </v>
   <v>       0.31268994      -0.45807056      -0.38913220 </v>
   <v>      -0.43716060       0.04174526      -0.38921092 </v>
   <v>      -0.43727728      -0.45817128      -0.38914661 </v>
  </varray>
 </structure>
 <varray name="primitive_index" >
  <v type="int" >        1 </v>
  <v type="int" >       26 </v>
  <v type="int" >       86 </v>
  <v type="int" >       60 </v>
  <v type="int" >      256 </v>
  <v type="int" >      111 </v>
  <v type="int" >       83 </v>
  <v type="int" >      155 </v>
  <v type="int" >      202 </v>
  <v type="int" >      212 </v>
  <v type="int" >       51 </v>
  <v type="int" >      102 </v>
  <v type="int" >      192 </v>
  <v type="int" >      252 </v>
  <v type="int" >      166 </v>
  <v type="int" >      146 </v>
  <v type="int" >       50 </v>
  <v type="int" >        5 </v>
  <v type="int" >      273 </v>
  <v type="int" >      104 </v>
  <v type="int" >      117 </v>
  <v type="int" >      176 </v>
  <v type="int" >      145 </v>
  <v type="int" >       48 </v>
  <v type="int" >      182 </v>
  <v type="int" >      163 </v>
  <v type="int" >       20 </v>
  <v type="int" >      123 </v>
  <v type="int" >      250 </v>
  <v type="int" >      251 </v>
  <v type="int" >       91 </v>
  <v type="int" >      205 </v>
  <v type="int" >      167 </v>
  <v type="int" >      229 </v>
  <v type="int" >      276 </v>
  <v type="int" >      277 </v>
  <v type="int" >       97 </v>
  <v type="int" >      189 </v>
  <v type="int" >      213 </v>
  <v type="int" >      175 </v>
  <v type="int" >       92 </v>
  <v type="int" >      174 </v>
  <v type="int" >       30 </v>
  <v type="int" >      185 </v>
  <v type="int" >      103 </v>
  <v type="int" >      139 </v>
  <v type="int" >       52 </v>
  <v type="int" >       24 </v>
  <v type="int" >      200 </v>
  <v type="int" >      127 </v>
  <v type="int" >       35 </v>
  <v type="int" >      179 </v>
  <v type="int" >      164 </v>
  <v type="int" >      261 </v>
  <v type="int" >      243 </v>
  <v type="int" >      118 </v>
  <v type="int" >      168 </v>
  <v type="int" >       58 </v>
  <v type="int" >      137 </v>
  <v type="int" >      265 </v>
  <v type="int" >       81 </v>
  <v type="int" >      281 </v>
  <v type="int" >      275 </v>
  <v type="int" >      214 </v>
  <v type="int" >      215 </v>
  <v type="int" >      135 </v>
  <v type="int" >       98 </v>
  <v type="int" >       72 </v>
  <v type="int" >      226 </v>
  <v type="int" >      263 </v>
  <v type="int" >      159 </v>
  <v type="int" >       28 </v>
  <v type="int" >      178 </v>
  <v type="int" >      242 </v>
  <v type="int" >      109 </v>
  <v type="int" >      220 </v>
  <v type="int" >      101 </v>
  <v type="int" >      210 </v>
  <v type="int" >      130 </v>
  <v type="int" >      171 </v>
  <v type="int" >      287 </v>
  <v type="int" >      258 </v>
  <v type="int" >       47 </v>
  <v type="int" >      207 </v>
  <v type="int" >      216 </v>
  <v type="int" >      282 </v>
  <v type="int" >       73 </v>
  <v type="int" >       25 </v>
  <v type="int" >       12 </v>
  <v type="int" >      208 </v>
  <v type="int" >      116 </v>
  <v type="int" >      172 </v>
  <v type="int" >      219 </v>
  <v type="int" >      279 </v>
  <v type="int" >      206 </v>
  <v type="int" >       84 </v>
  <v type="int" >       62 </v>
  <v type="int" >      268 </v>
  <v type="int" >      105 </v>
  <v type="int" >        2 </v>
  <v type="int" >      245 </v>
  <v type="int" >      280 </v>
  <v type="int" >      120 </v>
  <v type="int" >      124 </v>
  <v type="int" >       29 </v>
  <v type="int" >      266 </v>
  <v type="int" >      150 </v>
  <v type="int" >      191 </v>
  <v type="int" >      255 </v>
  <v type="int" >      165 </v>
  <v type="int" >        7 </v>
  <v type="int" >      190 </v>
  <v type="int" >       13 </v>
  <v type="int" >      248 </v>
  <v type="int" >       38 </v>
  <v type="int" >      247 </v>
  <v type="int" >       18 </v>
  <v type="int" >      161 </v>
  <v type="int" >      286 </v>
  <v type="int" >      264 </v>
  <v type="int" >        4 </v>
  <v type="int" >       45 </v>
  <v type="int" >       55 </v>
  <v type="int" >       16 </v>
  <v type="int" >       67 </v>
  <v type="int" >      270 </v>
  <v type="int" >       64 </v>
  <v type="int" >      173 </v>
  <v type="int" >       17 </v>
  <v type="int" >      259 </v>
  <v type="int" >      134 </v>
  <v type="int" >       39 </v>
  <v type="int" >        6 </v>
  <v type="int" >      222 </v>
  <v type="int" >      283 </v>
  <v type="int" >      110 </v>
  <v type="int" >      253 </v>
  <v type="int" >       88 </v>
  <v type="int" >      181 </v>
  <v type="int" >       36 </v>
  <v type="int" >      158 </v>
  <v type="int" >      204 </v>
  <v type="int" >      160 </v>
  <v type="int" >      143 </v>
  <v type="int" >       74 </v>
  <v type="int" >       82 </v>
  <v type="int" >      285 </v>
  <v type="int" >      241 </v>
  <v type="int" >       23 </v>
  <v type="int" >      218 </v>
  <v type="int" >      238 </v>
  <v type="int" >      131 </v>
  <v type="int" >      257 </v>
  <v type="int" >      201 </v>
  <v type="int" >       80 </v>
  <v type="int" >      113 </v>
  <v type="int" >      232 </v>
  <v type="int" >      249 </v>
  <v type="int" >       69 </v>
  <v type="int" >      235 </v>
  <v type="int" >      149 </v>
  <v type="int" >      197 </v>
  <v type="int" >        3 </v>
  <v type="int" >      112 </v>
  <v type="int" >      224 </v>
  <v type="int" >      254 </v>
  <v type="int" >      132 </v>
  <v type="int" >      188 </v>
  <v type="int" >      272 </v>
  <v type="int" >       57 </v>
  <v type="int" >       49 </v>
  <v type="int" >      138 </v>
  <v type="int" >       66 </v>
  <v type="int" >       33 </v>
  <v type="int" >      184 </v>
  <v type="int" >      288 </v>
  <v type="int" >      236 </v>
  <v type="int" >      223 </v>
  <v type="int" >      106 </v>
  <v type="int" >      157 </v>
  <v type="int" >       21 </v>
  <v type="int" >      230 </v>
  <v type="int" >      234 </v>
  <v type="int" >       99 </v>
  <v type="int" >       75 </v>
  <v type="int" >      221 </v>
  <v type="int" >      269 </v>
  <v type="int" >      244 </v>
  <v type="int" >      237 </v>
  <v type="int" >      199 </v>
  <v type="int" >      156 </v>
  <v type="int" >      169 </v>
  <v type="int" >        9 </v>
  <v type="int" >      262 </v>
  <v type="int" >       46 </v>
  <v type="int" >      239 </v>
  <v type="int" >      151 </v>
  <v type="int" >       11 </v>
  <v type="int" >      187 </v>
  <v type="int" >      211 </v>
  <v type="int" >       31 </v>
  <v type="int" >       43 </v>
  <v type="int" >       71 </v>
  <v type="int" >       19 </v>
  <v type="int" >       94 </v>
  <v type="int" >       87 </v>
  <v type="int" >      267 </v>
  <v type="int" >      284 </v>
  <v type="int" >       27 </v>
  <v type="int" >      140 </v>
  <v type="int" >       10 </v>
  <v type="int" >      144 </v>
  <v type="int" >      107 </v>
  <v type="int" >       68 </v>
  <v type="int" >      203 </v>
  <v type="int" >       34 </v>
  <v type="int" >      152 </v>
  <v type="int" >      177 </v>
  <v type="int" >      183 </v>
  <v type="int" >      278 </v>
  <v type="int" >      195 </v>
  <v type="int" >       14 </v>
  <v type="int" >       77 </v>
  <v type="int" >      108 </v>
  <v type="int" >      225 </v>
  <v type="int" >      119 </v>
  <v type="int" >       37 </v>
  <v type="int" >      274 </v>
  <v type="int" >      233 </v>
  <v type="int" >       63 </v>
  <v type="int" >      141 </v>
  <v type="int" >       54 </v>
  <v type="int" >      154 </v>
  <v type="int" >      125 </v>
  <v type="int" >      136 </v>
  <v type="int" >      246 </v>
  <v type="int" >       53 </v>
  <v type="int" >       76 </v>
  <v type="int" >      193 </v>
  <v type="int" >      162 </v>
  <v type="int" >      129 </v>
  <v type="int" >      170 </v>
  <v type="int" >      133 </v>
  <v type="int" >       65 </v>
  <v type="int" >      271 </v>
  <v type="int" >       93 </v>
  <v type="int" >       32 </v>
  <v type="int" >       95 </v>
  <v type="int" >       90 </v>
  <v type="int" >       56 </v>
  <v type="int" >       42 </v>
  <v type="int" >       59 </v>
  <v type="int" >        8 </v>
  <v type="int" >      228 </v>
  <v type="int" >       70 </v>
  <v type="int" >      186 </v>
  <v type="int" >      196 </v>
  <v type="int" >      121 </v>
  <v type="int" >      122 </v>
  <v type="int" >       44 </v>
  <v type="int" >       79 </v>
  <v type="int" >      198 </v>
  <v type="int" >      153 </v>
  <v type="int" >      240 </v>
  <v type="int" >      231 </v>
  <v type="int" >      209 </v>
  <v type="int" >       85 </v>
  <v type="int" >      194 </v>
  <v type="int" >       40 </v>
  <v type="int" >       89 </v>
  <v type="int" >      227 </v>
  <v type="int" >       78 </v>
  <v type="int" >      142 </v>
  <v type="int" >      114 </v>
  <v type="int" >       15 </v>
  <v type="int" >      217 </v>
  <v type="int" >      148 </v>
  <v type="int" >       61 </v>
  <v type="int" >      100 </v>
  <v type="int" >      126 </v>
  <v type="int" >      180 </v>
  <v type="int" >       96 </v>
  <v type="int" >      115 </v>
  <v type="int" >      147 </v>
  <v type="int" >       22 </v>
  <v type="int" >       41 </v>
  <v type="int" >      260 </v>
  <v type="int" >      128 </v>
 </varray>
 <kpoints>
  <generation param="Gamma">
   <v type="int" name="divisions">       4        4        1 </v>
   <v name="usershift">      0.00000000       0.00000000       0.00000000 </v>
   <v name="genvec1">      0.25000000       0.00000000       0.00000000 </v>
   <v name="genvec2">      0.00000000       0.25000000       0.00000000 </v>
   <v name="genvec3">      0.00000000       0.00000000       1.00000000 </v>
   <v name="shift">      0.00000000       0.00000000       0.00000000 </v>
  </generation>
  <varray name="kpointlist" >
   <v>       0.00000000       0.00000000       0.00000000 </v>
   <v>       0.25000000       0.00000000       0.00000000 </v>
   <v>       0.50000000       0.00000000       0.00000000 </v>
   <v>       0.00000000       0.25000000       0.00000000 </v>
   <v>       0.25000000       0.25000000       0.00000000 </v>
   <v>       0.50000000       0.25000000       0.00000000 </v>
   <v>      -0.25000000       0.25000000       0.00000000 </v>
   <v>       0.00000000       0.50000000       0.00000000 </v>
   <v>       0.25000000       0.50000000       0.00000000 </v>
   <v>       0.50000000       0.50000000       0.00000000 </v>
  </varray>
  <varray name="weights" >
   <v>       0.06250000 </v>
   <v>       0.12500000 </v>
   <v>       0.06250000 </v>
   <v>       0.12500000 </v>
   <v>       0.12500000 </v>
   <v>       0.12500000 </v>
   <v>       0.12500000 </v>
   <v>       0.06250000 </v>
   <v>       0.12500000 </v>
   <v>       0.06250000 </v>
  </varray>
 </kpoints>
 <parameters>
  <separator name="general" >
   <i type="string" name="SYSTEM">unknown system</i>
   <i type="logical" name="LCOMPAT"> F  </i>
  </separator>
  <separator name="electronic" >
   <i type="string" name="PREC">accura</i>
   <i name="ENMAX">    450.00000000</i>
   <i name="ENAUG">    838.43500000</i>
   <i name="EDIFF">      0.00000100</i>
   <i type="int" name="IALGO">    68</i>
   <i type="int" name="IWAVPR">    11</i>
   <i type="int" name="NBANDS">  1386</i>
   <i name="NELECT">   2297.00000000</i>
   <i type="int" name="TURBO">     0</i>
   <i type="int" name="IRESTART">     0</i>
   <i type="int" name="NREBOOT">     0</i>
   <i type="int" name="NMIN">     0</i>
   <i name="EREF">      0.00000000</i>
   <separator name="electronic smearing" >
    <i type="int" name="ISMEAR">     0</i>
    <i name="SIGMA">      0.15000000</i>
    <i name="KSPACING">      0.50000000</i>
    <i type="logical" name="KGAMMA"> T  </i>
   </separator>
   <separator name="electronic projectors" >
    <i type="logical" name="LREAL"> T  </i>
    <v name="ROPT">     -0.00025000     -0.00025000</v>
    <i type="int" name="LMAXPAW">  -100</i>
    <i type="int" name="LMAXMIX">     2</i>
    <i type="logical" name="NLSPLINE"> F  </i>
   </separator>
   <separator name="electronic startup" >
    <i type="int" name="ISTART">     0</i>
    <i type="int" name="ICHARG">     2</i>
    <i type="int" name="INIWAV">     1</i>
   </separator>
   <separator name="electronic spin" >
    <i type="int" name="ISPIN">     1</i>
    <i type="logical" name="LNONCOLLINEAR"> F  </i>
    <v name="MAGMOM">      1.00000000      1.00000000      1.00000000      1.00000000      1.00000000      1.00000000      1.00000000      1.00000000      1.00000000      1.00000000      1.00000000      1.00000000      1.00000000      1.00000000      1.00000000      1.00000000      1.00000000      1.00000000      1.00000000      1.00000000
      1.00000000      1.00000000      1.00000000      1.00000000      1.00000000      1.00000000      1.00000000      1.00000000      1.00000000      1.00000000      1.00000000      1.00000000      1.00000000      1.00000000      1.00000000      1.00000000      1.00000000      1.00000000      1.00000000      1.00000000
      1.00000000      1.00000000      1.00000000      1.00000000      1.00000000      1.00000000      1.00000000      1.00000000      1.00000000      1.00000000      1.00000000      1.00000000      1.00000000      1.00000000      1.00000000      1.00000000      1.00000000      1.00000000      1.00000000      1.00000000
      1.00000000      1.00000000      1.00000000      1.00000000      1.00000000      1.00000000      1.00000000      1.00000000      1.00000000      1.00000000      1.00000000      1.00000000      1.00000000      1.00000000      1.00000000      1.00000000      1.00000000      1.00000000      1.00000000      1.00000000
      1.00000000      1.00000000      1.00000000      1.00000000      1.00000000      1.00000000      1.00000000      1.00000000      1.00000000      1.00000000      1.00000000      1.00000000      1.00000000      1.00000000      1.00000000      1.00000000      1.00000000      1.00000000      1.00000000      1.00000000
      1.00000000      1.00000000      1.00000000      1.00000000      1.00000000      1.00000000      1.00000000      1.00000000      1.00000000      1.00000000      1.00000000      1.00000000      1.00000000      1.00000000      1.00000000      1.00000000      1.00000000      1.00000000      1.00000000      1.00000000
      1.00000000      1.00000000      1.00000000      1.00000000      1.00000000      1.00000000      1.00000000      1.00000000      1.00000000      1.00000000      1.00000000      1.00000000      1.00000000      1.00000000      1.00000000      1.00000000      1.00000000      1.00000000      1.00000000      1.00000000
      1.00000000      1.00000000      1.00000000      1.00000000      1.00000000      1.00000000      1.00000000      1.00000000      1.00000000      1.00000000      1.00000000      1.00000000      1.00000000      1.00000000      1.00000000      1.00000000      1.00000000      1.00000000      1.00000000      1.00000000
      1.00000000      1.00000000      1.00000000      1.00000000      1.00000000      1.00000000      1.00000000      1.00000000      1.00000000      1.00000000      1.00000000      1.00000000      1.00000000      1.00000000      1.00000000      1.00000000      1.00000000      1.00000000      1.00000000      1.00000000
      1.00000000      1.00000000      1.00000000      1.00000000      1.00000000      1.00000000      1.00000000      1.00000000      1.00000000      1.00000000      1.00000000      1.00000000      1.00000000      1.00000000      1.00000000      1.00000000      1.00000000      1.00000000      1.00000000      1.00000000
      1.00000000      1.00000000      1.00000000      1.00000000      1.00000000      1.00000000      1.00000000      1.00000000      1.00000000      1.00000000      1.00000000      1.00000000      1.00000000      1.00000000      1.00000000      1.00000000      1.00000000      1.00000000      1.00000000      1.00000000
      1.00000000      1.00000000      1.00000000      1.00000000      1.00000000      1.00000000      1.00000000      1.00000000      1.00000000      1.00000000      1.00000000      1.00000000      1.00000000      1.00000000      1.00000000      1.00000000      1.00000000      1.00000000      1.00000000      1.00000000
      1.00000000      1.00000000      1.00000000      1.00000000      1.00000000      1.00000000      1.00000000      1.00000000      1.00000000      1.00000000      1.00000000      1.00000000      1.00000000      1.00000000      1.00000000      1.00000000      1.00000000      1.00000000      1.00000000      1.00000000
      1.00000000      1.00000000      1.00000000      1.00000000      1.00000000      1.00000000      1.00000000      1.00000000      1.00000000      1.00000000      1.00000000      1.00000000      1.00000000      1.00000000      1.00000000      1.00000000      1.00000000      1.00000000      1.00000000      1.00000000
      1.00000000      1.00000000      1.00000000      1.00000000      1.00000000      1.00000000      1.00000000      1.00000000</v>
    <i name="NUPDOWN">     -1.00000000</i>
    <i type="logical" name="LSORBIT"> F  </i>
    <v name="SAXIS">      0.00000000      0.00000000      1.00000000</v>
    <i type="logical" name="LSPIRAL"> F  </i>
    <v name="QSPIRAL">      0.00000000      0.00000000      0.00000000</v>
    <i type="logical" name="LZEROZ"> F  </i>
   </separator>
   <separator name="electronic exchange-correlation" >
    <i type="logical" name="LASPH"> F  </i>
    <i type="logical" name="LMETAGGA"> F  </i>
   </separator>
   <separator name="electronic convergence" >
    <i type="int" name="NELM">   100</i>
    <i type="int" name="NELMDL">     0</i>
    <i type="int" name="NELMIN">     4</i>
    <i name="ENINI">    450.00000000</i>
    <separator name="electronic convergence detail" >
     <i type="logical" name="LDIAG"> T  </i>
     <i type="logical" name="LSUBROT"> F  </i>
     <i name="WEIMIN">      0.00100000</i>
     <i name="EBREAK">      0.00000000</i>
     <i name="DEPER">      0.30000000</i>
     <i type="int" name="NRMM">     4</i>
     <i name="TIME">      0.40000000</i>
    </separator>
   </separator>
   <separator name="electronic mixer" >
    <i name="AMIX">      0.40000000</i>
    <i name="BMIX">      1.00000000</i>
    <i name="AMIN">      0.10000000</i>
    <i name="AMIX_MAG">      1.60000000</i>
    <i name="BMIX_MAG">      1.00000000</i>
    <separator name="electronic mixer details" >
     <i type="int" name="IMIX">     4</i>
     <i type="logical" name="MIXFIRST"> F  </i>
     <i type="int" name="MAXMIX">   -45</i>
     <i name="WC">    100.00000000</i>
     <i type="int" name="INIMIX">     1</i>
     <i type="int" name="MIXPRE">     1</i>
     <i type="int" name="MREMOVE">     5</i>
    </separator>
   </separator>
   <separator name="electronic dipolcorrection" >
    <i type="logical" name="LDIPOL"> F  </i>
    <i type="logical" name="LMONO"> F  </i>
    <i type="int" name="IDIPOL">     0</i>
    <i name="EPSILON">      1.00000000</i>
    <v name="DIPOL">   -100.00000000   -100.00000000   -100.00000000</v>
    <i name="EFIELD">      0.00000000</i>
   </separator>
  </separator>
  <separator name="grids" >
   <i type="int" name="NGX">    70</i>
   <i type="int" name="NGY">    60</i>
   <i type="int" name="NGZ">   320</i>
   <i type="int" name="NGXF">   140</i>
   <i type="int" name="NGYF">   120</i>
   <i type="int" name="NGZF">   640</i>
   <i type="logical" name="ADDGRID"> F  </i>
  </separator>
  <separator name="ionic" >
   <i type="int" name="NSW">     5</i>
   <i type="int" name="IBRION">     2</i>
   <i type="int" name="MDALGO">     0</i>
   <i type="int" name="ISIF">     2</i>
   <i name="PSTRESS">      0.00000000</i>
   <i name="EDIFFG">      0.00001000</i>
   <i type="int" name="NFREE">     1</i>
   <i name="POTIM">      0.25000000</i>
   <i name="SMASS">     -3.00000000</i>
   <i name="SCALEE">      1.00000000</i>
  </separator>
  <separator name="ionic md" >
   <i name="TEBEG">      0.00010000</i>
   <i name="TEEND">      0.00010000</i>
   <i type="int" name="NBLOCK">     1</i>
   <i type="int" name="KBLOCK">     5</i>
   <i type="int" name="NPACO">   256</i>
   <i name="APACO">     16.00000000</i>
  </separator>
  <separator name="symmetry" >
   <i type="int" name="ISYM">     2</i>
   <i name="SYMPREC">      0.00001000</i>
  </separator>
  <separator name="dos" >
   <i type="int" name="LORBIT">     0</i>
   <v name="RWIGS">     -1.00000000     -1.00000000</v>
   <i type="int" name="NEDOS">   301</i>
   <i name="EMIN">     10.00000000</i>
   <i name="EMAX">    -10.00000000</i>
   <i name="EFERMI">      0.00000000</i>
  </separator>
  <separator name="writing" >
   <i type="int" name="NWRITE">     2</i>
   <i type="logical" name="LWAVE"> F  </i>
   <i type="logical" name="LDOWNSAMPLE"> F  </i>
   <i type="logical" name="LCHARG"> F  </i>
   <i type="logical" name="LPARD"> F  </i>
   <i type="logical" name="LVTOT"> F  </i>
   <i type="logical" name="LVHAR"> F  </i>
   <i type="logical" name="LELF"> F  </i>
   <i type="logical" name="LOPTICS"> F  </i>
   <v name="STM">      0.00000000      0.00000000      0.00000000      0.00000000      0.00000000      0.00000000      0.00000000</v>
  </separator>
  <separator name="performance" >
   <i type="int" name="NPAR">    14</i>
   <i type="int" name="NSIM">     4</i>
   <i type="int" name="NBLK">    -1</i>
   <i type="logical" name="LPLANE"> T  </i>
   <i type="logical" name="LSCALAPACK"> T  </i>
   <i type="logical" name="LSCAAWARE"> T  </i>
   <i type="logical" name="LSCALU"> F  </i>
   <i type="logical" name="LASYNC"> F  </i>
   <i type="logical" name="LORBITALREAL"> F  </i>
  </separator>
  <separator name="miscellaneous" >
   <i type="int" name="IDIOT">     3</i>
   <i type="int" name="ISPECIAL">     0</i>
   <i type="logical" name="LMUSIC"> F  </i>
   <v name="POMASS">     55.84700000     54.93800000</v>
   <v name="DARWINR">      0.00000000      0.00000000</v>
   <v name="DARWINV">      1.00000000      1.00000000</v>
   <i type="logical" name="LCORR"> T  </i>
  </separator>
  <i type="logical" name="GGA_COMPAT"> T  </i>
  <i type="logical" name="LBERRY"> F  </i>
  <i type="int" name="ICORELEVEL">     0</i>
  <i type="logical" name="LDAU"> F  </i>
  <i type="int" name="I_CONSTRAINED_M">     0</i>
  <separator name="electronic exchange-correlation" >
   <i type="string" name="GGA">--</i>
   <i type="int" name="VOSKOWN">     0</i>
   <i type="logical" name="LHFCALC"> F  </i>
   <i type="string" name="PRECFOCK"></i>
   <i type="logical" name="LSYMGRAD"> F  </i>
   <i type="logical" name="LHFONE"> F  </i>
   <i type="logical" name="LRHFCALC"> F  </i>
   <i type="logical" name="LTHOMAS"> F  </i>
   <i type="logical" name="LMODELHF"> F  </i>
   <i name="ENCUT4O">     -1.00000000</i>
   <i type="int" name="EXXOEP">     0</i>
   <i type="int" name="FOURORBIT">     0</i>
   <i name="AEXX">      0.00000000</i>
   <i name="HFALPHA">      0.00000000</i>
   <i name="MCALPHA">      0.00000000</i>
   <i name="ALDAX">      1.00000000</i>
   <i name="AGGAX">      1.00000000</i>
   <i name="ALDAC">      1.00000000</i>
   <i name="AGGAC">      1.00000000</i>
   <i type="int" name="NKREDX">     1</i>
   <i type="int" name="NKREDY">     1</i>
   <i type="int" name="NKREDZ">     1</i>
   <i type="logical" name="SHIFTRED"> F  </i>
   <i type="logical" name="ODDONLY"> F  </i>
   <i type="logical" name="EVENONLY"> F  </i>
   <i type="int" name="LMAXFOCK">     0</i>
   <i type="int" name="NMAXFOCKAE">     0</i>
   <i type="logical" name="LFOCKAEDFT"> F  </i>
   <i name="HFSCREEN">      0.00000000</i>
   <i name="HFSCREENC">      0.00000000</i>
   <i type="int" name="NBANDSGWLOW">     0</i>
  </separator>
  <separator name="vdW DFT" >
   <i type="logical" name="LUSE_VDW"> F  </i>
   <i name="Zab_VDW">     -0.84910000</i>
   <i name="PARAM1">      0.12340000</i>
   <i name="PARAM2">      1.00000000</i>
   <i name="PARAM3">      0.00000000</i>
  </separator>
  <separator name="model GW" >
   <i type="int" name="MODEL_GW">     0</i>
   <i name="MODEL_EPS0">      7.68123389</i>
   <i name="MODEL_ALPHA">      1.00000000</i>
  </separator>
  <separator name="linear response parameters" >
   <i type="logical" name="LEPSILON"> F  </i>
   <i type="logical" name="LRPA"> F  </i>
   <i type="logical" name="LNABLA"> F  </i>
   <i type="logical" name="LVEL"> F  </i>
   <i type="int" name="KINTER">     0</i>
   <i name="CSHIFT">      0.10000000</i>
   <i name="OMEGAMAX">     -1.00000000</i>
   <i name="DEG_THRESHOLD">      0.00200000</i>
   <i name="RTIME">     -0.10000000</i>
   <i name="WPLASMAI">      0.00000000</i>
   <v name="DFIELD">      0.00000000      0.00000000      0.00000000</v>
   <v name="WPLASMA">      0.00000000      0.00000000      0.00000000      0.00000000      0.00000000      0.00000000      0.00000000      0.00000000      0.00000000</v>
  </separator>
  <separator name="orbital magnetization" >
   <i type="logical" name="NUCIND"> F  </i>
   <v name="MAGPOS">      0.00000000      0.00000000      0.00000000</v>
   <i type="logical" name="LNICSALL"> T  </i>
   <i type="logical" name="ORBITALMAG"> F  </i>
   <i type="logical" name="LMAGBLOCH"> F  </i>
   <i type="logical" name="LCHIMAG"> F  </i>
   <i type="logical" name="LGAUGE"> T  </i>
   <i type="int" name="MAGATOM">     0</i>
   <v name="MAGDIPOL">      0.00000000      0.00000000      0.00000000</v>
   <v name="AVECCONST">      0.00000000      0.00000000      0.00000000</v>
  </separator>
  <separator name="response functions" >
   <i type="logical" name="LADDER"> F  </i>
   <i type="logical" name="LRPAFORCE"> F  </i>
   <i type="logical" name="LFXC"> F  </i>
   <i type="logical" name="LHARTREE"> T  </i>
   <i type="int" name="IBSE">     0</i>
   <v type="int" name="KPOINT">    -1     0     0     0</v>
   <i type="logical" name="LTCTE"> F  </i>
   <i type="logical" name="LTETE"> F  </i>
   <i type="logical" name="LTRIPLET"> F  </i>
   <i type="logical" name="LFXCEPS"> F  </i>
   <i type="logical" name="LFXHEG"> F  </i>
   <i type="int" name="NATURALO">     2</i>
   <i type="logical" name="L2ORDER"> F  </i>
   <i type="logical" name="LMP2LT"> F  </i>
   <i type="logical" name="LUSEW"> F  </i>
   <i name="ENCUTGW">     -2.00000000</i>
   <i name="ENCUTGWSOFT">     -2.00000000</i>
   <i name="ENCUTLF">     -1.00000000</i>
   <i type="int" name="LMAXMP2">    -1</i>
   <i name="SCISSOR">      0.00000000</i>
   <i type="int" name="NOMEGA">     0</i>
   <i type="int" name="NOMEGAR">     0</i>
   <i type="int" name="NBANDSGW">    -1</i>
   <i type="int" name="NBANDSO">    -1</i>
   <i type="int" name="NBANDSV">    -1</i>
   <i type="int" name="NELM">   100</i>
   <i type="int" name="NELMHF">     1</i>
   <i type="int" name="DIM">     3</i>
   <i type="int" name="ANTIRES">     0</i>
   <i name="OMEGAMAX">    -30.00000000</i>
   <i name="OMEGAMIN">    -30.00000000</i>
   <i name="OMEGATL">   -200.00000000</i>
   <i type="int" name="OMEGAGRID">   140</i>
   <i name="CSHIFT">     -0.10000000</i>
   <i type="logical" name="SELFENERGY"> F  </i>
   <i type="logical" name="LSPECTRAL"> F  </i>
   <i type="logical" name="LSPECTRALGW"> F  </i>
   <i type="logical" name="LSINGLES"> F  </i>
   <i type="logical" name="LFERMIGW"> F  </i>
   <i type="logical" name="ODDONLYGW"> F  </i>
   <i type="logical" name="EVENONLYGW"> F  </i>
   <i type="int" name="NKREDLFX">     1</i>
   <i type="int" name="NKREDLFY">     1</i>
   <i type="int" name="NKREDLFZ">     1</i>
   <i type="int" name="MAXMEM">  2800</i>
   <i type="int" name="TELESCOPE">     0</i>
   <i type="int" name="TAUPAR">     1</i>
   <i type="int" name="OMEGAPAR">    -1</i>
   <i name="LAMBDA">      1.00000000</i>
  </separator>
  <separator name="External order field" >
   <i name="OFIELD_KAPPA">      0.00000000</i>
   <v name="OFIELD_K">      0.00000000      0.00000000      0.00000000</v>
   <i name="OFIELD_Q6_NEAR">      0.00000000</i>
   <i name="OFIELD_Q6_FAR">      0.00000000</i>
   <i name="OFIELD_A">      0.00000000</i>
  </separator>
 </parameters>
 <atominfo>
  <atoms>     288 </atoms>
  <types>       2 </types>
  <array name="atoms" >
   <dimension dim="1">ion</dimension>
   <field type="string">element</field>
   <field type="int">atomtype</field>
   <set>
    <rc><c>Fe</c><c>   1</c></rc>
    <rc><c>Fe</c><c>   1</c></rc>
    <rc><c>Fe</c><c>   1</c></rc>
    <rc><c>Fe</c><c>   1</c></rc>
    <rc><c>Fe</c><c>   1</c></rc>
    <rc><c>Fe</c><c>   1</c></rc>
    <rc><c>Fe</c><c>   1</c></rc>
    <rc><c>Fe</c><c>   1</c></rc>
    <rc><c>Fe</c><c>   1</c></rc>
    <rc><c>Fe</c><c>   1</c></rc>
    <rc><c>Fe</c><c>   1</c></rc>
    <rc><c>Fe</c><c>   1</c></rc>
    <rc><c>Fe</c><c>   1</c></rc>
    <rc><c>Fe</c><c>   1</c></rc>
    <rc><c>Fe</c><c>   1</c></rc>
    <rc><c>Fe</c><c>   1</c></rc>
    <rc><c>Fe</c><c>   1</c></rc>
    <rc><c>Fe</c><c>   1</c></rc>
    <rc><c>Fe</c><c>   1</c></rc>
    <rc><c>Fe</c><c>   1</c></rc>
    <rc><c>Fe</c><c>   1</c></rc>
    <rc><c>Fe</c><c>   1</c></rc>
    <rc><c>Fe</c><c>   1</c></rc>
    <rc><c>Fe</c><c>   1</c></rc>
    <rc><c>Fe</c><c>   1</c></rc>
    <rc><c>Fe</c><c>   1</c></rc>
    <rc><c>Fe</c><c>   1</c></rc>
    <rc><c>Fe</c><c>   1</c></rc>
    <rc><c>Fe</c><c>   1</c></rc>
    <rc><c>Fe</c><c>   1</c></rc>
    <rc><c>Fe</c><c>   1</c></rc>
    <rc><c>Fe</c><c>   1</c></rc>
    <rc><c>Fe</c><c>   1</c></rc>
    <rc><c>Fe</c><c>   1</c></rc>
    <rc><c>Fe</c><c>   1</c></rc>
    <rc><c>Fe</c><c>   1</c></rc>
    <rc><c>Fe</c><c>   1</c></rc>
    <rc><c>Fe</c><c>   1</c></rc>
    <rc><c>Fe</c><c>   1</c></rc>
    <rc><c>Fe</c><c>   1</c></rc>
    <rc><c>Fe</c><c>   1</c></rc>
    <rc><c>Fe</c><c>   1</c></rc>
    <rc><c>Fe</c><c>   1</c></rc>
    <rc><c>Fe</c><c>   1</c></rc>
    <rc><c>Fe</c><c>   1</c></rc>
    <rc><c>Fe</c><c>   1</c></rc>
    <rc><c>Fe</c><c>   1</c></rc>
    <rc><c>Fe</c><c>   1</c></rc>
    <rc><c>Fe</c><c>   1</c></rc>
    <rc><c>Fe</c><c>   1</c></rc>
    <rc><c>Fe</c><c>   1</c></rc>
    <rc><c>Fe</c><c>   1</c></rc>
    <rc><c>Fe</c><c>   1</c></rc>
    <rc><c>Fe</c><c>   1</c></rc>
    <rc><c>Fe</c><c>   1</c></rc>
    <rc><c>Fe</c><c>   1</c></rc>
    <rc><c>Fe</c><c>   1</c></rc>
    <rc><c>Fe</c><c>   1</c></rc>
    <rc><c>Fe</c><c>   1</c></rc>
    <rc><c>Fe</c><c>   1</c></rc>
    <rc><c>Fe</c><c>   1</c></rc>
    <rc><c>Fe</c><c>   1</c></rc>
    <rc><c>Fe</c><c>   1</c></rc>
    <rc><c>Fe</c><c>   1</c></rc>
    <rc><c>Fe</c><c>   1</c></rc>
    <rc><c>Fe</c><c>   1</c></rc>
    <rc><c>Fe</c><c>   1</c></rc>
    <rc><c>Fe</c><c>   1</c></rc>
    <rc><c>Fe</c><c>   1</c></rc>
    <rc><c>Fe</c><c>   1</c></rc>
    <rc><c>Fe</c><c>   1</c></rc>
    <rc><c>Fe</c><c>   1</c></rc>
    <rc><c>Fe</c><c>   1</c></rc>
    <rc><c>Fe</c><c>   1</c></rc>
    <rc><c>Fe</c><c>   1</c></rc>
    <rc><c>Fe</c><c>   1</c></rc>
    <rc><c>Fe</c><c>   1</c></rc>
    <rc><c>Fe</c><c>   1</c></rc>
    <rc><c>Fe</c><c>   1</c></rc>
    <rc><c>Fe</c><c>   1</c></rc>
    <rc><c>Fe</c><c>   1</c></rc>
    <rc><c>Fe</c><c>   1</c></rc>
    <rc><c>Fe</c><c>   1</c></rc>
    <rc><c>Fe</c><c>   1</c></rc>
    <rc><c>Fe</c><c>   1</c></rc>
    <rc><c>Fe</c><c>   1</c></rc>
    <rc><c>Fe</c><c>   1</c></rc>
    <rc><c>Fe</c><c>   1</c></rc>
    <rc><c>Fe</c><c>   1</c></rc>
    <rc><c>Fe</c><c>   1</c></rc>
    <rc><c>Fe</c><c>   1</c></rc>
    <rc><c>Fe</c><c>   1</c></rc>
    <rc><c>Fe</c><c>   1</c></rc>
    <rc><c>Fe</c><c>   1</c></rc>
    <rc><c>Fe</c><c>   1</c></rc>
    <rc><c>Fe</c><c>   1</c></rc>
    <rc><c>Fe</c><c>   1</c></rc>
    <rc><c>Fe</c><c>   1</c></rc>
    <rc><c>Fe</c><c>   1</c></rc>
    <rc><c>Fe</c><c>   1</c></rc>
    <rc><c>Fe</c><c>   1</c></rc>
    <rc><c>Fe</c><c>   1</c></rc>
    <rc><c>Fe</c><c>   1</c></rc>
    <rc><c>Fe</c><c>   1</c></rc>
    <rc><c>Fe</c><c>   1</c></rc>
    <rc><c>Fe</c><c>   1</c></rc>
    <rc><c>Fe</c><c>   1</c></rc>
    <rc><c>Fe</c><c>   1</c></rc>
    <rc><c>Fe</c><c>   1</c></rc>
    <rc><c>Fe</c><c>   1</c></rc>
    <rc><c>Fe</c><c>   1</c></rc>
    <rc><c>Fe</c><c>   1</c></rc>
    <rc><c>Fe</c><c>   1</c></rc>
    <rc><c>Fe</c><c>   1</c></rc>
    <rc><c>Fe</c><c>   1</c></rc>
    <rc><c>Fe</c><c>   1</c></rc>
    <rc><c>Fe</c><c>   1</c></rc>
    <rc><c>Fe</c><c>   1</c></rc>
    <rc><c>Fe</c><c>   1</c></rc>
    <rc><c>Fe</c><c>   1</c></rc>
    <rc><c>Fe</c><c>   1</c></rc>
    <rc><c>Fe</c><c>   1</c></rc>
    <rc><c>Fe</c><c>   1</c></rc>
    <rc><c>Fe</c><c>   1</c></rc>
    <rc><c>Fe</c><c>   1</c></rc>
    <rc><c>Fe</c><c>   1</c></rc>
    <rc><c>Fe</c><c>   1</c></rc>
    <rc><c>Fe</c><c>   1</c></rc>
    <rc><c>Fe</c><c>   1</c></rc>
    <rc><c>Fe</c><c>   1</c></rc>
    <rc><c>Fe</c><c>   1</c></rc>
    <rc><c>Fe</c><c>   1</c></rc>
    <rc><c>Fe</c><c>   1</c></rc>
    <rc><c>Fe</c><c>   1</c></rc>
    <rc><c>Fe</c><c>   1</c></rc>
    <rc><c>Fe</c><c>   1</c></rc>
    <rc><c>Fe</c><c>   1</c></rc>
    <rc><c>Fe</c><c>   1</c></rc>
    <rc><c>Fe</c><c>   1</c></rc>
    <rc><c>Fe</c><c>   1</c></rc>
    <rc><c>Fe</c><c>   1</c></rc>
    <rc><c>Fe</c><c>   1</c></rc>
    <rc><c>Fe</c><c>   1</c></rc>
    <rc><c>Fe</c><c>   1</c></rc>
    <rc><c>Fe</c><c>   1</c></rc>
    <rc><c>Fe</c><c>   1</c></rc>
    <rc><c>Fe</c><c>   1</c></rc>
    <rc><c>Fe</c><c>   1</c></rc>
    <rc><c>Fe</c><c>   1</c></rc>
    <rc><c>Fe</c><c>   1</c></rc>
    <rc><c>Fe</c><c>   1</c></rc>
    <rc><c>Fe</c><c>   1</c></rc>
    <rc><c>Fe</c><c>   1</c></rc>
    <rc><c>Fe</c><c>   1</c></rc>
    <rc><c>Fe</c><c>   1</c></rc>
    <rc><c>Fe</c><c>   1</c></rc>
    <rc><c>Fe</c><c>   1</c></rc>
    <rc><c>Fe</c><c>   1</c></rc>
    <rc><c>Fe</c><c>   1</c></rc>
    <rc><c>Fe</c><c>   1</c></rc>
    <rc><c>Fe</c><c>   1</c></rc>
    <rc><c>Fe</c><c>   1</c></rc>
    <rc><c>Fe</c><c>   1</c></rc>
    <rc><c>Fe</c><c>   1</c></rc>
    <rc><c>Fe</c><c>   1</c></rc>
    <rc><c>Fe</c><c>   1</c></rc>
    <rc><c>Fe</c><c>   1</c></rc>
    <rc><c>Fe</c><c>   1</c></rc>
    <rc><c>Fe</c><c>   1</c></rc>
    <rc><c>Fe</c><c>   1</c></rc>
    <rc><c>Fe</c><c>   1</c></rc>
    <rc><c>Fe</c><c>   1</c></rc>
    <rc><c>Fe</c><c>   1</c></rc>
    <rc><c>Fe</c><c>   1</c></rc>
    <rc><c>Fe</c><c>   1</c></rc>
    <rc><c>Fe</c><c>   1</c></rc>
    <rc><c>Fe</c><c>   1</c></rc>
    <rc><c>Fe</c><c>   1</c></rc>
    <rc><c>Fe</c><c>   1</c></rc>
    <rc><c>Fe</c><c>   1</c></rc>
    <rc><c>Fe</c><c>   1</c></rc>
    <rc><c>Fe</c><c>   1</c></rc>
    <rc><c>Fe</c><c>   1</c></rc>
    <rc><c>Fe</c><c>   1</c></rc>
    <rc><c>Fe</c><c>   1</c></rc>
    <rc><c>Fe</c><c>   1</c></rc>
    <rc><c>Fe</c><c>   1</c></rc>
    <rc><c>Fe</c><c>   1</c></rc>
    <rc><c>Fe</c><c>   1</c></rc>
    <rc><c>Fe</c><c>   1</c></rc>
    <rc><c>Fe</c><c>   1</c></rc>
    <rc><c>Fe</c><c>   1</c></rc>
    <rc><c>Fe</c><c>   1</c></rc>
    <rc><c>Fe</c><c>   1</c></rc>
    <rc><c>Fe</c><c>   1</c></rc>
    <rc><c>Fe</c><c>   1</c></rc>
    <rc><c>Fe</c><c>   1</c></rc>
    <rc><c>Fe</c><c>   1</c></rc>
    <rc><c>Fe</c><c>   1</c></rc>
    <rc><c>Fe</c><c>   1</c></rc>
    <rc><c>Fe</c><c>   1</c></rc>
    <rc><c>Fe</c><c>   1</c></rc>
    <rc><c>Fe</c><c>   1</c></rc>
    <rc><c>Fe</c><c>   1</c></rc>
    <rc><c>Fe</c><c>   1</c></rc>
    <rc><c>Fe</c><c>   1</c></rc>
    <rc><c>Fe</c><c>   1</c></rc>
    <rc><c>Fe</c><c>   1</c></rc>
    <rc><c>Fe</c><c>   1</c></rc>
    <rc><c>Fe</c><c>   1</c></rc>
    <rc><c>Fe</c><c>   1</c></rc>
    <rc><c>Fe</c><c>   1</c></rc>
    <rc><c>Fe</c><c>   1</c></rc>
    <rc><c>Fe</c><c>   1</c></rc>
    <rc><c>Fe</c><c>   1</c></rc>
    <rc><c>Fe</c><c>   1</c></rc>
    <rc><c>Fe</c><c>   1</c></rc>
    <rc><c>Fe</c><c>   1</c></rc>
    <rc><c>Fe</c><c>   1</c></rc>
    <rc><c>Fe</c><c>   1</c></rc>
    <rc><c>Fe</c><c>   1</c></rc>
    <rc><c>Fe</c><c>   1</c></rc>
    <rc><c>Fe</c><c>   1</c></rc>
    <rc><c>Fe</c><c>   1</c></rc>
    <rc><c>Fe</c><c>   1</c></rc>
    <rc><c>Fe</c><c>   1</c></rc>
    <rc><c>Fe</c><c>   1</c></rc>
    <rc><c>Fe</c><c>   1</c></rc>
    <rc><c>Fe</c><c>   1</c></rc>
    <rc><c>Fe</c><c>   1</c></rc>
    <rc><c>Fe</c><c>   1</c></rc>
    <rc><c>Fe</c><c>   1</c></rc>
    <rc><c>Fe</c><c>   1</c></rc>
    <rc><c>Fe</c><c>   1</c></rc>
    <rc><c>Fe</c><c>   1</c></rc>
    <rc><c>Fe</c><c>   1</c></rc>
    <rc><c>Fe</c><c>   1</c></rc>
    <rc><c>Fe</c><c>   1</c></rc>
    <rc><c>Fe</c><c>   1</c></rc>
    <rc><c>Fe</c><c>   1</c></rc>
    <rc><c>Fe</c><c>   1</c></rc>
    <rc><c>Fe</c><c>   1</c></rc>
    <rc><c>Fe</c><c>   1</c></rc>
    <rc><c>Fe</c><c>   1</c></rc>
    <rc><c>Fe</c><c>   1</c></rc>
    <rc><c>Fe</c><c>   1</c></rc>
    <rc><c>Fe</c><c>   1</c></rc>
    <rc><c>Fe</c><c>   1</c></rc>
    <rc><c>Fe</c><c>   1</c></rc>
    <rc><c>Fe</c><c>   1</c></rc>
    <rc><c>Fe</c><c>   1</c></rc>
    <rc><c>Fe</c><c>   1</c></rc>
    <rc><c>Fe</c><c>   1</c></rc>
    <rc><c>Fe</c><c>   1</c></rc>
    <rc><c>Fe</c><c>   1</c></rc>
    <rc><c>Fe</c><c>   1</c></rc>
    <rc><c>Fe</c><c>   1</c></rc>
    <rc><c>Fe</c><c>   1</c></rc>
    <rc><c>Fe</c><c>   1</c></rc>
    <rc><c>Fe</c><c>   1</c></rc>
    <rc><c>Fe</c><c>   1</c></rc>
    <rc><c>Fe</c><c>   1</c></rc>
    <rc><c>Fe</c><c>   1</c></rc>
    <rc><c>Fe</c><c>   1</c></rc>
    <rc><c>Fe</c><c>   1</c></rc>
    <rc><c>Fe</c><c>   1</c></rc>
    <rc><c>Fe</c><c>   1</c></rc>
    <rc><c>Fe</c><c>   1</c></rc>
    <rc><c>Fe</c><c>   1</c></rc>
    <rc><c>Fe</c><c>   1</c></rc>
    <rc><c>Fe</c><c>   1</c></rc>
    <rc><c>Fe</c><c>   1</c></rc>
    <rc><c>Fe</c><c>   1</c></rc>
    <rc><c>Fe</c><c>   1</c></rc>
    <rc><c>Fe</c><c>   1</c></rc>
    <rc><c>Fe</c><c>   1</c></rc>
    <rc><c>Fe</c><c>   1</c></rc>
    <rc><c>Fe</c><c>   1</c></rc>
    <rc><c>Fe</c><c>   1</c></rc>
    <rc><c>Fe</c><c>   1</c></rc>
    <rc><c>Fe</c><c>   1</c></rc>
    <rc><c>Mn</c><c>   2</c></rc>
    <rc><c>Mn</c><c>   2</c></rc>
    <rc><c>Mn</c><c>   2</c></rc>
    <rc><c>Mn</c><c>   2</c></rc>
    <rc><c>Mn</c><c>   2</c></rc>
    <rc><c>Mn</c><c>   2</c></rc>
    <rc><c>Mn</c><c>   2</c></rc>
   </set>
  </array>
  <array name="atomtypes" >
   <dimension dim="1">type</dimension>
   <field type="int">atomspertype</field>
   <field type="string">element</field>
   <field>mass</field>
   <field>valence</field>
   <field type="string">pseudopotential</field>
   <set>
    <rc><c> 281</c><c>Fe</c><c>     55.84700000</c><c>      8.00000000</c><c>  PAW_PBE Fe_GW 31Mar2010               </c></rc>
    <rc><c>   7</c><c>Mn</c><c>     54.93800000</c><c>      7.00000000</c><c>  PAW_PBE Mn_GW 31Mar2010               </c></rc>
   </set>
  </array>
 </atominfo>
 <structure name="initialpos" >
  <crystal>
   <varray name="basis" >
    <v>       9.72667804       0.00000000       0.00000000 </v>
    <v>       0.00000000       8.42355028       0.00000000 </v>
    <v>       0.00000000       0.00000000      45.00000000 </v>
   </varray>
   <i name="volume">   3686.99226691 </i>
   <varray name="rec_basis" >
    <v>       0.10281002       0.00000000       0.00000000 </v>
    <v>       0.00000000       0.11871479       0.00000000 </v>
    <v>       0.00000000       0.00000000       0.02222222 </v>
   </varray>
  </crystal>
  <varray name="positions" >
   <v>       0.06224133       0.03266858       0.12445778 </v>
   <v>       0.81451414       0.04272039       0.87567282 </v>
   <v>       0.19567537       0.12501552       0.78848879 </v>
   <v>       0.43348002       0.28736115       0.38907077 </v>
   <v>       0.31754409       0.36207645       0.16684571 </v>
   <v>       0.80884520       0.21318081       0.83316771 </v>
   <v>       0.18353935       0.78729041       0.38905214 </v>
   <v>       0.56393141       0.20743518       0.56539638 </v>
   <v>       0.06043192       0.04225389       0.74418481 </v>
   <v>       0.81333553       0.87193488       0.52125638 </v>
   <v>       0.18569810       0.29195470       0.74412899 </v>
   <v>       0.94114478       0.45193060       0.34493465 </v>
   <v>       0.93374413       0.28740323       0.38885679 </v>
   <v>       0.43831365       0.62228493       0.52131567 </v>
   <v>       0.18758952       0.79199440       0.61086038 </v>
   <v>       0.55875394       0.03751774       0.38881140 </v>
   <v>       0.93334761       0.96363166       0.83312258 </v>
   <v>       0.31423454       0.54249142       0.87554146 </v>
   <v>       0.68556199       0.29156098       0.74404919 </v>
   <v>       0.19180730       0.61238845       0.16685716 </v>
   <v>       0.81312846       0.20546875       0.47849558 </v>
   <v>       0.81268088       0.54185733       0.61085839 </v>
   <v>       0.31325737       0.87023177       0.43448645 </v>
   <v>       0.81543300       0.03517721       0.25598812 </v>
   <v>       0.69138212       0.95162251       0.34496133 </v>
   <v>       0.94204902       0.11244244       0.16689772 </v>
   <v>       0.93860913       0.12238414       0.52135256 </v>
   <v>       0.56549831       0.53526010       0.25600646 </v>
   <v>       0.69269377       0.79608010       0.87560059 </v>
   <v>       0.56722220       0.36238254       0.16693396 </v>
   <v>       0.43590147       0.79169879       0.74415621 </v>
   <v>       0.81414231       0.70760265       0.56541009 </v>
   <v>       0.57046197       0.87425991       0.78836594 </v>
   <v>       0.68855857       0.12213749       0.52132909 </v>
   <v>       0.19049780       0.28530747       0.25598205 </v>
   <v>       0.93364358       0.46330436       0.83304272 </v>
   <v>       0.06545725       0.20841390       0.69969815 </v>
   <v>       0.80853088       0.03733153       0.38907810 </v>
   <v>       0.30889524       0.21390592       0.83328500 </v>
   <v>       0.43404382       0.62597343       0.65495499 </v>
   <v>       0.31268994       0.54192944       0.61086780 </v>
   <v>       0.93896678       0.45738821       0.56541876 </v>
   <v>       0.68573874       0.79195515       0.74415771 </v>
   <v>       0.30882281       0.87561723       0.65492204 </v>
   <v>       0.68368359       0.78775545       0.38910950 </v>
   <v>       0.93579646       0.79183540       0.74414959 </v>
   <v>       0.06577552       0.20270067       0.34504112 </v>
   <v>       0.43708146       0.78229990       0.12443593 </v>
   <v>       0.44541864       0.12500291       0.78857056 </v>
   <v>       0.05539194       0.20273351       0.21172452 </v>
   <v>       0.06723258       0.36202293       0.16696685 </v>
   <v>       0.94049621       0.78534176       0.25598976 </v>
   <v>       0.56578120       0.20825543       0.69972991 </v>
   <v>       0.69052518       0.95835856       0.69969792 </v>
   <v>       0.68380822       0.28736001       0.38903345 </v>
   <v>       0.43886882       0.95768096       0.56546582 </v>
   <v>       0.82066092       0.37454490       0.78841713 </v>
   <v>       0.69056601       0.28540159       0.25597275 </v>
   <v>       0.18880992       0.45765264       0.56542731 </v>
   <v>       0.06747163       0.86198083       0.16691113 </v>
   <v>       0.18781236       0.29171895       0.61077302 </v>
   <v>       0.56629145       0.70172043       0.34488516 </v>
   <v>       0.31536997       0.20838211       0.69968666 </v>
   <v>       0.56513297       0.54186441       0.87557653 </v>
   <v>       0.06368041       0.70781350       0.56542024 </v>
   <v>       0.69541356       0.62451692       0.78849898 </v>
   <v>       0.30852026       0.53746444       0.38908545 </v>
   <v>       0.18848850       0.62216873       0.52132631 </v>
   <v>       0.56284846       0.87014033       0.43442343 </v>
   <v>       0.43880797       0.45772707       0.56544192 </v>
   <v>       0.43581734       0.29191572       0.74412074 </v>
   <v>       0.80397824       0.87219629       0.30020524 </v>
   <v>       0.81670640       0.70242708       0.34498147 </v>
   <v>       0.43380044       0.46373185       0.83321274 </v>
   <v>       0.68776564       0.95580283       0.47863998 </v>
   <v>       0.69054011       0.45831625       0.69969921 </v>
   <v>       0.56327040       0.87193368       0.52132311 </v>
   <v>       0.55892381       0.37557537       0.65494042 </v>
   <v>       0.80885937       0.87560172       0.65491832 </v>
   <v>       0.81260154       0.37052171       0.43447920 </v>
   <v>       0.81550606       0.53529235       0.25597769 </v>
   <v>       0.68354097       0.46316710       0.83305356 </v>
   <v>       0.18684175       0.78238193       0.12440434 </v>
   <v>       0.06408426       0.04281727       0.87559125 </v>
   <v>       0.30889335       0.37573448       0.65491789 </v>
   <v>       0.19218079       0.11198027       0.16690779 </v>
   <v>       0.81061739       0.54221599       0.74414395 </v>
   <v>       0.68389197       0.96351547       0.83314770 </v>
   <v>       0.55888045       0.87564395       0.65490903 </v>
   <v>       0.31388955       0.70769369       0.56551274 </v>
   <v>       0.31218283       0.53258200       0.12445642 </v>
   <v>       0.68017720       0.95290126       0.21182099 </v>
   <v>       0.31396398       0.20780302       0.56554828 </v>
   <v>       0.31077170       0.54241775       0.74420980 </v>
   <v>       0.68873151       0.95771385       0.56544675 </v>
   <v>       0.43758549       0.79202275       0.61086981 </v>
   <v>       0.69193588       0.61216375       0.16695136 </v>
   <v>       0.30368566       0.87241366       0.30030973 </v>
   <v>       0.31255782       0.70565746       0.47861080 </v>
   <v>       0.93792852       0.29174926       0.61079305 </v>
   <v>       0.42874443       0.62228748       0.30027915 </v>
   <v>       0.81675954       0.86235072       0.16684490 </v>
   <v>       0.55548946       0.20227153       0.21158423 </v>
   <v>       0.94198475       0.61240601       0.16686620 </v>
   <v>       0.94024675       0.79507578       0.87564739 </v>
   <v>       0.57092470       0.37444728       0.78837935 </v>
   <v>       0.06345806       0.37239473       0.52137028 </v>
   <v>       0.56343726       0.37231448       0.52131946 </v>
   <v>       0.67949711       0.12184225       0.30029128 </v>
   <v>       0.43276433       0.96299031       0.83322780 </v>
   <v>       0.18706282       0.28252374       0.12445452 </v>
   <v>       0.82079288       0.87435073       0.78836664 </v>
   <v>       0.31287656       0.37071725       0.43443876 </v>
   <v>       0.93793326       0.79180936       0.61078205 </v>
   <v>       0.43781710       0.29179721       0.61077436 </v>
   <v>       0.19209737       0.45167754       0.34495207 </v>
   <v>       0.43714575       0.28234647       0.12441093 </v>
   <v>       0.69015630       0.78540316       0.25596676 </v>
   <v>       0.19042077       0.95832181       0.69968784 </v>
   <v>       0.19072987       0.29607204       0.87579216 </v>
   <v>       0.18393062       0.12578854       0.65490916 </v>
   <v>       0.93397584       0.12607354       0.65497959 </v>
   <v>       0.30529994       0.20263544       0.21174258 </v>
   <v>       0.05858621       0.03732284       0.38905448 </v>
   <v>       0.44039898       0.95828207       0.69969777 </v>
   <v>       0.06270042       0.54168309       0.61093646 </v>
   <v>       0.94069307       0.28569605       0.25591493 </v>
   <v>       0.56272272       0.54182872       0.61085339 </v>
   <v>       0.93862623       0.95774032       0.56545644 </v>
   <v>       0.67910420       0.62202100       0.30015363 </v>
   <v>       0.93723558       0.61945272       0.43446372 </v>
   <v>       0.94562743       0.62479443       0.78847370 </v>
   <v>       0.56539150       0.70842344       0.69966070 </v>
   <v>       0.05876320       0.71304501       0.83320846 </v>
   <v>       0.92867369       0.12213609       0.30031373 </v>
   <v>       0.94043668       0.45839257       0.69967825 </v>
   <v>       0.44062728       0.78537506       0.25594890 </v>
   <v>       0.32073884       0.37451399       0.78841259 </v>
   <v>       0.43062361       0.45235548       0.21161740 </v>
   <v>       0.18837253       0.12254320       0.52133191 </v>
   <v>       0.81544009       0.70838956       0.69968765 </v>
   <v>       0.06280499       0.04175536       0.61077894 </v>
   <v>       0.55908688       0.21345767       0.83328258 </v>
   <v>       0.31377329       0.87189051       0.52126885 </v>
   <v>       0.68722457       0.28244590       0.12444668 </v>
   <v>       0.18051205       0.95227938       0.21160799 </v>
   <v>       0.68761193       0.29197998       0.61086176 </v>
   <v>       0.31275778       0.04197849       0.61092328 </v>
   <v>       0.94557695       0.12480646       0.78849449 </v>
   <v>       0.44066948       0.79650034       0.87571135 </v>
   <v>       0.81066642       0.04228113       0.74405337 </v>
   <v>       0.43829187       0.12186929       0.52133444 </v>
   <v>       0.18398489       0.62590394       0.65495957 </v>
   <v>       0.31539108       0.70842524       0.69969171 </v>
   <v>       0.93682111       0.28260812       0.12445862 </v>
   <v>       0.43788814       0.45589743       0.47862135 </v>
   <v>       0.06304709       0.70527834       0.47865781 </v>
   <v>       0.93864804       0.11994435       0.43427832 </v>
   <v>       0.42867595       0.12209219       0.30031356 </v>
   <v>       0.18803736       0.12035604       0.43444921 </v>
   <v>       0.56517832       0.04304705       0.87559452 </v>
   <v>       0.18886649       0.95738442       0.56523195 </v>
   <v>       0.68706687       0.78249621       0.12444270 </v>
   <v>       0.56212158       0.53247847       0.12445794 </v>
   <v>       0.30889880       0.03746983       0.38894694 </v>
   <v>       0.69233022       0.11199040       0.16696238 </v>
   <v>       0.80549119       0.20276261       0.21172192 </v>
   <v>       0.06547876       0.53518822       0.25593915 </v>
   <v>       0.56279544       0.70578504       0.47863402 </v>
   <v>       0.06386577       0.20769749       0.56551620 </v>
   <v>       0.55377277       0.37217043       0.30032680 </v>
   <v>       0.44159030       0.95234630       0.34496723 </v>
   <v>       0.18389662       0.96321515       0.83319199 </v>
   <v>       0.44203702       0.61212668       0.16684855 </v>
   <v>       0.93033620       0.45301521       0.21182866 </v>
   <v>       0.06187315       0.53278590       0.12446130 </v>
   <v>       0.81331618       0.37209057       0.52132712 </v>
   <v>       0.92878909       0.62226433       0.30031575 </v>
   <v>       0.31555158       0.03523434       0.25602124 </v>
   <v>       0.68769630       0.79193570       0.61089271 </v>
   <v>       0.18372878       0.46437148       0.83325731 </v>
   <v>       0.44209332       0.11216855       0.16686433 </v>
   <v>       0.31355210       0.37223716       0.52130069 </v>
   <v>       0.44613877       0.62446561       0.78834227 </v>
   <v>       0.06530892       0.03521866       0.25598257 </v>
   <v>       0.56373246       0.70754842       0.56538936 </v>
   <v>       0.93598793       0.29174416       0.74415900 </v>
   <v>       0.69575047       0.12463953       0.78843382 </v>
   <v>       0.18058313       0.45269110       0.21167461 </v>
   <v>       0.93390864       0.78702177       0.38895715 </v>
   <v>       0.69333768       0.29685235       0.87578013 </v>
   <v>       0.31694014       0.86223394       0.16684260 </v>
   <v>       0.44025943       0.45827380       0.69966485 </v>
   <v>       0.80885626       0.37562469       0.65492528 </v>
   <v>       0.68840469       0.62237174       0.52141235 </v>
   <v>       0.05886145       0.87569761       0.65491252 </v>
   <v>       0.07085725       0.87443616       0.78840977 </v>
   <v>       0.05890833       0.37588019       0.65490793 </v>
   <v>       0.68781929       0.45576574       0.47863049 </v>
   <v>       0.19061424       0.78544448       0.25593536 </v>
   <v>       0.43802185       0.12038546       0.43446472 </v>
   <v>       0.81161408       0.03261929       0.12441214 </v>
   <v>       0.93838728       0.62200084       0.52138828 </v>
   <v>       0.06269397       0.87118275       0.43454396 </v>
   <v>       0.81160198       0.53264466       0.12444130 </v>
   <v>       0.44129347       0.45172338       0.34495922 </v>
   <v>       0.81663673       0.20204466       0.34495101 </v>
   <v>       0.31596251       0.70157510       0.34492519 </v>
   <v>       0.68401671       0.12602341       0.65495514 </v>
   <v>       0.55385038       0.87195656       0.30035363 </v>
   <v>       0.06058497       0.54213111       0.74418115 </v>
   <v>       0.93653181       0.78180017       0.12448015 </v>
   <v>       0.80557764       0.70269181       0.21171189 </v>
   <v>       0.05384100       0.87293377       0.30008020 </v>
   <v>       0.17893113       0.12221491       0.30021301 </v>
   <v>       0.06627772       0.70193970       0.34494193 </v>
   <v>       0.81292451       0.04177239       0.61073356 </v>
   <v>       0.06300228       0.37064475       0.43446733 </v>
   <v>       0.56628280       0.20185516       0.34498633 </v>
   <v>       0.80355348       0.37196095       0.30035288 </v>
   <v>       0.43794342       0.95586492       0.47862078 </v>
   <v>       0.55869296       0.53739984       0.38904389 </v>
   <v>       0.06281083       0.20572770       0.47866090 </v>
   <v>       0.32072406       0.87471523       0.78839139 </v>
   <v>       0.94054630       0.95837420       0.69971907 </v>
   <v>       0.05400840       0.37220908       0.30025324 </v>
   <v>       0.68403840       0.62613073       0.65497415 </v>
   <v>       0.68873426       0.45780924       0.56544300 </v>
   <v>       0.43040447       0.95262719       0.21167282 </v>
   <v>       0.31290229       0.20580585       0.47858793 </v>
   <v>       0.43383405       0.12580127       0.65490433 </v>
   <v>       0.68811304       0.62046681       0.43443670 </v>
   <v>       0.81550257       0.20840791       0.69964821 </v>
   <v>       0.81291870       0.70589230       0.47862177 </v>
   <v>       0.56308250       0.37021044       0.43446464 </v>
   <v>       0.93750981       0.95584067       0.47865951 </v>
   <v>       0.56286465       0.20566270       0.47861368 </v>
   <v>       0.18834197       0.62002675       0.43426911 </v>
   <v>       0.31071224       0.04220384       0.74409894 </v>
   <v>       0.93406295       0.62602080       0.65496296 </v>
   <v>       0.55880620       0.71309835       0.83320952 </v>
   <v>       0.30383819       0.37231329       0.30026569 </v>
   <v>       0.55553687       0.70260572       0.21168696 </v>
   <v>       0.18787033       0.45575125       0.47860546 </v>
   <v>       0.31494334       0.04157171       0.87571729 </v>
   <v>       0.19035577       0.45822749       0.69967711 </v>
   <v>       0.81461853       0.54259150       0.87562748 </v>
   <v>       0.18355663       0.28781844       0.38905624 </v>
   <v>       0.43832317       0.62055246       0.43435359 </v>
   <v>       0.05550087       0.70229599       0.21160492 </v>
   <v>       0.56243652       0.03250986       0.12446349 </v>
   <v>       0.81703509       0.36245001       0.16686917 </v>
   <v>       0.80833431       0.71370600       0.83308998 </v>
   <v>       0.07080965       0.37448565       0.78840480 </v>
   <v>       0.44249797       0.29607359       0.87569843 </v>
   <v>       0.31179648       0.03266267       0.12440814 </v>
   <v>       0.68796004       0.12011143       0.43451479 </v>
   <v>       0.19138565       0.95197000       0.34498474 </v>
   <v>       0.05860070       0.21349318       0.83331307 </v>
   <v>       0.56283940       0.04174526       0.61078908 </v>
   <v>       0.68057076       0.45247906       0.21165593 </v>
   <v>       0.18594406       0.79163214       0.74417395 </v>
   <v>       0.17868039       0.62205597       0.30033580 </v>
   <v>       0.43372353       0.78763593       0.38911364 </v>
   <v>       0.44037781       0.28532529       0.25596490 </v>
   <v>       0.06441162       0.54224026       0.87566522 </v>
   <v>       0.56043579       0.04221361       0.74419163 </v>
   <v>       0.19311709       0.79659087       0.87589931 </v>
   <v>       0.93771192       0.45568720       0.47860454 </v>
   <v>       0.80891654       0.53772901       0.38909855 </v>
   <v>       0.81384381       0.20760809       0.56537036 </v>
   <v>       0.19528374       0.62459232       0.78835839 </v>
   <v>       0.93043245       0.95274182       0.21174232 </v>
   <v>       0.06541404       0.70845058       0.69966833 </v>
   <v>       0.31558608       0.53541458       0.25586708 </v>
   <v>       0.30558005       0.70265056       0.21179146 </v>
   <v>       0.56743946       0.86227237       0.16694076 </v>
   <v>       0.56072577       0.54230137       0.74409758 </v>
   <v>       0.69092881       0.45171123       0.34491259 </v>
   <v>       0.94145180       0.29646135       0.87578620 </v>
   <v>       0.56556328       0.03541777       0.25597184 </v>
   <v>       0.31652968       0.20258869       0.34497726 </v>
   <v>       0.30797189       0.71478804       0.83391032 </v>
   <v>       0.06327799       0.87191733       0.52123345 </v>
   <v>       0.81279403       0.87102017       0.43437029 </v>
   <v>       0.05810297       0.53804940       0.38905687 </v>
   <v>       0.94234611       0.95172616       0.34498312 </v>
   <v>       0.18820114       0.95588608       0.47860580 </v>
  </varray>
 </structure>
 <calculation>
  <scstep>
   <time name="dav">   54.55   54.57</time>
   <time name="total">   54.70   54.74</time>
   <energy>
    <i name="alphaZ">  16403.00255340 </i>
    <i name="ewald"> 724045.60563600 </i>
    <i name="hartreedc">-915695.87091002 </i>
    <i name="XCdc">  -6388.73802131 </i>
    <i name="pawpsdc"> 163151.95320885 </i>
    <i name="pawaedc">-160818.84594568 </i>
    <i name="eentropy">     -1.04034678 </i>
    <i name="bandstr">  38623.82261750 </i>
    <i name="atom"> 169914.59583762 </i>
    <i name="e_fr_energy">  29234.48462959 </i>
    <i name="e_wo_entrp">  29235.52497636 </i>
    <i name="e_0_energy">  29235.00480297 </i>
   </energy>
  </scstep>
  <scstep>
   <time name="dav">   54.14   54.18</time>
   <time name="total">   54.15   54.19</time>
   <energy>
    <i name="e_fr_energy">   1196.95847567 </i>
    <i name="e_wo_entrp">   1198.42238373 </i>
    <i name="e_0_energy">   1197.69042970 </i>
   </energy>
  </scstep>
  <scstep>
   <time name="dav">   71.28   71.33</time>
   <time name="total">   71.29   71.33</time>
   <energy>
    <i name="e_fr_energy">  -1941.59760138 </i>
    <i name="e_wo_entrp">  -1938.00763653 </i>
    <i name="e_0_energy">  -1939.80261895 </i>
   </energy>
  </scstep>
  <scstep>
   <time name="dav">   88.77   88.82</time>
   <time name="total">   88.78   88.83</time>
   <energy>
    <i name="e_fr_energy">  -2611.31228663 </i>
    <i name="e_wo_entrp">  -2607.75731338 </i>
    <i name="e_0_energy">  -2609.53480000 </i>
   </energy>
  </scstep>
  <scstep>
   <time name="dav">   84.98   85.03</time>
   <time name="total">   87.08   87.12</time>
   <energy>
    <i name="e_fr_energy">  -2731.52594589 </i>
    <i name="e_wo_entrp">  -2727.84761736 </i>
    <i name="e_0_energy">  -2729.68678163 </i>
   </energy>
  </scstep>
  <scstep>
   <time name="diag">    8.24    8.24</time>
   <time name="diis">   37.71   37.71</time>
   <time name="orth">    2.27    2.27</time>
   <time name="total">   50.42   50.47</time>
   <energy>
    <i name="e_fr_energy">  -6754.98467882 </i>
    <i name="e_wo_entrp">  -6751.55496503 </i>
    <i name="e_0_energy">  -6753.26982193 </i>
   </energy>
  </scstep>
  <scstep>
   <time name="diag">    8.23    8.23</time>
   <time name="diis">   38.58   38.59</time>
   <time name="orth">    2.27    2.27</time>
   <time name="total">   51.21   51.26</time>
[...]
       <r>     5.8576     0.0000  2772.0000 </r>
       <r>     5.9004     0.0000  2772.0000 </r>
       <r>     5.9433     0.0000  2772.0000 </r>
       <r>     5.9861     0.0000  2772.0000 </r>
       <r>     6.0290     0.0000  2772.0000 </r>
       <r>     6.0718     0.0000  2772.0000 </r>
       <r>     6.1147     0.0000  2772.0000 </r>
       <r>     6.1575     0.0000  2772.0000 </r>
       <r>     6.2004     0.0000  2772.0000 </r>
       <r>     6.2432     0.0000  2772.0000 </r>
       <r>     6.2861     0.0000  2772.0000 </r>
       <r>     6.3289     0.0000  2772.0000 </r>
       <r>     6.3717     0.0000  2772.0000 </r>
       <r>     6.4146     0.0000  2772.0000 </r>
       <r>     6.4574     0.0000  2772.0000 </r>
       <r>     6.5003     0.0000  2772.0000 </r>
       <r>     6.5431     0.0000  2772.0000 </r>
       <r>     6.5860     0.0000  2772.0000 </r>
       <r>     6.6288     0.0000  2772.0000 </r>
       <r>     6.6717     0.0000  2772.0000 </r>
       <r>     6.7145     0.0000  2772.0000 </r>
       <r>     6.7574     0.0000  2772.0000 </r>
       <r>     6.8002     0.0000  2772.0000 </r>
      </set>
     </set>
    </array>
   </total>
  </dos>
 </calculation>
 <structure name="finalpos" >
  <crystal>
   <varray name="basis" >
    <v>       9.72667804       0.00000000       0.00000000 </v>
    <v>       0.00000000       8.42355028       0.00000000 </v>
    <v>       0.00000000       0.00000000      45.00000000 </v>
   </varray>
   <i name="volume">   3686.99226691 </i>
   <varray name="rec_basis" >
    <v>       0.10281002       0.00000000       0.00000000 </v>
    <v>       0.00000000       0.11871479       0.00000000 </v>
    <v>       0.00000000       0.00000000       0.02222222 </v>
   </varray>
  </crystal>
  <varray name="positions" >
   <v>       0.06189989       0.03224237       0.12425000 </v>
   <v>       0.81465842       0.04280499       0.87566413 </v>
   <v>       0.19535007       0.12507603       0.78839426 </v>
   <v>       0.43324783       0.28721892       0.38908673 </v>
   <v>       0.31730530       0.36279586       0.16723914 </v>
   <v>       0.80906748       0.21310153       0.83314917 </v>
   <v>       0.18345150       0.78742032       0.38907100 </v>
   <v>       0.56374288       0.20736293       0.56549026 </v>
   <v>       0.06044186       0.04217332       0.74413149 </v>
   <v>       0.81330306       0.87197681       0.52130182 </v>
   <v>       0.18568733       0.29186901       0.74407955 </v>
   <v>       0.94113630       0.45193496       0.34487873 </v>
   <v>       0.93418092       0.28706195       0.38888433 </v>
   <v>       0.43817940       0.62247680       0.52143473 </v>
   <v>       0.18769369       0.79202325       0.61076684 </v>
   <v>       0.55877308       0.03749038       0.38883582 </v>
   <v>       0.93339092       0.96357184       0.83315233 </v>
   <v>       0.31434224       0.54323010       0.87556215 </v>
   <v>       0.68585427       0.29158117       0.74401831 </v>
   <v>       0.19110361       0.61278809       0.16714340 </v>
   <v>       0.81325433       0.20524743       0.47844086 </v>
   <v>       0.81268172       0.54189582       0.61080015 </v>
   <v>       0.31295554       0.87029086       0.43446819 </v>
   <v>       0.81543634       0.03517867       0.25596227 </v>
   <v>       0.69113040       0.95177026       0.34492991 </v>
   <v>       0.94161197       0.11238752       0.16714500 </v>
   <v>       0.93865958       0.12242490       0.52140127 </v>
   <v>       0.56530427       0.53510793       0.25598169 </v>
   <v>       0.69258664       0.79575640       0.87562027 </v>
   <v>       0.56780577       0.36283922       0.16730023 </v>
   <v>       0.43609775       0.79175092       0.74408558 </v>
   <v>       0.81400357       0.70752153       0.56549124 </v>
   <v>       0.57045386       0.87423988       0.78825002 </v>
   <v>       0.68854294       0.12219823       0.52140014 </v>
   <v>       0.19033991       0.28489954       0.25604263 </v>
   <v>       0.93362075       0.46319251       0.83301842 </v>
   <v>       0.06531363       0.20829220       0.69956322 </v>
   <v>       0.80886475       0.03727292       0.38908003 </v>
   <v>       0.30918662       0.21376743       0.83332211 </v>
   <v>       0.43404471       0.62598995       0.65480325 </v>
   <v>       0.31267560       0.54199070       0.61077863 </v>
   <v>       0.93894911       0.45735988       0.56551588 </v>
   <v>       0.68601649       0.79193597       0.74411556 </v>
   <v>       0.30881900       0.87568366       0.65477709 </v>
   <v>       0.68388020       0.78797750       0.38910452 </v>
   <v>       0.93584476       0.79191814       0.74412301 </v>
   <v>       0.06574420       0.20259926       0.34501244 </v>
   <v>       0.43693583       0.78217244       0.12423639 </v>
   <v>       0.44529892       0.12510494       0.78847343 </v>
   <v>       0.05515078       0.20257634       0.21200271 </v>
   <v>       0.06653935       0.36282339       0.16718799 </v>
   <v>       0.94026855       0.78565262       0.25594866 </v>
   <v>       0.56570111       0.20817679       0.69959197 </v>
   <v>       0.69045083       0.95836457       0.69959437 </v>
   <v>       0.68388262       0.28708457       0.38904218 </v>
   <v>       0.43861066       0.95753638       0.56555701 </v>
   <v>       0.82049071       0.37469160       0.78833169 </v>
   <v>       0.69030768       0.28529901       0.25600171 </v>
   <v>       0.18893401       0.45774761       0.56553286 </v>
   <v>       0.06691144       0.86140081       0.16715790 </v>
   <v>       0.18785877       0.29164966       0.61072064 </v>
   <v>       0.56592591       0.70184581       0.34482457 </v>
   <v>       0.31526661       0.20828350       0.69953694 </v>
   <v>       0.56465774       0.54215279       0.87561241 </v>
   <v>       0.06398298       0.70787762       0.56550726 </v>
   <v>       0.69540559       0.62454729       0.78838392 </v>
   <v>       0.30840637       0.53739636       0.38907205 </v>
   <v>       0.18853482       0.62246828       0.52140475 </v>
   <v>       0.56267575       0.87027198       0.43442866 </v>
   <v>       0.43873486       0.45785008       0.56553539 </v>
   <v>       0.43597617       0.29190652       0.74407350 </v>
   <v>       0.80431302       0.87235900       0.30012263 </v>
   <v>       0.81666845       0.70256661       0.34496591 </v>
   <v>       0.43371765       0.46382427       0.83330491 </v>
   <v>       0.68776206       0.95576675       0.47858694 </v>
   <v>       0.69049522       0.45830738       0.69958818 </v>
   <v>       0.56317953       0.87199799       0.52142463 </v>
   <v>       0.55898397       0.37549957       0.65479585 </v>
   <v>       0.80912354       0.87570102       0.65478646 </v>
   <v>       0.81278187       0.37032818       0.43448721 </v>
   <v>       0.81539809       0.53540289       0.25591411 </v>
   <v>       0.68386723       0.46310587       0.83302982 </v>
   <v>       0.18628172       0.78227069       0.12423641 </v>
   <v>       0.06408002       0.04259017       0.87560918 </v>
   <v>       0.30893286       0.37564807       0.65475276 </v>
   <v>       0.19171108       0.11172988       0.16719539 </v>
   <v>       0.81078562       0.54228793       0.74412626 </v>
   <v>       0.68426594       0.96350135       0.83313412 </v>
   <v>       0.55894062       0.87569474       0.65478016 </v>
   <v>       0.31384854       0.70791068       0.56561042 </v>
   <v>       0.31175009       0.53294330       0.12426102 </v>
   <v>       0.68052181       0.95277617       0.21208591 </v>
   <v>       0.31394178       0.20748701       0.56563338 </v>
   <v>       0.31090962       0.54247967       0.74414641 </v>
   <v>       0.68849352       0.95763859       0.56552715 </v>
   <v>       0.43736891       0.79198538       0.61075526 </v>
   <v>       0.69230220       0.61217222       0.16728597 </v>
   <v>       0.30394361       0.87236921       0.30027209 </v>
   <v>       0.31235337       0.70577449       0.47854544 </v>
   <v>       0.93797288       0.29165692       0.61074824 </v>
   <v>       0.42882849       0.62220192       0.30029334 </v>
   <v>       0.81687702       0.86193129       0.16717110 </v>
   <v>       0.55595516       0.20230139       0.21189799 </v>
   <v>       0.94166916       0.61259196       0.16709929 </v>
   <v>       0.94043941       0.79501169       0.87567728 </v>
   <v>       0.57089248       0.37458767       0.78828885 </v>
   <v>       0.06346259       0.37237739       0.52142114 </v>
   <v>       0.56342685       0.37236120       0.52142239 </v>
   <v>       0.67968430       0.12197948       0.30022136 </v>
   <v>       0.43270959       0.96257326       0.83325332 </v>
   <v>       0.18638060       0.28268498       0.12420820 </v>
   <v>       0.82062791       0.87431387       0.78824694 </v>
   <v>       0.31262201       0.37064389       0.43438788 </v>
   <v>       0.93801065       0.79180416       0.61074897 </v>
   <v>       0.43766851       0.29181224       0.61070537 </v>
   <v>       0.19194307       0.45179216       0.34492275 </v>
   <v>       0.43737574       0.28252587       0.12414278 </v>
   <v>       0.69008394       0.78561713       0.25589684 </v>
   <v>       0.19030870       0.95837834       0.69954420 </v>
   <v>       0.19100731       0.29603903       0.87579813 </v>
   <v>       0.18399235       0.12569108       0.65476993 </v>
   <v>       0.93421706       0.12593615       0.65484409 </v>
   <v>       0.30585148       0.20245075       0.21207090 </v>
   <v>       0.05879390       0.03725223       0.38910788 </v>
   <v>       0.44031629       0.95829532       0.69956606 </v>
   <v>       0.06279394       0.54172254       0.61088688 </v>
   <v>       0.94015717       0.28540858       0.25594650 </v>
   <v>       0.56252747       0.54181140       0.61076700 </v>
   <v>       0.93884815       0.95772597       0.56554032 </v>
   <v>       0.67913272       0.62181201       0.30012903 </v>
   <v>       0.93756144       0.61962109       0.43446802 </v>
   <v>       0.94518616       0.62482443       0.78836593 </v>
   <v>       0.56530307       0.70852268       0.69955952 </v>
   <v>       0.05912479       0.71310554       0.83326790 </v>
   <v>       0.92905471       0.12201883       0.30024217 </v>
   <v>       0.94029603       0.45830274       0.69956228 </v>
   <v>       0.44044655       0.78571295       0.25597044 </v>
   <v>       0.32052148       0.37451858       0.78833453 </v>
   <v>       0.43115642       0.45240183       0.21187974 </v>
   <v>       0.18836177       0.12240429       0.52142580 </v>
   <v>       0.81534547       0.70844251       0.69959112 </v>
   <v>       0.06293256       0.04172225       0.61073946 </v>
   <v>       0.55922034       0.21355966       0.83328730 </v>
   <v>       0.31367958       0.87187856       0.52139180 </v>
   <v>       0.68791699       0.28283603       0.12429039 </v>
   <v>       0.18051771       0.95197452       0.21193485 </v>
   <v>       0.68755825       0.29192762       0.61079345 </v>
   <v>       0.31269094       0.04189104       0.61083661 </v>
   <v>       0.94527490       0.12488179       0.78837861 </v>
   <v>       0.44000718       0.79579822       0.87570041 </v>
   <v>       0.81090218       0.04212979       0.74400712 </v>
   <v>       0.43822104       0.12183307       0.52144915 </v>
   <v>       0.18407261       0.62598429       0.65480058 </v>
   <v>       0.31534061       0.70856043       0.69955955 </v>
   <v>       0.93662423       0.28297918       0.12429627 </v>
   <v>       0.43785801       0.45592189       0.47856667 </v>
   <v>       0.06317135       0.70540569       0.47861535 </v>
   <v>       0.93888975       0.11990078       0.43423282 </v>
   <v>       0.42874605       0.12199872       0.30023957 </v>
   <v>       0.18785824       0.12036358       0.43439829 </v>
   <v>       0.56502577       0.04333307       0.87561338 </v>
   <v>       0.18916158       0.95725595       0.56533256 </v>
   <v>       0.68764999       0.78206448       0.12433317 </v>
   <v>       0.56274929       0.53246702       0.12431474 </v>
   <v>       0.30876388       0.03755329       0.38899002 </v>
   <v>       0.69261514       0.11221026       0.16732974 </v>
   <v>       0.80546848       0.20270026       0.21198325 </v>
   <v>       0.06501230       0.53552762       0.25594280 </v>
   <v>       0.56275433       0.70586389       0.47859240 </v>
   <v>       0.06401518       0.20754631       0.56561700 </v>
   <v>       0.55390095       0.37194446       0.30028646 </v>
   <v>       0.44124814       0.95229019       0.34491170 </v>
   <v>       0.18421392       0.96279427       0.83325116 </v>
   <v>       0.44220543       0.61237691       0.16724660 </v>
   <v>       0.93028571       0.45330231       0.21201114 </v>
   <v>       0.06133449       0.53304105       0.12434788 </v>
   <v>       0.81320471       0.37211553       0.52140023 </v>
   <v>       0.92923361       0.62218022       0.30025106 </v>
   <v>       0.31535488       0.03509204       0.25610319 </v>
   <v>       0.68762820       0.79192950       0.61082138 </v>
   <v>       0.18413913       0.46449099       0.83329281 </v>
   <v>       0.44234420       0.11199937       0.16730726 </v>
   <v>       0.31361023       0.37227914       0.52140052 </v>
   <v>       0.44597492       0.62456827       0.78828075 </v>
   <v>       0.06494206       0.03494027       0.25604439 </v>
   <v>       0.56347019       0.70761696       0.56548004 </v>
   <v>       0.93606973       0.29168830       0.74411326 </v>
   <v>       0.69571571       0.12475873       0.78833921 </v>
   <v>       0.18056364       0.45308317       0.21188362 </v>
   <v>       0.93437494       0.78733818       0.38896853 </v>
   <v>       0.69300148       0.29665219       0.87577189 </v>
   <v>       0.31663129       0.86183865       0.16718083 </v>
   <v>       0.44023221       0.45831889       0.69953304 </v>
   <v>       0.80909714       0.37553533       0.65479935 </v>
   <v>       0.68836629       0.62247950       0.52149126 </v>
   <v>       0.05902806       0.87577629       0.65475867 </v>
   <v>       0.07045017       0.87452170       0.78828828 </v>
   <v>       0.05905638       0.37575910       0.65477154 </v>
   <v>       0.68787787       0.45572815       0.47859596 </v>
   <v>       0.19030136       0.78583981       0.25596442 </v>
   <v>       0.43786690       0.12037377       0.43443013 </v>
   <v>       0.81210426       0.03262682       0.12424795 </v>
   <v>       0.93847067       0.62223499       0.52142664 </v>
   <v>       0.06288825       0.87131832       0.43448978 </v>
   <v>       0.81204037       0.53251960       0.12435980 </v>
   <v>       0.44083726       0.45187880       0.34487420 </v>
   <v>       0.81654211       0.20211055       0.34487095 </v>
   <v>       0.31553726       0.70161580       0.34485764 </v>
   <v>       0.68421256       0.12593192       0.65482318 </v>
   <v>       0.55384292       0.87204965       0.30029427 </v>
   <v>       0.06052056       0.54217579       0.74414936 </v>
   <v>       0.93679529       0.78150273       0.12438030 </v>
   <v>       0.80586372       0.70257657       0.21192057 </v>
   <v>       0.05425382       0.87301398       0.30001077 </v>
   <v>       0.17921677       0.12187335       0.30016181 </v>
   <v>       0.06628220       0.70209050       0.34492991 </v>
   <v>       0.81288793       0.04181751       0.61071623 </v>
   <v>       0.06319599       0.37049089       0.43443225 </v>
   <v>       0.56607407       0.20193770       0.34490535 </v>
   <v>       0.80367116       0.37163843       0.30033080 </v>
   <v>       0.43783697       0.95580469       0.47855775 </v>
   <v>       0.55857569       0.53739212       0.38904460 </v>
   <v>       0.06289028       0.20546402       0.47857684 </v>
   <v>       0.32046334       0.87455911       0.78833926 </v>
   <v>       0.94047135       0.95844802       0.69960857 </v>
   <v>       0.05428782       0.37213766       0.30026884 </v>
   <v>       0.68420037       0.62610869       0.65483773 </v>
   <v>       0.68863318       0.45780635       0.56552714 </v>
   <v>       0.43085205       0.95247405       0.21200184 </v>
   <v>       0.31274773       0.20549343       0.47850052 </v>
   <v>       0.43382086       0.12575671       0.65475926 </v>
   <v>       0.68797506       0.62059482       0.43445617 </v>
   <v>       0.81548953       0.20831138       0.69953122 </v>
   <v>       0.81305361       0.70588737       0.47859241 </v>
   <v>       0.56287122       0.37016841       0.43445792 </v>
   <v>       0.93774210       0.95580733       0.47860302 </v>
   <v>       0.56284335       0.20543531       0.47855995 </v>
   <v>       0.18826272       0.62021864       0.43425172 </v>
   <v>       0.31077109       0.04211016       0.74403514 </v>
   <v>       0.93427211       0.62604954       0.65482712 </v>
   <v>       0.55872289       0.71304483       0.83322898 </v>
   <v>       0.30431037       0.37215263       0.30028687 </v>
   <v>       0.55597826       0.70249544       0.21192059 </v>
   <v>       0.18774469       0.45586459       0.47853323 </v>
   <v>       0.31478116       0.04168086       0.87572979 </v>
   <v>       0.19025940       0.45820561       0.69952998 </v>
   <v>       0.81462372       0.54302966       0.87560327 </v>
   <v>       0.18361312       0.28768830       0.38907761 </v>
   <v>       0.43810686       0.62062075       0.43435676 </v>
   <v>       0.05526266       0.70227418       0.21183977 </v>
   <v>       0.56276015       0.03242579       0.12422440 </v>
   <v>       0.81692490       0.36300430       0.16710447 </v>
   <v>       0.80858895       0.71355964       0.83308529 </v>
   <v>       0.07036365       0.37452801       0.78830514 </v>
   <v>       0.44213720       0.29621393       0.87572963 </v>
   <v>       0.31138561       0.03219539       0.12412147 </v>
   <v>       0.68792923       0.12003556       0.43450718 </v>
   <v>       0.19111227       0.95190989       0.34495048 </v>
   <v>       0.05869958       0.21340613       0.83327971 </v>
   <v>       0.56267198       0.04173907       0.61071025 </v>
   <v>       0.68083382       0.45251990       0.21185884 </v>
   <v>       0.18593715       0.79180195       0.74410559 </v>
   <v>       0.17904292       0.62207828       0.30038581 </v>
   <v>       0.43360327       0.78771799       0.38910500 </v>
   <v>       0.44044815       0.28515363       0.25602291 </v>
   <v>       0.06461737       0.54291576       0.87569132 </v>
   <v>       0.56069999       0.04205126       0.74413070 </v>
   <v>       0.19314442       0.79609816       0.87590529 </v>
   <v>       0.93783833       0.45570596       0.47854762 </v>
   <v>       0.80913050       0.53784147       0.38909709 </v>
   <v>       0.81378867       0.20765170       0.56546714 </v>
   <v>       0.19510961       0.62477598       0.78830922 </v>
   <v>       0.93041127       0.95235505       0.21205830 </v>
   <v>       0.06533023       0.70856770       0.69953861 </v>
   <v>       0.31557414       0.53547487       0.25587843 </v>
   <v>       0.30581345       0.70258865       0.21202654 </v>
   <v>       0.56773075       0.86186221       0.16738859 </v>
   <v>       0.56102421       0.54240086       0.74406206 </v>
   <v>       0.69068271       0.45170931       0.34480301 </v>
   <v>       0.94129439       0.29624979       0.87576974 </v>
   <v>       0.56529359       0.03551335       0.25597295 </v>
   <v>       0.31598876       0.20278904       0.34493259 </v>
   <v>       0.30822238       0.71461434       0.83402550 </v>
   <v>       0.06343308       0.87194652       0.52124198 </v>
   <v>       0.81299684       0.87124662       0.43436658 </v>
   <v>       0.05860487       0.53810767       0.38903347 </v>
   <v>       0.94245989       0.95189669       0.34500107 </v>
   <v>       0.18804930       0.95577528       0.47855340 </v>
  </varray>
 </structure>
</modeling>
