unknown system                          
           1
     9.726678    0.000000    0.000000
     0.000000    8.423550    0.000000
     0.000000    0.000000   45.000000
   Fe   Mn
 281   7
Direct configuration=     1
   0.06224133  0.03266858  0.12445778
   0.81451414  0.04272039  0.87567282
   0.19567537  0.12501552  0.78848879
   0.43348002  0.28736115  0.38907077
   0.31754409  0.36207645  0.16684571
   0.80884520  0.21318081  0.83316771
   0.18353935  0.78729041  0.38905214
   0.56393141  0.20743518  0.56539638
   0.06043192  0.04225389  0.74418481
   0.81333553  0.87193488  0.52125638
   0.18569810  0.29195470  0.74412899
   0.94114478  0.45193060  0.34493465
   0.93374413  0.28740323  0.38885679
   0.43831365  0.62228493  0.52131567
   0.18758952  0.79199440  0.61086038
   0.55875394  0.03751774  0.38881140
   0.93334761  0.96363166  0.83312258
   0.31423454  0.54249142  0.87554146
   0.68556199  0.29156098  0.74404919
   0.19180730  0.61238845  0.16685716
   0.81312846  0.20546875  0.47849558
   0.81268088  0.54185733  0.61085839
   0.31325737  0.87023177  0.43448645
   0.81543300  0.03517721  0.25598812
   0.69138212  0.95162251  0.34496133
   0.94204902  0.11244244  0.16689772
   0.93860913  0.12238414  0.52135256
   0.56549831  0.53526010  0.25600646
   0.69269377  0.79608010  0.87560059
   0.56722220  0.36238254  0.16693396
   0.43590147  0.79169879  0.74415621
   0.81414231  0.70760265  0.56541009
   0.57046197  0.87425991  0.78836594
   0.68855857  0.12213749  0.52132909
   0.19049780  0.28530747  0.25598205
   0.93364358  0.46330436  0.83304272
   0.06545725  0.20841390  0.69969815
   0.80853088  0.03733153  0.38907810
   0.30889524  0.21390592  0.83328500
   0.43404382  0.62597343  0.65495499
   0.31268994  0.54192944  0.61086780
   0.93896678  0.45738821  0.56541876
   0.68573874  0.79195515  0.74415771
   0.30882281  0.87561723  0.65492204
   0.68368359  0.78775545  0.38910950
   0.93579646  0.79183540  0.74414959
   0.06577552  0.20270067  0.34504112
   0.43708146  0.78229990  0.12443593
   0.44541864  0.12500291  0.78857056
   0.05539194  0.20273351  0.21172452
   0.06723258  0.36202293  0.16696685
   0.94049621  0.78534176  0.25598976
   0.56578120  0.20825543  0.69972991
   0.69052518  0.95835856  0.69969792
   0.68380822  0.28736001  0.38903345
   0.43886882  0.95768096  0.56546582
   0.82066092  0.37454490  0.78841713
   0.69056601  0.28540159  0.25597275
   0.18880992  0.45765264  0.56542731
   0.06747163  0.86198083  0.16691113
   0.18781236  0.29171895  0.61077302
   0.56629145  0.70172043  0.34488516
   0.31536997  0.20838211  0.69968666
   0.56513297  0.54186441  0.87557653
   0.06368041  0.70781350  0.56542024
   0.69541356  0.62451692  0.78849898
   0.30852026  0.53746444  0.38908545
   0.18848850  0.62216873  0.52132631
   0.56284846  0.87014033  0.43442343
   0.43880797  0.45772707  0.56544192
   0.43581734  0.29191572  0.74412074
   0.80397824  0.87219629  0.30020524
   0.81670640  0.70242708  0.34498147
   0.43380044  0.46373185  0.83321274
   0.68776564  0.95580283  0.47863998
   0.69054011  0.45831625  0.69969921
   0.56327040  0.87193368  0.52132311
   0.55892381  0.37557537  0.65494042
   0.80885937  0.87560172  0.65491832
   0.81260154  0.37052171  0.43447920
   0.81550606  0.53529235  0.25597769
   0.68354097  0.46316710  0.83305356
   0.18684175  0.78238193  0.12440434
   0.06408426  0.04281727  0.87559125
   0.30889335  0.37573448  0.65491789
   0.19218079  0.11198027  0.16690779
   0.81061739  0.54221599  0.74414395
   0.68389197  0.96351547  0.83314770
   0.55888045  0.87564395  0.65490903
   0.31388955  0.70769369  0.56551274
   0.31218283  0.53258200  0.12445642
   0.68017720  0.95290126  0.21182099
   0.31396398  0.20780302  0.56554828
   0.31077170  0.54241775  0.74420980
   0.68873151  0.95771385  0.56544675
   0.43758549  0.79202275  0.61086981
   0.69193588  0.61216375  0.16695136
   0.30368566  0.87241366  0.30030973
   0.31255782  0.70565746  0.47861080
   0.93792852  0.29174926  0.61079305
   0.42874443  0.62228748  0.30027915
   0.81675954  0.86235072  0.16684490
   0.55548946  0.20227153  0.21158423
   0.94198475  0.61240601  0.16686620
   0.94024675  0.79507578  0.87564739
   0.57092470  0.37444728  0.78837935
   0.06345806  0.37239473  0.52137028
   0.56343726  0.37231448  0.52131946
   0.67949711  0.12184225  0.30029128
   0.43276433  0.96299031  0.83322780
   0.18706282  0.28252374  0.12445452
   0.82079288  0.87435073  0.78836664
   0.31287656  0.37071725  0.43443876
   0.93793326  0.79180936  0.61078205
   0.43781710  0.29179721  0.61077436
   0.19209737  0.45167754  0.34495207
   0.43714575  0.28234647  0.12441093
   0.69015630  0.78540316  0.25596676
   0.19042077  0.95832181  0.69968784
   0.19072987  0.29607204  0.87579216
   0.18393062  0.12578854  0.65490916
   0.93397584  0.12607354  0.65497959
   0.30529994  0.20263544  0.21174258
   0.05858621  0.03732284  0.38905448
   0.44039898  0.95828207  0.69969777
   0.06270042  0.54168309  0.61093646
   0.94069307  0.28569605  0.25591493
   0.56272272  0.54182872  0.61085339
   0.93862623  0.95774032  0.56545644
   0.67910420  0.62202100  0.30015363
   0.93723558  0.61945272  0.43446372
   0.94562743  0.62479443  0.78847370
   0.56539150  0.70842344  0.69966070
   0.05876320  0.71304501  0.83320846
   0.92867369  0.12213609  0.30031373
   0.94043668  0.45839257  0.69967825
   0.44062728  0.78537506  0.25594890
   0.32073884  0.37451399  0.78841259
   0.43062361  0.45235548  0.21161740
   0.18837253  0.12254320  0.52133191
   0.81544009  0.70838956  0.69968765
   0.06280499  0.04175536  0.61077894
   0.55908688  0.21345767  0.83328258
   0.31377329  0.87189051  0.52126885
   0.68722457  0.28244590  0.12444668
   0.18051205  0.95227938  0.21160799
   0.68761193  0.29197998  0.61086176
   0.31275778  0.04197849  0.61092328
   0.94557695  0.12480646  0.78849449
   0.44066948  0.79650034  0.87571135
   0.81066642  0.04228113  0.74405337
   0.43829187  0.12186929  0.52133444
   0.18398489  0.62590394  0.65495957
   0.31539108  0.70842524  0.69969171
   0.93682111  0.28260812  0.12445862
   0.43788814  0.45589743  0.47862135
   0.06304709  0.70527834  0.47865781
   0.93864804  0.11994435  0.43427832
   0.42867595  0.12209219  0.30031356
   0.18803736  0.12035604  0.43444921
   0.56517832  0.04304705  0.87559452
   0.18886649  0.95738442  0.56523195
   0.68706687  0.78249621  0.12444270
   0.56212158  0.53247847  0.12445794
   0.30889880  0.03746983  0.38894694
   0.69233022  0.11199040  0.16696238
   0.80549119  0.20276261  0.21172192
   0.06547876  0.53518822  0.25593915
   0.56279544  0.70578504  0.47863402
   0.06386577  0.20769749  0.56551620
   0.55377277  0.37217043  0.30032680
   0.44159030  0.95234630  0.34496723
   0.18389662  0.96321515  0.83319199
   0.44203702  0.61212668  0.16684855
   0.93033620  0.45301521  0.21182866
   0.06187315  0.53278590  0.12446130
   0.81331618  0.37209057  0.52132712
   0.92878909  0.62226433  0.30031575
   0.31555158  0.03523434  0.25602124
   0.68769630  0.79193570  0.61089271
   0.18372878  0.46437148  0.83325731
   0.44209332  0.11216855  0.16686433
   0.31355210  0.37223716  0.52130069
   0.44613877  0.62446561  0.78834227
   0.06530892  0.03521866  0.25598257
   0.56373246  0.70754842  0.56538936
   0.93598793  0.29174416  0.74415900
   0.69575047  0.12463953  0.78843382
   0.18058313  0.45269110  0.21167461
   0.93390864  0.78702177  0.38895715
   0.69333768  0.29685235  0.87578013
   0.31694014  0.86223394  0.16684260
   0.44025943  0.45827380  0.69966485
   0.80885626  0.37562469  0.65492528
   0.68840469  0.62237174  0.52141235
   0.05886145  0.87569761  0.65491252
   0.07085725  0.87443616  0.78840977
   0.05890833  0.37588019  0.65490793
   0.68781929  0.45576574  0.47863049
   0.19061424  0.78544448  0.25593536
   0.43802185  0.12038546  0.43446472
   0.81161408  0.03261929  0.12441214
   0.93838728  0.62200084  0.52138828
   0.06269397  0.87118275  0.43454396
   0.81160198  0.53264466  0.12444130
   0.44129347  0.45172338  0.34495922
   0.81663673  0.20204466  0.34495101
   0.31596251  0.70157510  0.34492519
   0.68401671  0.12602341  0.65495514
   0.55385038  0.87195656  0.30035363
   0.06058497  0.54213111  0.74418115
   0.93653181  0.78180017  0.12448015
   0.80557764  0.70269181  0.21171189
   0.05384100  0.87293377  0.30008020
   0.17893113  0.12221491  0.30021301
   0.06627772  0.70193970  0.34494193
   0.81292451  0.04177239  0.61073356
   0.06300228  0.37064475  0.43446733
   0.56628280  0.20185516  0.34498633
   0.80355348  0.37196095  0.30035288
   0.43794342  0.95586492  0.47862078
   0.55869296  0.53739984  0.38904389
   0.06281083  0.20572770  0.47866090
   0.32072406  0.87471523  0.78839139
   0.94054630  0.95837420  0.69971907
   0.05400840  0.37220908  0.30025324
   0.68403840  0.62613073  0.65497415
   0.68873426  0.45780924  0.56544300
   0.43040447  0.95262719  0.21167282
   0.31290229  0.20580585  0.47858793
   0.43383405  0.12580127  0.65490433
   0.68811304  0.62046681  0.43443670
   0.81550257  0.20840791  0.69964821
   0.81291870  0.70589230  0.47862177
   0.56308250  0.37021044  0.43446464
   0.93750981  0.95584067  0.47865951
   0.56286465  0.20566270  0.47861368
   0.18834197  0.62002675  0.43426911
   0.31071224  0.04220384  0.74409894
   0.93406295  0.62602080  0.65496296
   0.55880620  0.71309835  0.83320952
   0.30383819  0.37231329  0.30026569
   0.55553687  0.70260572  0.21168696
   0.18787033  0.45575125  0.47860546
   0.31494334  0.04157171  0.87571729
   0.19035577  0.45822749  0.69967711
   0.81461853  0.54259150  0.87562748
   0.18355663  0.28781844  0.38905624
   0.43832317  0.62055246  0.43435359
   0.05550087  0.70229599  0.21160492
   0.56243652  0.03250986  0.12446349
   0.81703509  0.36245001  0.16686917
   0.80833431  0.71370600  0.83308998
   0.07080965  0.37448565  0.78840480
   0.44249797  0.29607359  0.87569843
   0.31179648  0.03266267  0.12440814
   0.68796004  0.12011143  0.43451479
   0.19138565  0.95197000  0.34498474
   0.05860070  0.21349318  0.83331307
   0.56283940  0.04174526  0.61078908
   0.68057076  0.45247906  0.21165593
   0.18594406  0.79163214  0.74417395
   0.17868039  0.62205597  0.30033580
   0.43372353  0.78763593  0.38911364
   0.44037781  0.28532529  0.25596490
   0.06441162  0.54224026  0.87566522
   0.56043579  0.04221361  0.74419163
   0.19311709  0.79659087  0.87589931
   0.93771192  0.45568720  0.47860454
   0.80891654  0.53772901  0.38909855
   0.81384381  0.20760809  0.56537036
   0.19528374  0.62459232  0.78835839
   0.93043245  0.95274182  0.21174232
   0.06541404  0.70845058  0.69966833
   0.31558608  0.53541458  0.25586708
   0.30558005  0.70265056  0.21179146
   0.56743946  0.86227237  0.16694076
   0.56072577  0.54230137  0.74409758
   0.69092881  0.45171123  0.34491259
   0.94145180  0.29646135  0.87578620
   0.56556328  0.03541777  0.25597184
   0.31652968  0.20258869  0.34497726
   0.30797189  0.71478804  0.83391032
   0.06327799  0.87191733  0.52123345
   0.81279403  0.87102017  0.43437029
   0.05810297  0.53804940  0.38905687
   0.94234611  0.95172616  0.34498312
   0.18820114  0.95588608  0.47860580
Direct configuration=     2
   0.06129981  0.03149330  0.12388482
   0.81491199  0.04295369  0.87564885
   0.19477836  0.12518238  0.78822812
   0.43283975  0.28696894  0.38911478
   0.31688563  0.36406023  0.16793061
   0.80945816  0.21296220  0.83311658
   0.18329710  0.78764863  0.38910414
   0.56341153  0.20723594  0.56565525
   0.06045932  0.04203171  0.74403779
   0.81324598  0.87205049  0.52138168
   0.18566840  0.29171841  0.74399265
   0.94112141  0.45194263  0.34478045
   0.93494857  0.28646213  0.38893273
   0.43794345  0.62281401  0.52164397
   0.18787678  0.79207396  0.61060244
   0.55880672  0.03744230  0.38887875
   0.93346704  0.96346669  0.83320462
   0.31453152  0.54452836  0.87559851
   0.68636794  0.29161666  0.74396403
   0.18986686  0.61349047  0.16764647
   0.81347557  0.20485846  0.47834468
   0.81268321  0.54196347  0.61069780
   0.31242506  0.87039471  0.43443611
   0.81544222  0.03518123  0.25591684
   0.69068800  0.95202995  0.34487470
   0.94084386  0.11229101  0.16757962
   0.93874826  0.12249655  0.52148688
   0.56496325  0.53484050  0.25593816
   0.69239835  0.79518750  0.87565487
   0.56883141  0.36364184  0.16794395
   0.43644273  0.79184255  0.74396145
   0.81375973  0.70737897  0.56563386
   0.57043960  0.87420469  0.78804628
   0.68851548  0.12230498  0.52152501
   0.19006242  0.28418260  0.25614909
   0.93358061  0.46299592  0.83297572
   0.06506121  0.20807830  0.69932609
   0.80945155  0.03716990  0.38908342
   0.30969873  0.21352403  0.83338733
   0.43404627  0.62601898  0.65453659
   0.31265040  0.54209836  0.61062191
   0.93891805  0.45731010  0.56568655
   0.68650465  0.79190226  0.74404147
   0.30881230  0.87580041  0.65452235
   0.68422575  0.78836774  0.38909575
   0.93592965  0.79206355  0.74407629
   0.06568916  0.20242104  0.34496205
   0.43667986  0.78194841  0.12388569
   0.44508852  0.12528427  0.78830273
   0.05472694  0.20230013  0.21249163
   0.06532098  0.36423022  0.16757666
   0.93986845  0.78619897  0.25587642
   0.56556034  0.20803857  0.69934955
   0.69032016  0.95837512  0.69941239
   0.68401337  0.28660049  0.38905752
   0.43815694  0.95728228  0.56571729
   0.82019156  0.37494943  0.78818152
   0.68985366  0.28511872  0.25605261
   0.18915210  0.45791451  0.56571836
   0.06592690  0.86038142  0.16759160
   0.18794034  0.29152789  0.61062859
   0.56528345  0.70206618  0.34471807
   0.31508496  0.20811020  0.69927380
   0.56382251  0.54265962  0.87567546
   0.06451475  0.70799031  0.56566020
   0.69539158  0.62460067  0.78818170
   0.30820620  0.53727669  0.38904850
   0.18861623  0.62299473  0.52154262
   0.56237221  0.87050334  0.43443786
   0.43860638  0.45806626  0.56569966
   0.43625533  0.29189035  0.74399049
   0.80490140  0.87264496  0.29997743
   0.81660174  0.70281185  0.34493856
   0.43357214  0.46398670  0.83346691
   0.68775575  0.95570334  0.47849372
   0.69041632  0.45829179  0.69939304
   0.56301982  0.87211102  0.52160304
   0.55908968  0.37536636  0.65454178
   0.80958783  0.87587553  0.65455471
   0.81309880  0.36998805  0.43450127
   0.81520832  0.53559718  0.25580237
   0.68444065  0.46299827  0.83298808
   0.18529747  0.78207519  0.12394127
   0.06407258  0.04219103  0.87564071
   0.30900231  0.37549620  0.65446253
   0.19088554  0.11128981  0.16770085
   0.81108129  0.54241436  0.74409516
   0.68492320  0.96347653  0.83311025
   0.55904639  0.87578399  0.65455367
   0.31377646  0.70829203  0.56578210
   0.31098955  0.53357828  0.12391758
   0.68112749  0.95255630  0.21255153
   0.31390278  0.20693163  0.56578294
   0.31115200  0.54258851  0.74403500
   0.68807523  0.95750631  0.56566847
   0.43698828  0.79191971  0.61055393
   0.69294603  0.61218710  0.16787405
   0.30439698  0.87229109  0.30020593
   0.31199405  0.70598018  0.47843059
   0.93805085  0.29149462  0.61066950
   0.42897622  0.62205155  0.30031827
   0.81708349  0.86119413  0.16774439
   0.55677365  0.20235388  0.21244942
   0.94111451  0.61291879  0.16750895
   0.94077801  0.79489904  0.87572982
   0.57083585  0.37483440  0.78812980
   0.06347054  0.37234691  0.52151053
   0.56340855  0.37244329  0.52160329
   0.68001328  0.12222065  0.30009848
   0.43261339  0.96184030  0.83329816
   0.18518158  0.28296835  0.12377528
   0.82033798  0.87424911  0.78803657
   0.31217465  0.37051494  0.43429847
   0.93814668  0.79179502  0.61069083
   0.43740736  0.29183865  0.61058411
   0.19167187  0.45199360  0.34487121
   0.43777994  0.28284117  0.12367150
   0.68995676  0.78599318  0.25577395
   0.19011173  0.95847770  0.69929174
   0.19149493  0.29598103  0.87580863
   0.18410085  0.12551980  0.65452524
   0.93464099  0.12569469  0.65460595
   0.30682082  0.20212615  0.21264792
   0.05915892  0.03712813  0.38920172
   0.44017098  0.95831861  0.69933457
   0.06295830  0.54179187  0.61079974
   0.93921531  0.28490335  0.25600199
   0.56218433  0.54178096  0.61061517
   0.93923818  0.95770074  0.56568773
   0.67918285  0.62144471  0.30008579
   0.93813414  0.61991702  0.43447558
   0.94441062  0.62487715  0.78817651
   0.56514764  0.70869709  0.69938168
   0.05976027  0.71321193  0.83337235
   0.92972435  0.12181273  0.30011641
   0.94004884  0.45814487  0.69935848
   0.44012891  0.78630680  0.25600830
   0.32013946  0.37452664  0.78819734
   0.43209283  0.45248330  0.21234081
   0.18834285  0.12216014  0.52159083
   0.81517916  0.70853559  0.69942146
   0.06315678  0.04166405  0.61067006
   0.55945489  0.21373889  0.83329558
   0.31351488  0.87185755  0.52160789
   0.68913393  0.28352169  0.12401569
   0.18052765  0.95143872  0.21250932
   0.68746392  0.29183559  0.61067340
   0.31257346  0.04173735  0.61068428
   0.94474403  0.12501418  0.78817494
   0.43884319  0.79456422  0.87568117
   0.81131653  0.04186380  0.74392583
   0.43809656  0.12176941  0.52165075
   0.18422679  0.62612550  0.65452114
   0.31525191  0.70879803  0.69932728
   0.93627821  0.28363132  0.12401093
   0.43780507  0.45596489  0.47847056
   0.06338975  0.70562951  0.47854071
   0.93931454  0.11982420  0.43415286
   0.42886925  0.12183443  0.30010954
   0.18754345  0.12037683  0.43430880
   0.56475765  0.04383576  0.87564652
   0.18968020  0.95703015  0.56550940
   0.68867484  0.78130572  0.12414069
   0.56385250  0.53244690  0.12406307
   0.30852677  0.03769997  0.38906573
   0.69311588  0.11259665  0.16797538
   0.80542858  0.20259067  0.21244256
   0.06419248  0.53612412  0.25594921
   0.56268208  0.70600248  0.47851925
   0.06427776  0.20728062  0.56579415
   0.55412624  0.37154730  0.30021555
   0.44064679  0.95219157  0.34481412
   0.18477157  0.96205458  0.83335515
   0.44250142  0.61281669  0.16794619
   0.93019697  0.45380690  0.21233185
   0.06038779  0.53348949  0.12414855
   0.81300881  0.37215939  0.52152871
   0.93001486  0.62203240  0.30013737
   0.31500918  0.03484193  0.25624721
   0.68750853  0.79191861  0.61069603
   0.18486032  0.46470101  0.83335519
   0.44278514  0.11170203  0.16808572
   0.31371241  0.37235292  0.52157596
   0.44568696  0.62474868  0.78817263
   0.06429730  0.03445100  0.25615305
   0.56300924  0.70773742  0.56563940
   0.93621350  0.29159012  0.74403287
   0.69565461  0.12496823  0.78817292
   0.18052939  0.45377225  0.21225097
   0.93519448  0.78789427  0.38898853
   0.69241061  0.29630040  0.87575739
   0.31608848  0.86114391  0.16777528
   0.44018437  0.45839813  0.69930138
   0.80952048  0.37537827  0.65457804
   0.68829881  0.62266890  0.52162993
   0.05932087  0.87591457  0.65448828
   0.06973471  0.87467204  0.78807477
   0.05931657  0.37554628  0.65453185
   0.68798083  0.45566207  0.47853527
   0.18975147  0.78653460  0.25601550
   0.43759457  0.12035322  0.43436934
   0.81296577  0.03264005  0.12395938
   0.93861722  0.62264653  0.52149408
   0.06322970  0.87155659  0.43439457
   0.81281086  0.53229980  0.12421657
   0.44003546  0.45215195  0.34472478
   0.81637582  0.20222634  0.34473024
   0.31478988  0.70168734  0.34473891
   0.68455676  0.12577112  0.65459126
   0.55382981  0.87221325  0.30018994
   0.06040735  0.54225431  0.74409350
   0.93725835  0.78097997  0.12420481
   0.80636650  0.70237402  0.21228732
   0.05497936  0.87315496  0.29988875
   0.17971878  0.12127304  0.30007183
   0.06629007  0.70235553  0.34490878
   0.81282363  0.04189679  0.61068577
   0.06353644  0.37022047  0.43437060
   0.56570722  0.20208276  0.34476303
   0.80387799  0.37107160  0.30029200
   0.43764988  0.95569883  0.47844699
   0.55836957  0.53737855  0.38904586
   0.06302992  0.20500060  0.47842911
   0.32000512  0.87428474  0.78824765
   0.94033961  0.95857776  0.69941437
   0.05477889  0.37201215  0.30029625
   0.68448503  0.62606995  0.65459797
   0.68845552  0.45780126  0.56567503
   0.43163868  0.95220490  0.21258010
   0.31247609  0.20494435  0.47834689
   0.43379769  0.12567838  0.65450430
   0.68773257  0.62081981  0.43449040
   0.81546660  0.20814172  0.69932561
   0.81329073  0.70587872  0.47854081
   0.56249989  0.37009456  0.43444612
   0.93815035  0.95574874  0.47850376
   0.56280592  0.20503568  0.47846551
   0.18812343  0.62055589  0.43422115
   0.31087452  0.04194553  0.74392301
   0.93463970  0.62610004  0.65458837
   0.55857647  0.71295078  0.83326319
   0.30514024  0.37187028  0.30032409
   0.55675402  0.70230162  0.21233121
   0.18752388  0.45606377  0.47840629
   0.31449613  0.04187269  0.87575176
   0.19009004  0.45816716  0.69927139
   0.81463284  0.54379974  0.87556073
   0.18371240  0.28745956  0.38911516
   0.43772669  0.62074078  0.43436232
   0.05484402  0.70223584  0.21225251
   0.56332894  0.03227802  0.12380420
   0.81673126  0.36397847  0.16751802
   0.80903647  0.71330242  0.83307705
   0.06957980  0.37460246  0.78812999
   0.44150314  0.29646059  0.87578446
   0.31066350  0.03137413  0.12361764
   0.68787508  0.11990223  0.43449380
   0.19063181  0.95180424  0.34489028
   0.05887336  0.21325314  0.83322107
   0.56237774  0.04172819  0.61057170
   0.68129614  0.45259167  0.21221546
   0.18592500  0.79210039  0.74398544
   0.17968006  0.62211749  0.30047370
   0.43339192  0.78786223  0.38908982
   0.44057177  0.28485195  0.25612487
   0.06497898  0.54410297  0.87573719
   0.56116434  0.04176591  0.74402362
   0.19319247  0.79523223  0.87591580
   0.93806048  0.45573893  0.47844759
   0.80950653  0.53803912  0.38909453
   0.81369178  0.20772835  0.56563723
   0.19480356  0.62509876  0.78822280
   0.93037405  0.95167528  0.21261363
   0.06518294  0.70877354  0.69931064
   0.31555318  0.53558084  0.25589837
   0.30622366  0.70247985  0.21243969
   0.56824268  0.86114134  0.16817567
   0.56154871  0.54257571  0.74399964
   0.69025019  0.45170594  0.34461044
   0.94101773  0.29587795  0.87574079
   0.56481961  0.03568135  0.25597490
   0.31503807  0.20314115  0.34485406
   0.30866262  0.71430906  0.83422793
   0.06370566  0.87199782  0.52125697
   0.81335328  0.87164461  0.43436006
   0.05948697  0.53821009  0.38899236
   0.94265986  0.95219640  0.34503261
   0.18778245  0.95558053  0.47846131
Direct configuration=     3
   0.06145201  0.03168328  0.12397744
   0.81484768  0.04291597  0.87565273
   0.19492336  0.12515540  0.78827026
   0.43294325  0.28703234  0.38910767
   0.31699207  0.36373955  0.16775524
   0.80935907  0.21299754  0.83312485
   0.18333626  0.78759072  0.38909574
   0.56349557  0.20726815  0.56561340
   0.06045489  0.04206763  0.74406155
   0.81326045  0.87203180  0.52136142
   0.18567320  0.29175660  0.74401469
   0.94112519  0.45194068  0.34480538
   0.93475387  0.28661426  0.38892045
   0.43800329  0.62272849  0.52159090
   0.18783034  0.79206109  0.61064414
   0.55879818  0.03745450  0.38886786
   0.93344773  0.96349336  0.83319136
   0.31448352  0.54419909  0.87558928
   0.68623766  0.29160766  0.74397779
   0.19018054  0.61331233  0.16751888
   0.81341946  0.20495712  0.47836907
   0.81268283  0.54194631  0.61072376
   0.31255960  0.87036837  0.43444425
   0.81544073  0.03518058  0.25592836
   0.69080020  0.95196409  0.34488870
   0.94103867  0.11231549  0.16746939
   0.93872577  0.12247838  0.52146517
   0.56504974  0.53490833  0.25594920
   0.69244611  0.79533179  0.87564610
   0.56857128  0.36343827  0.16778069
   0.43635524  0.79181931  0.74399293
   0.81382157  0.70741513  0.56559769
   0.57044322  0.87421362  0.78809795
   0.68852244  0.12227790  0.52149334
   0.19013280  0.28436444  0.25612209
   0.93359079  0.46304578  0.83298655
   0.06512523  0.20813255  0.69938623
   0.80930272  0.03719603  0.38908256
   0.30956885  0.21358576  0.83337079
   0.43404588  0.62601162  0.65460422
   0.31265679  0.54207105  0.61066166
   0.93892593  0.45732273  0.56564326
   0.68638084  0.79191081  0.74406026
   0.30881400  0.87577080  0.65458696
   0.68413811  0.78826876  0.38909798
   0.93590812  0.79202667  0.74408814
   0.06570312  0.20246624  0.34497483
   0.43674478  0.78200523  0.12397464
   0.44514188  0.12523879  0.78834602
   0.05483444  0.20237018  0.21236763
   0.06562999  0.36387341  0.16747808
   0.93996993  0.78606040  0.25589474
   0.56559604  0.20807362  0.69941103
   0.69035330  0.95837244  0.69945854
   0.68398021  0.28672327  0.38905363
   0.43827202  0.95734673  0.56567664
   0.82026744  0.37488404  0.78821961
   0.68996881  0.28516445  0.25603970
   0.18909679  0.45787218  0.56567131
   0.06617661  0.86063996  0.16748160
   0.18791965  0.29155878  0.61065194
   0.56544640  0.70201029  0.34474508
   0.31513104  0.20815415  0.69934054
   0.56403434  0.54253108  0.87565947
   0.06437987  0.70796173  0.56562141
   0.69539513  0.62458713  0.78823299
   0.30825697  0.53730704  0.38905448
   0.18859558  0.62286120  0.52150765
   0.56244919  0.87044466  0.43443553
   0.43863896  0.45801143  0.56565800
   0.43618453  0.29189445  0.74401154
   0.80475217  0.87257243  0.30001426
   0.81661866  0.70274965  0.34494550
   0.43360904  0.46394551  0.83342582
   0.68775735  0.95571942  0.47851736
   0.69043633  0.45829574  0.69944253
   0.56306032  0.87208235  0.52155779
   0.55906287  0.37540015  0.65460622
   0.80947007  0.87583127  0.65461349
   0.81301841  0.37007432  0.43449771
   0.81525645  0.53554790  0.25583071
   0.68429522  0.46302556  0.83299866
   0.18554710  0.78212478  0.12401612
   0.06407447  0.04229226  0.87563271
   0.30898469  0.37553471  0.65453614
   0.19109492  0.11140142  0.16757265
   0.81100630  0.54238229  0.74410305
   0.68475650  0.96348283  0.83311631
   0.55901956  0.87576136  0.65461112
   0.31379474  0.70819531  0.56573856
   0.31118245  0.53341723  0.12400469
   0.68097387  0.95261207  0.21243343
   0.31391267  0.20707249  0.56574501
   0.31109053  0.54256090  0.74406325
   0.68818132  0.95753986  0.56563263
   0.43708482  0.79193636  0.61060500
   0.69278274  0.61218333  0.16772490
   0.30428199  0.87231091  0.30022271
   0.31208518  0.70592801  0.47845972
   0.93803107  0.29153578  0.61068947
   0.42893875  0.62208968  0.30031195
   0.81703112  0.86138109  0.16759899
   0.55656606  0.20234057  0.21230956
   0.94125519  0.61283590  0.16740505
   0.94069213  0.79492761  0.87571649
   0.57085021  0.37477182  0.78817014
   0.06346853  0.37235464  0.52148786
   0.56341319  0.37242247  0.52155741
   0.67992984  0.12215948  0.30012965
   0.43263779  0.96202620  0.83328679
   0.18548569  0.28289648  0.12388508
   0.82041151  0.87426554  0.78808993
   0.31228811  0.37054765  0.43432115
   0.93811218  0.79179734  0.61070558
   0.43747360  0.29183195  0.61061487
   0.19174065  0.45194251  0.34488428
   0.43767742  0.28276120  0.12379103
   0.68998902  0.78589781  0.25580512
   0.19016168  0.95845250  0.69935577
   0.19137126  0.29599574  0.87580596
   0.18407333  0.12556324  0.65458730
   0.93453347  0.12575593  0.65466635
   0.30657497  0.20220847  0.21250158
   0.05906634  0.03715960  0.38917792
   0.44020783  0.95831271  0.69939328
   0.06291661  0.54177428  0.61082184
   0.93945419  0.28503149  0.25598792
   0.56227136  0.54178868  0.61065368
   0.93913926  0.95770714  0.56565034
   0.67917014  0.62153786  0.30009676
   0.93798889  0.61984196  0.43447366
   0.94460732  0.62486378  0.78822455
   0.56518706  0.70865285  0.69942678
   0.05959910  0.71318495  0.83334586
   0.92955451  0.12186500  0.30014831
   0.94011154  0.45818491  0.69941017
   0.44020947  0.78615618  0.25599870
   0.32023635  0.37452460  0.78823214
   0.43185533  0.45246264  0.21222387
   0.18834765  0.12222206  0.52154898
   0.81522134  0.70851198  0.69946449
   0.06309992  0.04167881  0.61068766
   0.55939540  0.21369343  0.83329348
   0.31355665  0.87186288  0.52155309
   0.68882528  0.28334779  0.12408536
   0.18052513  0.95157461  0.21236362
   0.68748785  0.29185893  0.61070385
   0.31260326  0.04177633  0.61072291
   0.94487867  0.12498060  0.78822660
   0.43913841  0.79487720  0.87568605
   0.81121144  0.04193126  0.74394645
   0.43812813  0.12178555  0.52159962
   0.18418769  0.62608968  0.65459201
   0.31527441  0.70873777  0.69938619
   0.93636597  0.28346592  0.12408330
   0.43781850  0.45595399  0.47849493
   0.06333436  0.70557274  0.47855964
   0.93920680  0.11984362  0.43417314
   0.42883801  0.12187610  0.30014252
   0.18762329  0.12037347  0.43433149
   0.56482565  0.04370826  0.87563812
   0.18954866  0.95708742  0.56546455
   0.68841491  0.78149816  0.12418951
   0.56357270  0.53245201  0.12412690
   0.30858691  0.03766277  0.38904652
   0.69298888  0.11249865  0.16781163
   0.80543870  0.20261846  0.21232606
   0.06440041  0.53597284  0.25594759
   0.56270040  0.70596733  0.47853780
   0.06421116  0.20734801  0.56574922
   0.55406910  0.37164803  0.30023354
   0.44079930  0.95221659  0.34483887
   0.18463013  0.96224218  0.83332877
   0.44242635  0.61270515  0.16776876
   0.93021948  0.45367893  0.21225051
   0.06062790  0.53337575  0.12419910
   0.81305850  0.37214826  0.52149613
   0.92981671  0.62206989  0.30016621
   0.31509686  0.03490537  0.25621068
   0.68753888  0.79192137  0.61072782
   0.18467740  0.46464774  0.83333937
   0.44267331  0.11177745  0.16788828
   0.31368649  0.37233421  0.52153146
   0.44575999  0.62470292  0.78820005
   0.06446083  0.03457509  0.25612549
   0.56312614  0.70770687  0.56559898
   0.93617704  0.29161502  0.74405326
   0.69567010  0.12491509  0.78821509
   0.18053808  0.45359748  0.21215780
   0.93498662  0.78775323  0.38898345
   0.69256047  0.29638962  0.87576107
   0.31622615  0.86132012  0.16762451
   0.44019650  0.45837803  0.69936013
   0.80941311  0.37541811  0.65463417
   0.68831592  0.62262086  0.52159476
   0.05924661  0.87587950  0.65455686
   0.06991617  0.87463391  0.78812892
   0.05925058  0.37560026  0.65459264
   0.68795472  0.45567883  0.47855066
   0.18989094  0.78635838  0.25600254
   0.43766364  0.12035843  0.43438476
   0.81274727  0.03263670  0.12403257
   0.93858005  0.62254215  0.52147697
   0.06314310  0.87149616  0.43441872
   0.81261544  0.53235554  0.12425289
   0.44023882  0.45208267  0.34476267