 288 288   0   0
  0.1280206E+02  0.9726678E-09  0.8423550E-09  0.4500000E-08  0.2500000E-15
  1.000000000000000E-004
  CAR 
 unknown system                          
      6.81180457     -6.05648223  301      4.29718955      1.00000000
     -6.056  0.0000E+00  0.0000E+00
     -6.014  0.0000E+00  0.0000E+00
     -5.971  0.0000E+00  0.0000E+00
     -5.928  0.0000E+00  0.0000E+00
     -5.885  0.0000E+00  0.0000E+00
     -5.842  0.0000E+00  0.0000E+00
     -5.799  0.0000E+00  0.0000E+00
     -5.756  0.0000E+00  0.0000E+00
     -5.713  0.0000E+00  0.0000E+00
     -5.670  0.0000E+00  0.0000E+00
     -5.628  0.0000E+00  0.0000E+00
     -5.585  0.0000E+00  0.0000E+00
     -5.542  0.0000E+00  0.0000E+00
     -5.499  0.0000E+00  0.0000E+00
     -5.456  0.0000E+00  0.0000E+00
     -5.413  0.1941E-15  0.8327E-17
     -5.370  0.4756E-14  0.2123E-15
     -5.327  0.1021E-12  0.4594E-14
     -5.284  0.1864E-11  0.8453E-13
     -5.241  0.2893E-10  0.1325E-11
     -5.199  0.3821E-09  0.1771E-10
     -5.156  0.4294E-08  0.2019E-09
     -5.113  0.4108E-07  0.1964E-08
     -5.070  0.3346E-06  0.1632E-07
     -5.027  0.2323E-05  0.1160E-06
     -4.984  0.1376E-04  0.7061E-06
     -4.941  0.6960E-04  0.3692E-05
     -4.898  0.3016E-03  0.1663E-04
     -4.855  0.1123E-02  0.6479E-04
     -4.813  0.3610E-02  0.2196E-03
     -4.770  0.1009E-01  0.6526E-03
     -4.727  0.2479E-01  0.1716E-02
     -4.684  0.5408E-01  0.4035E-02
     -4.641  0.1062E+00  0.8592E-02
     -4.598  0.1903E+00  0.1675E-01
     -4.555  0.3141E+00  0.3022E-01
     -4.512  0.4813E+00  0.5087E-01
     -4.469  0.6887E+00  0.8041E-01
     -4.426  0.9238E+00  0.1200E+00
     -4.384  0.1167E+01  0.1701E+00
     -4.341  0.1392E+01  0.2298E+00
     -4.298  0.1578E+01  0.2975E+00
     -4.255  0.1710E+01  0.3708E+00
     -4.212  0.1790E+01  0.4476E+00
     -4.169  0.1839E+01  0.5265E+00
     -4.126  0.1890E+01  0.6075E+00
     -4.083  0.1978E+01  0.6924E+00
     -4.040  0.2129E+01  0.7837E+00
     -3.998  0.2347E+01  0.8843E+00
     -3.955  0.2608E+01  0.9962E+00
     -3.912  0.2869E+01  0.1119E+01
     -3.869  0.3077E+01  0.1251E+01
     -3.826  0.3191E+01  0.1388E+01
     -3.783  0.3201E+01  0.1525E+01
     -3.740  0.3131E+01  0.1660E+01
     -3.697  0.3036E+01  0.1790E+01
     -3.654  0.2980E+01  0.1918E+01
     -3.612  0.3014E+01  0.2047E+01
     -3.569  0.3157E+01  0.2182E+01
     -3.526  0.3386E+01  0.2328E+01
     -3.483  0.3654E+01  0.2484E+01
     -3.440  0.3903E+01  0.2652E+01
     -3.397  0.4086E+01  0.2827E+01
     -3.354  0.4182E+01  0.3007E+01
     -3.311  0.4202E+01  0.3187E+01
     -3.268  0.4180E+01  0.3366E+01
     -3.225  0.4161E+01  0.3545E+01
     -3.183  0.4187E+01  0.3724E+01
     -3.140  0.4283E+01  0.3908E+01
     -3.097  0.4450E+01  0.4099E+01
     -3.054  0.4671E+01  0.4299E+01
     -3.011  0.4914E+01  0.4510E+01
     -2.968  0.5142E+01  0.4730E+01
     -2.925  0.5318E+01  0.4959E+01
     -2.882  0.5419E+01  0.5191E+01
     -2.839  0.5453E+01  0.5425E+01
     -2.797  0.5454E+01  0.5659E+01
     -2.754  0.5465E+01  0.5893E+01
     -2.711  0.5506E+01  0.6129E+01
     -2.668  0.5560E+01  0.6368E+01
     -2.625  0.5581E+01  0.6607E+01
     -2.582  0.5544E+01  0.6845E+01
     -2.539  0.5474E+01  0.7080E+01
     -2.496  0.5456E+01  0.7314E+01
     -2.453  0.5595E+01  0.7554E+01
     -2.410  0.5956E+01  0.7809E+01
     -2.368  0.6507E+01  0.8088E+01
     -2.325  0.7104E+01  0.8393E+01
     -2.282  0.7539E+01  0.8717E+01
     -2.239  0.7652E+01  0.9045E+01
     -2.196  0.7429E+01  0.9363E+01
     -2.153  0.7032E+01  0.9665E+01
     -2.110  0.6716E+01  0.9953E+01
     -2.067  0.6694E+01  0.1024E+02
     -2.024  0.7040E+01  0.1054E+02
     -1.982  0.7653E+01  0.1087E+02
     -1.939  0.8319E+01  0.1123E+02
     -1.896  0.8809E+01  0.1161E+02
     -1.853  0.8992E+01  0.1199E+02
     -1.810  0.8895E+01  0.1237E+02
     -1.767  0.8681E+01  0.1274E+02
     -1.724  0.8539E+01  0.1311E+02
     -1.681  0.8587E+01  0.1348E+02
     -1.638  0.8821E+01  0.1386E+02
     -1.595  0.9156E+01  0.1425E+02
     -1.553  0.9497E+01  0.1466E+02
     -1.510  0.9788E+01  0.1508E+02
     -1.467  0.1003E+02  0.1551E+02
     -1.424  0.1022E+02  0.1595E+02
     -1.381  0.1038E+02  0.1639E+02
     -1.338  0.1053E+02  0.1684E+02
     -1.295  0.1074E+02  0.1730E+02
     -1.252  0.1118E+02  0.1778E+02
     -1.209  0.1196E+02  0.1830E+02
     -1.167  0.1304E+02  0.1886E+02
     -1.124  0.1417E+02  0.1946E+02
     -1.081  0.1503E+02  0.2011E+02
     -1.038  0.1540E+02  0.2077E+02
     -0.995  0.1537E+02  0.2143E+02
     -0.952  0.1531E+02  0.2208E+02
     -0.909  0.1567E+02  0.2276E+02
     -0.866  0.1670E+02  0.2347E+02
     -0.823  0.1838E+02  0.2426E+02
     -0.780  0.2055E+02  0.2514E+02
     -0.738  0.2310E+02  0.2613E+02
     -0.695  0.2615E+02  0.2726E+02
     -0.652  0.2988E+02  0.2854E+02
     -0.609  0.3426E+02  0.3001E+02
     -0.566  0.3891E+02  0.3168E+02
     -0.523  0.4321E+02  0.3353E+02
     -0.480  0.4667E+02  0.3553E+02
     -0.437  0.4919E+02  0.3764E+02
     -0.394  0.5102E+02  0.3983E+02
     -0.352  0.5251E+02  0.4208E+02
     -0.309  0.5387E+02  0.4439E+02
     -0.266  0.5512E+02  0.4676E+02
     -0.223  0.5612E+02  0.4916E+02
     -0.180  0.5679E+02  0.5160E+02
     -0.137  0.5715E+02  0.5405E+02
     -0.094  0.5734E+02  0.5651E+02
     -0.051  0.5759E+02  0.5898E+02
     -0.008  0.5812E+02  0.6147E+02
      0.035  0.5912E+02  0.6401E+02
      0.077  0.6080E+02  0.6662E+02
      0.120  0.6325E+02  0.6933E+02
      0.163  0.6636E+02  0.7218E+02
      0.206  0.6983E+02  0.7517E+02
      0.249  0.7329E+02  0.7832E+02
      0.292  0.7645E+02  0.8160E+02
      0.335  0.7918E+02  0.8499E+02
      0.378  0.8147E+02  0.8849E+02
      0.421  0.8333E+02  0.9206E+02
      0.463  0.8476E+02  0.9570E+02
      0.506  0.8573E+02  0.9937E+02
      0.549  0.8628E+02  0.1031E+03
      0.592  0.8644E+02  0.1068E+03
      0.635  0.8624E+02  0.1105E+03
      0.678  0.8564E+02  0.1142E+03
      0.721  0.8454E+02  0.1178E+03
      0.764  0.8293E+02  0.1213E+03
      0.807  0.8095E+02  0.1248E+03
      0.849  0.7896E+02  0.1282E+03
      0.892  0.7735E+02  0.1315E+03
      0.935  0.7634E+02  0.1348E+03
      0.978  0.7585E+02  0.1380E+03
      1.021  0.7558E+02  0.1413E+03
      1.064  0.7522E+02  0.1445E+03
      1.107  0.7464E+02  0.1477E+03
      1.150  0.7395E+02  0.1509E+03
      1.193  0.7343E+02  0.1540E+03
      1.236  0.7329E+02  0.1572E+03
      1.278  0.7350E+02  0.1603E+03
      1.321  0.7373E+02  0.1635E+03
      1.364  0.7356E+02  0.1667E+03
      1.407  0.7271E+02  0.1698E+03
      1.450  0.7130E+02  0.1728E+03
      1.493  0.6982E+02  0.1758E+03
      1.536  0.6889E+02  0.1788E+03
      1.579  0.6894E+02  0.1817E+03
      1.622  0.7009E+02  0.1847E+03
      1.664  0.7212E+02  0.1878E+03
      1.707  0.7464E+02  0.1910E+03
      1.750  0.7723E+02  0.1943E+03
      1.793  0.7960E+02  0.1978E+03
      1.836  0.8165E+02  0.2013E+03
      1.879  0.8339E+02  0.2048E+03
      1.922  0.8489E+02  0.2085E+03
      1.965  0.8625E+02  0.2122E+03
      2.008  0.8758E+02  0.2159E+03
      2.051  0.8895E+02  0.2198E+03
      2.093  0.9044E+02  0.2236E+03
      2.136  0.9205E+02  0.2276E+03
      2.179  0.9375E+02  0.2316E+03
      2.222  0.9552E+02  0.2357E+03
      2.265  0.9751E+02  0.2399E+03
      2.308  0.9998E+02  0.2442E+03
      2.351  0.1032E+03  0.2486E+03
      2.394  0.1071E+03  0.2532E+03
      2.437  0.1116E+03  0.2580E+03
      2.479  0.1162E+03  0.2630E+03
      2.522  0.1204E+03  0.2681E+03
      2.565  0.1240E+03  0.2735E+03
      2.608  0.1268E+03  0.2789E+03
      2.651  0.1285E+03  0.2844E+03
      2.694  0.1294E+03  0.2900E+03
      2.737  0.1297E+03  0.2955E+03
      2.780  0.1301E+03  0.3011E+03
      2.823  0.1313E+03  0.3067E+03
      2.866  0.1335E+03  0.3125E+03
      2.908  0.1364E+03  0.3183E+03
      2.951  0.1387E+03  0.3243E+03
      2.994  0.1389E+03  0.3302E+03
      3.037  0.1357E+03  0.3360E+03
      3.080  0.1291E+03  0.3416E+03
      3.123  0.1203E+03  0.3467E+03
      3.166  0.1111E+03  0.3515E+03
      3.209  0.1030E+03  0.3559E+03
      3.252  0.9723E+02  0.3601E+03
      3.294  0.9385E+02  0.3641E+03
      3.337  0.9250E+02  0.3681E+03
      3.380  0.9236E+02  0.3720E+03
      3.423  0.9251E+02  0.3760E+03
      3.466  0.9212E+02  0.3800E+03
      3.509  0.9076E+02  0.3839E+03
      3.552  0.8856E+02  0.3877E+03
      3.595  0.8619E+02  0.3914E+03
      3.638  0.8463E+02  0.3950E+03
      3.681  0.8467E+02  0.3986E+03
      3.723  0.8648E+02  0.4023E+03
      3.766  0.8952E+02  0.4062E+03
      3.809  0.9287E+02  0.4102E+03
      3.852  0.9578E+02  0.4143E+03
      3.895  0.9799E+02  0.4185E+03
      3.938  0.9970E+02  0.4227E+03
      3.981  0.1012E+03  0.4271E+03
      4.024  0.1025E+03  0.4315E+03
      4.067  0.1034E+03  0.4359E+03
      4.109  0.1038E+03  0.4404E+03
      4.152  0.1033E+03  0.4448E+03
      4.195  0.1023E+03  0.4492E+03
      4.238  0.1010E+03  0.4535E+03
      4.281  0.9983E+02  0.4578E+03
      4.324  0.9906E+02  0.4620E+03
      4.367  0.9888E+02  0.4663E+03
      4.410  0.9925E+02  0.4705E+03
      4.453  0.9989E+02  0.4748E+03
      4.496  0.1004E+03  0.4791E+03
      4.538  0.1004E+03  0.4834E+03
      4.581  0.1000E+03  0.4877E+03
      4.624  0.9944E+02  0.4920E+03
      4.667  0.9926E+02  0.4963E+03
      4.710  0.9996E+02  0.5005E+03
      4.753  0.1017E+03  0.5049E+03
      4.796  0.1043E+03  0.5094E+03
      4.839  0.1073E+03  0.5140E+03
      4.882  0.1102E+03  0.5187E+03
      4.924  0.1125E+03  0.5235E+03
      4.967  0.1136E+03  0.5284E+03
      5.010  0.1125E+03  0.5332E+03
      5.053  0.1082E+03  0.5379E+03
      5.096  0.9958E+02  0.5421E+03
      5.139  0.8653E+02  0.5459E+03
      5.182  0.6998E+02  0.5489E+03
      5.225  0.5199E+02  0.5511E+03
      5.268  0.3509E+02  0.5526E+03
      5.311  0.2132E+02  0.5535E+03
      5.353  0.1157E+02  0.5540E+03
      5.396  0.5585E+01  0.5542E+03
      5.439  0.2387E+01  0.5543E+03
      5.482  0.9027E+00  0.5544E+03
      5.525  0.3018E+00  0.5544E+03
      5.568  0.8930E-01  0.5544E+03
      5.611  0.2343E-01  0.5544E+03
      5.654  0.5460E-02  0.5544E+03
      5.697  0.1131E-02  0.5544E+03
      5.739  0.2082E-03  0.5544E+03
      5.782  0.3398E-04  0.5544E+03
      5.825  0.4897E-05  0.5544E+03
      5.868  0.6201E-06  0.5544E+03
      5.911  0.6864E-07  0.5544E+03
      5.954  0.6605E-08  0.5544E+03
      5.997  0.5501E-09  0.5544E+03
      6.040  0.3949E-10  0.5544E+03
      6.083  0.2436E-11  0.5544E+03
      6.125  0.1281E-12  0.5544E+03
      6.168  0.5630E-14  0.5544E+03
      6.211  0.1941E-15  0.5544E+03
      6.254  0.0000E+00  0.5544E+03
      6.297  0.0000E+00  0.5544E+03
      6.340  0.0000E+00  0.5544E+03
      6.383  0.0000E+00  0.5544E+03
      6.426  0.0000E+00  0.5544E+03
      6.469  0.0000E+00  0.5544E+03
      6.512  0.0000E+00  0.5544E+03
      6.554  0.0000E+00  0.5544E+03
      6.597  0.0000E+00  0.5544E+03
      6.640  0.0000E+00  0.5544E+03
      6.683  0.0000E+00  0.5544E+03
      6.726  0.0000E+00  0.5544E+03
      6.769  0.0000E+00  0.5544E+03
      6.812  0.0000E+00  0.5544E+03
