 running on  448 total cores
 distrk:  each k-point on  112 cores,    4 groups
 distr:  one band on    8 cores,   14 groups
 using from now: INCAR     
 vasp.5.4.4.18Apr17-6-g9f103f2a35 (build Sep 27 2018 12:46:37) complex + VL-xray
 _
 POSCAR found type information on POSCAR  Fe Mn
 POSCAR found :  2 types and     288 ions
 scaLAPACK will be used

 ----------------------------------------------------------------------------- 
|                                                                             |
|           W    W    AA    RRRRR   N    N  II  N    N   GGGG   !!!           |
|           W    W   A  A   R    R  NN   N  II  NN   N  G    G  !!!           |
|           W    W  A    A  R    R  N N  N  II  N N  N  G       !!!           |
|           W WW W  AAAAAA  RRRRR   N  N N  II  N  N N  G  GGG   !            |
|           WW  WW  A    A  R   R   N   NN  II  N   NN  G    G                |
|           W    W  A    A  R    R  N    N  II  N    N   GGGG   !!!           |
|                                                                             |
|      For optimal performance we recommend to set                            |
|        NCORE= 4 - approx SQRT( number of cores)                             |
|      NCORE specifies how many cores store one orbital (NPAR=cpu/NCORE).     |
|      This setting can  greatly improve the performance of VASP for DFT.     |
|      The default,   NCORE=1            might be grossly inefficient         |
|      on modern multi-core architectures or massively parallel machines.     |
|      Do your own testing !!!!                                               |
|      Unfortunately you need to use the default for GW and RPA calculations. |
|      (for HF NCORE is supported but not extensively tested yet)             |
|                                                                             |
 ----------------------------------------------------------------------------- 


 ----------------------------------------------------------------------------- 
|                                                                             |
|           W    W    AA    RRRRR   N    N  II  N    N   GGGG   !!!           |
|           W    W   A  A   R    R  NN   N  II  NN   N  G    G  !!!           |
|           W    W  A    A  R    R  N N  N  II  N N  N  G       !!!           |
|           W WW W  AAAAAA  RRRRR   N  N N  II  N  N N  G  GGG   !            |
|           WW  WW  A    A  R   R   N   NN  II  N   NN  G    G                |
|           W    W  A    A  R    R  N    N  II  N    N   GGGG   !!!           |
|                                                                             |
|      You have enabled k-point parallelism (KPAR>1).                         |
|      This developmental code was originally  written by Paul Kent at ORNL,  |
|      and carefully double checked in Vienna.                                |
|      GW as well as linear response parallelism added by Martijn Marsman     |
|      and Georg Kresse.                                                      |
|      Carefully verify results versus KPAR=1.                                |
|      Report problems to Paul Kent and Vienna.                               |
|                                                                             |
 ----------------------------------------------------------------------------- 

 LDA part: xc-table for Pade appr. of Perdew
 POSCAR found type information on POSCAR  Fe Mn
 POSCAR found :  2 types and     288 ions
 POSCAR, INCAR and KPOINTS ok, starting setup
 FFT: planning ...
 WAVECAR not read
 WARNING: random wavefunctions but no delay for mixing, default for NELMDL
 entering main loop
       N       E                     dE             d eps       ncg     rms          rms(c)
DAV:   1     0.292353293396E+05    0.29235E+05   -0.86594E+05 27944   0.197E+03
DAV:   2     0.119725020912E+04   -0.28038E+05   -0.27425E+05 27720   0.605E+02
DAV:   3    -0.194153132239E+04   -0.31388E+04   -0.27277E+04 39144   0.280E+02
DAV:   4    -0.261134981231E+04   -0.66982E+03   -0.61005E+03 50862   0.978E+01
DAV:   5    -0.273133829367E+04   -0.11999E+03   -0.11241E+03 48342   0.398E+01    0.203E+02
RMM:   6    -0.604487024857E+04   -0.33135E+04   -0.12844E+04 48611   0.255E+02    0.669E+02
RMM:   7    -0.404199039791E+04    0.20029E+04   -0.35270E+03 48237   0.102E+02    0.396E+02
RMM:   8    -0.103417792559E+05   -0.62998E+04   -0.20599E+04 47939   0.367E+02    0.124E+03
RMM:   9    -0.126641249478E+05   -0.23223E+04   -0.19202E+04 48132   0.215E+02    0.108E+03
RMM:  10    -0.117022098823E+05    0.96192E+03   -0.11551E+04 48732   0.211E+02    0.952E+02
RMM:  11    -0.899836951671E+04    0.27038E+04   -0.11560E+04 40187   0.221E+02    0.650E+02
RMM:  12    -0.859989919029E+04    0.39847E+03   -0.54929E+03 44831   0.114E+02    0.569E+02
RMM:  13    -0.393373093411E+04    0.46662E+04   -0.59698E+03 40034   0.238E+02    0.472E+02
RMM:  14    -0.453046107536E+04   -0.59673E+03   -0.40703E+03 45229   0.119E+02    0.446E+02
RMM:  15    -0.375801543236E+04    0.77245E+03   -0.20374E+03 46568   0.978E+01    0.358E+02
RMM:  16    -0.367823736178E+04    0.79778E+02   -0.15808E+03 38933   0.812E+01    0.336E+02
RMM:  17    -0.328721647385E+04    0.39102E+03   -0.15025E+03 49641   0.632E+01    0.275E+02
RMM:  18    -0.271057575599E+04    0.57664E+03   -0.13283E+03 28523   0.773E+01    0.222E+02
RMM:  19    -0.269998321740E+04    0.10593E+02   -0.15603E+03 42853   0.345E+01    0.214E+02
RMM:  20    -0.287075405389E+04   -0.17077E+03   -0.13194E+03 38656   0.325E+01    0.208E+02
RMM:  21    -0.270289815502E+04    0.16786E+03   -0.65308E+02 38414   0.231E+01    0.195E+02
RMM:  22    -0.269480793412E+04    0.80902E+01   -0.53314E+02 42800   0.180E+01    0.189E+02
RMM:  23    -0.258378165653E+04    0.11103E+03   -0.28795E+02 39825   0.118E+01    0.173E+02
RMM:  24    -0.257559568685E+04    0.81860E+01   -0.17250E+02 45386   0.546E+00    0.178E+02
RMM:  25    -0.263194354708E+04   -0.56348E+02   -0.11998E+02 41921   0.530E+00    0.191E+02
RMM:  26    -0.256246999460E+04    0.69474E+02   -0.33820E+01 34166   0.523E+00    0.187E+02
RMM:  27    -0.243045131137E+04    0.13202E+03   -0.62433E+01 34817   0.925E+00    0.138E+02
RMM:  28    -0.237216443018E+04    0.58287E+02   -0.11069E+02 34041   0.120E+01    0.113E+02
RMM:  29    -0.235488764176E+04    0.17277E+02   -0.64967E+01 30548   0.134E+01    0.973E+01
RMM:  30    -0.234953918898E+04    0.53485E+01   -0.88645E+01 42767   0.657E+00    0.831E+01
RMM:  31    -0.234695282317E+04    0.25864E+01   -0.34930E+01 38457   0.562E+00    0.729E+01
RMM:  32    -0.234531667327E+04    0.16361E+01   -0.24784E+01 35244   0.579E+00    0.713E+01
RMM:  33    -0.235334073901E+04   -0.80241E+01   -0.24564E+01 35268   0.593E+00    0.779E+01
RMM:  34    -0.235268711223E+04    0.65363E+00   -0.24255E+01 42137   0.424E+00    0.748E+01
RMM:  35    -0.235125665261E+04    0.14305E+01   -0.10339E+01 38600   0.284E+00    0.730E+01
RMM:  36    -0.235091278757E+04    0.34387E+00   -0.60522E+00 38421   0.216E+00    0.732E+01
RMM:  37    -0.235175799801E+04   -0.84521E+00   -0.48118E+00 31051   0.343E+00    0.763E+01
RMM:  38    -0.235082436739E+04    0.93363E+00   -0.67852E+00 32206   0.372E+00    0.772E+01
RMM:  39    -0.234265567222E+04    0.81687E+01   -0.77564E+00 35707   0.329E+00    0.692E+01
RMM:  40    -0.234253341485E+04    0.12226E+00   -0.57881E+00 32867   0.324E+00    0.689E+01
RMM:  41    -0.234208433303E+04    0.44908E+00   -0.60064E+00 36572   0.286E+00    0.668E+01
RMM:  42    -0.233767871631E+04    0.44056E+01   -0.34113E+00 31095   0.298E+00    0.634E+01
RMM:  43    -0.233320856223E+04    0.44702E+01   -0.35588E+00 33965   0.245E+00    0.566E+01
RMM:  44    -0.232823424156E+04    0.49743E+01   -0.52746E+00 37497   0.263E+00    0.483E+01
RMM:  45    -0.232430281867E+04    0.39314E+01   -0.43898E+00 36913   0.224E+00    0.392E+01
RMM:  46    -0.232330391121E+04    0.99891E+00   -0.41815E+00 42819   0.138E+00    0.358E+01
RMM:  47    -0.232348260773E+04   -0.17870E+00   -0.18112E+00 45595   0.393E-01    0.357E+01
RMM:  48    -0.232384419691E+04   -0.36159E+00   -0.34572E-01 37490   0.364E-01    0.367E+01
RMM:  49    -0.232382288512E+04    0.21312E-01   -0.18569E-01 45374   0.165E-01    0.364E+01
RMM:  50    -0.232384737832E+04   -0.24493E-01   -0.81911E-02 43966   0.711E-02    0.365E+01
RMM:  51    -0.234842181494E+04   -0.24574E+02   -0.30850E+01 30015   0.977E+00    0.707E+01
RMM:  52    -0.235531221246E+04   -0.68904E+01   -0.21109E+01 31827   0.664E+00    0.769E+01
RMM:  53    -0.234167971623E+04    0.13632E+02   -0.19146E+01 32168   0.643E+00    0.613E+01
RMM:  54    -0.233931948599E+04    0.23602E+01   -0.16308E+01 31986   0.596E+00    0.583E+01
RMM:  55    -0.234606351233E+04   -0.67440E+01   -0.19614E+01 33637   0.610E+00    0.682E+01
RMM:  56    -0.236594210017E+04   -0.19879E+02   -0.46424E+01 30948   0.108E+01    0.943E+01
RMM:  57    -0.236917662637E+04   -0.32345E+01   -0.49200E+01 41220   0.673E+00    0.973E+01
RMM:  58    -0.236028246951E+04    0.88942E+01   -0.15599E+01 32373   0.578E+00    0.902E+01
RMM:  59    -0.235516861570E+04    0.51139E+01   -0.15272E+01 35927   0.478E+00    0.832E+01
RMM:  60    -0.236013445356E+04   -0.49658E+01   -0.19788E+01 34264   0.557E+00    0.821E+01
RMM:  61    -0.238036272761E+04   -0.20228E+02   -0.24006E+01 32922   0.653E+00    0.965E+01
RMM:  62    -0.238749816528E+04   -0.71354E+01   -0.35103E+01 42360   0.440E+00    0.993E+01
RMM:  63    -0.239035298584E+04   -0.28548E+01   -0.28381E+01 46681   0.148E+00    0.107E+02
RMM:  64    -0.238945206411E+04    0.90092E+00   -0.20394E+01 31995   0.646E+00    0.109E+02
RMM:  65    -0.239707132265E+04   -0.76193E+01   -0.16109E+01 30516   0.644E+00    0.110E+02
RMM:  66    -0.241759371881E+04   -0.20522E+02   -0.33991E+01 31413   0.862E+00    0.123E+02
RMM:  67    -0.241794018709E+04   -0.34647E+00   -0.21846E+01 31928   0.637E+00    0.117E+02
RMM:  68    -0.241947565360E+04   -0.15355E+01   -0.21480E+01 40152   0.318E+00    0.121E+02
RMM:  69    -0.242119521114E+04   -0.17196E+01   -0.13867E+01 45173   0.159E+00    0.125E+02
RMM:  70    -0.242198437131E+04   -0.78916E+00   -0.62255E+00 46627   0.752E-01    0.128E+02
RMM:  71    -0.242058044358E+04    0.14039E+01   -0.49461E+00 31373   0.317E+00    0.128E+02
RMM:  72    -0.242542774041E+04   -0.48473E+01   -0.35306E+00 30247   0.295E+00    0.130E+02
RMM:  73    -0.243433011835E+04   -0.89024E+01   -0.53609E+00 36750   0.184E+00    0.133E+02
RMM:  74    -0.243616341221E+04   -0.18333E+01   -0.46866E+00 44984   0.627E-01    0.136E+02
RMM:  75    -0.243050786953E+04    0.56555E+01   -0.17514E+00 30331   0.196E+00    0.135E+02
RMM:  76    -0.241159256795E+04    0.18915E+02   -0.78548E+00 28679   0.539E+00    0.131E+02
RMM:  77    -0.241185692724E+04   -0.26436E+00   -0.37930E+00 27833   0.481E+00    0.130E+02
RMM:  78    -0.240569426353E+04    0.61627E+01   -0.31080E+00 29471   0.317E+00    0.125E+02
RMM:  79    -0.239537537172E+04    0.10319E+02   -0.46939E+00 31534   0.320E+00    0.117E+02
RMM:  80    -0.238799082590E+04    0.73845E+01   -0.54297E+00 38568   0.245E+00    0.112E+02
RMM:  81    -0.238495177963E+04    0.30390E+01   -0.78913E+00 31624   0.413E+00    0.112E+02
RMM:  82    -0.238538837624E+04   -0.43660E+00   -0.27251E+00 27887   0.385E+00    0.111E+02
RMM:  83    -0.238797212101E+04   -0.25837E+01   -0.19495E+00 31343   0.217E+00    0.113E+02
RMM:  84    -0.239057566172E+04   -0.26035E+01   -0.79680E-01 29510   0.162E+00    0.115E+02
RMM:  85    -0.239302038887E+04   -0.24447E+01   -0.83430E-01 29624   0.165E+00    0.117E+02
RMM:  86    -0.239349468397E+04   -0.47430E+00   -0.82675E-01 30427   0.155E+00    0.117E+02
RMM:  87    -0.239181454090E+04    0.16801E+01   -0.41907E-01 28345   0.143E+00    0.116E+02
RMM:  88    -0.239296325428E+04   -0.11487E+01   -0.42224E-01 30078   0.112E+00    0.117E+02
RMM:  89    -0.239475443527E+04   -0.17912E+01   -0.45996E-01 31025   0.109E+00    0.118E+02
RMM:  90    -0.239638292438E+04   -0.16285E+01   -0.46061E-01 36444   0.855E-01    0.119E+02
RMM:  91    -0.238465376523E+04    0.11729E+02   -0.20169E+00 28679   0.267E+00    0.113E+02
RMM:  92    -0.238119350494E+04    0.34603E+01   -0.75790E-01 28286   0.197E+00    0.111E+02
RMM:  93    -0.237931081782E+04    0.18827E+01   -0.87407E-01 42400   0.582E-01    0.109E+02
RMM:  94    -0.237826969027E+04    0.10411E+01   -0.27823E-01 43928   0.331E-01    0.108E+02
RMM:  95    -0.237763647100E+04    0.63322E+00   -0.76241E-02 39907   0.218E-01    0.108E+02
RMM:  96    -0.237688596417E+04    0.75051E+00   -0.13121E+00 29756   0.196E+00    0.107E+02
RMM:  97    -0.237779412173E+04   -0.90816E+00   -0.53769E-01 27729   0.185E+00    0.107E+02
RMM:  98    -0.237794531119E+04   -0.15119E+00   -0.17758E-01 29332   0.805E-01    0.107E+02
RMM:  99    -0.237744640307E+04    0.49891E+00   -0.12109E-01 40836   0.314E-01    0.107E+02
RMM: 100    -0.237735869331E+04    0.87710E-01   -0.46445E-02 45054   0.876E-02
   1 F= -.23773587E+04 E0= -.23747224E+04  d E =-.237736E+04
 curvature:   0.00 expect dE= 0.000E+00 dE for cont linesearch  0.000E+00
 trial: gam= 0.00000 g(F)=  0.166E+02 g(S)=  0.000E+00 ort = 0.000E+00 (trialstep = 0.100E+01)
 search vector abs. value=  0.166E+02
 bond charge predicted
       N       E                     dE             d eps       ncg     rms          rms(c)
DAV:   1    -0.238808145164E+04   -0.10635E+02   -0.34142E+03 27930   0.653E+01    0.122E+02
RMM:   2    -0.167915738018E+05   -0.14403E+05   -0.11135E+04 47155   0.197E+02    0.681E+02
RMM:   3    -0.492614732718E+04    0.11865E+05   -0.39990E+03 33290   0.158E+02    0.466E+02
RMM:   4    -0.720132400428E+04   -0.22752E+04   -0.44941E+03 36992   0.156E+02    0.438E+02
RMM:   5    -0.422675501478E+04    0.29746E+04   -0.22338E+03 46456   0.528E+01    0.345E+02
RMM:   6    -0.468428016337E+04   -0.45753E+03   -0.15401E+03 39536   0.868E+01    0.379E+02
RMM:   7    -0.405980728743E+04    0.62447E+03   -0.24025E+03 31964   0.107E+02    0.326E+02
RMM:   8    -0.346620644481E+04    0.59360E+03   -0.12312E+03 36252   0.520E+01    0.276E+02
RMM:   9    -0.283321892996E+04    0.63299E+03   -0.92781E+02 35501   0.439E+01    0.220E+02
RMM:  10    -0.266410689596E+04    0.16911E+03   -0.62973E+02 37253   0.309E+01    0.205E+02
RMM:  11    -0.271008828443E+04   -0.45981E+02   -0.89138E+02 41852   0.311E+01    0.200E+02
RMM:  12    -0.248200206552E+04    0.22809E+03   -0.29205E+02 31307   0.267E+01    0.146E+02
RMM:  13    -0.240462072388E+04    0.77381E+02   -0.19481E+02 29495   0.251E+01    0.113E+02
RMM:  14    -0.236156593704E+04    0.43055E+02   -0.10367E+02 27815   0.214E+01    0.931E+01
RMM:  15    -0.234069251000E+04    0.20873E+02   -0.62516E+01 30328   0.133E+01    0.764E+01
RMM:  16    -0.233985832094E+04    0.83419E+00   -0.80271E+01 41812   0.701E+00    0.721E+01
RMM:  17    -0.233860805677E+04    0.12503E+01   -0.26211E+01 38542   0.519E+00    0.700E+01
RMM:  18    -0.233048672203E+04    0.81213E+01   -0.10064E+01 32870   0.422E+00    0.580E+01
RMM:  19    -0.232369922894E+04    0.67875E+01   -0.53686E+00 33325   0.329E+00    0.448E+01
RMM:  20    -0.231833967271E+04    0.53596E+01   -0.39500E+00 30734   0.331E+00    0.293E+01
RMM:  21    -0.231896324049E+04   -0.62357E+00   -0.65089E+00 31546   0.396E+00    0.289E+01
RMM:  22    -0.231768488515E+04    0.12784E+01   -0.39318E+00 36871   0.233E+00    0.239E+01
RMM:  23    -0.231775692421E+04   -0.72039E-01   -0.18597E+00 37021   0.147E+00    0.241E+01
RMM:  24    -0.231795054126E+04   -0.19362E+00   -0.13477E+00 31006   0.190E+00    0.242E+01
RMM:  25    -0.231720045148E+04    0.75009E+00   -0.11683E+00 29099   0.213E+00    0.204E+01
RMM:  26    -0.231844035763E+04   -0.12399E+01   -0.20805E+00 28523   0.291E+00    0.255E+01
RMM:  27    -0.232046158994E+04   -0.20212E+01   -0.51753E+00 28842   0.438E+00    0.302E+01
RMM:  28    -0.232090832909E+04   -0.44674E+00   -0.41151E+00 29215   0.384E+00    0.304E+01
RMM:  29    -0.231997297334E+04    0.93536E+00   -0.32640E+00 34310   0.247E+00    0.265E+01
RMM:  30    -0.231992516959E+04    0.47804E-01   -0.16159E+00 29909   0.226E+00    0.265E+01
RMM:  31    -0.231693468279E+04    0.29905E+01   -0.11363E+00 27956   0.230E+00    0.147E+01
RMM:  32    -0.231611722667E+04    0.81746E+00   -0.82407E-01 28221   0.192E+00    0.108E+01
RMM:  33    -0.231646919912E+04   -0.35197E+00   -0.63819E-01 30994   0.130E+00    0.133E+01
RMM:  34    -0.231622403524E+04    0.24516E+00   -0.44267E-01 28756   0.132E+00    0.110E+01
RMM:  35    -0.231616174503E+04    0.62290E-01   -0.29062E-01 28478   0.112E+00    0.101E+01
RMM:  36    -0.231648461790E+04   -0.32287E+00   -0.30714E-01 28647   0.112E+00    0.127E+01
RMM:  37    -0.231630761851E+04    0.17700E+00   -0.27353E-01 29796   0.939E-01    0.111E+01
RMM:  38    -0.231617278065E+04    0.13484E+00   -0.31610E-01 35627   0.666E-01    0.995E+00
RMM:  39    -0.231609925060E+04    0.73530E-01   -0.16596E-01 34799   0.523E-01    0.941E+00
RMM:  40    -0.231606869016E+04    0.30560E-01   -0.70648E-02 33379   0.379E-01    0.917E+00
RMM:  41    -0.231596239154E+04    0.10630E+00   -0.55975E-02 35737   0.300E-01    0.803E+00
RMM:  42    -0.231577487505E+04    0.18752E+00   -0.47539E-02 31299   0.352E-01    0.549E+00
RMM:  43    -0.231568158756E+04    0.93287E-01   -0.38994E-02 32305   0.300E-01    0.376E+00
RMM:  44    -0.231566023205E+04    0.21356E-01   -0.39494E-02 40311   0.202E-01    0.317E+00
RMM:  45    -0.231563695644E+04    0.23276E-01   -0.18174E-02 33528   0.173E-01    0.254E+00
RMM:  46    -0.231563845635E+04   -0.14999E-02   -0.89510E-03 32322   0.136E-01    0.257E+00
RMM:  47    -0.231565764816E+04   -0.19192E-01   -0.12976E-01 32743   0.534E-01    0.350E+00
RMM:  48    -0.231563302136E+04    0.24627E-01   -0.63057E-02 37072   0.297E-01    0.267E+00
RMM:  49    -0.231563070396E+04    0.23174E-02   -0.29174E-02 31755   0.262E-01    0.259E+00
RMM:  50    -0.231563585483E+04   -0.51509E-02   -0.30580E-02 38339   0.204E-01    0.273E+00
RMM:  51    -0.231562521177E+04    0.10643E-01   -0.10050E-02 29217   0.197E-01    0.231E+00
RMM:  52    -0.231564239316E+04   -0.17181E-01   -0.33371E-02 29041   0.334E-01    0.284E+00
RMM:  53    -0.231562633241E+04    0.16061E-01   -0.28222E-02 36438   0.215E-01    0.223E+00
RMM:  54    -0.231562004906E+04    0.62833E-02   -0.10641E-02 28059   0.216E-01    0.198E+00
RMM:  55    -0.231561550786E+04    0.45412E-02   -0.13648E-02 29042   0.214E-01    0.170E+00
RMM:  56    -0.231561033308E+04    0.51748E-02   -0.71911E-03 27826   0.194E-01    0.146E+00
RMM:  57    -0.231560677148E+04    0.35616E-02   -0.60380E-03 28092   0.163E-01    0.119E+00
RMM:  58    -0.231560974339E+04   -0.29719E-02   -0.74954E-03 28122   0.177E-01    0.139E+00
RMM:  59    -0.231560678583E+04    0.29576E-02   -0.35224E-03 27816   0.137E-01    0.119E+00
RMM:  60    -0.231560266501E+04    0.41208E-02   -0.37445E-03 29520   0.108E-01    0.772E-01
RMM:  61    -0.231560060725E+04    0.20578E-02   -0.23511E-03 28861   0.912E-02    0.427E-01
RMM:  62    -0.231560158179E+04   -0.97454E-03   -0.43817E-03 30871   0.105E-01    0.576E-01
RMM:  63    -0.231560048795E+04    0.10938E-02   -0.17985E-03 27918   0.940E-02    0.360E-01
RMM:  64    -0.231560025208E+04    0.23588E-03   -0.11700E-03 30731   0.562E-02    0.290E-01
RMM:  65    -0.231560027270E+04   -0.20627E-04   -0.86503E-04 33449   0.399E-02    0.288E-01
RMM:  66    -0.231559999896E+04    0.27375E-03   -0.27222E-04 28736   0.333E-02    0.181E-01
RMM:  67    -0.231560067538E+04   -0.67642E-03   -0.82820E-04 28313   0.574E-02    0.391E-01
RMM:  68    -0.231560005986E+04    0.61552E-03   -0.29764E-04 27722   0.462E-02    0.200E-01
RMM:  69    -0.231559988835E+04    0.17151E-03   -0.10876E-04 30389   0.176E-02    0.947E-02
RMM:  70    -0.231559988948E+04   -0.11243E-05   -0.12407E-04 35019   0.131E-02    0.901E-02
RMM:  71    -0.231559988754E+04    0.19328E-05   -0.66885E-05 30992   0.129E-02    0.838E-02
RMM:  72    -0.231559991539E+04   -0.27847E-04   -0.99576E-05 28533   0.200E-02    0.110E-01
RMM:  73    -0.231559986340E+04    0.51990E-04   -0.41551E-05 27842   0.163E-02    0.458E-02
RMM:  74    -0.231559986466E+04   -0.12644E-05   -0.38104E-05 33045   0.794E-03    0.447E-02
RMM:  75    -0.231559985914E+04    0.55248E-05   -0.17811E-05 29169   0.692E-03    0.276E-02
RMM:  76    -0.231559985927E+04   -0.13114E-06   -0.16643E-05 28435   0.467E-03    0.259E-02
RMM:  77    -0.231559986643E+04   -0.71632E-05   -0.19104E-05 28958   0.826E-03    0.446E-02
RMM:  78    -0.231559985771E+04    0.87217E-05   -0.62186E-06 23333   0.624E-03    0.164E-02
RMM:  79    -0.231559985763E+04    0.84081E-07   -0.23963E-06 18489   0.242E-03
   2 F= -.23155999E+04 E0= -.23127887E+04  d E =0.617588E+02
 trial-energy change:   61.758836  1 .order   -5.696179  -16.585771    5.193413
 step:   0.7615(harm=  0.7615)  dis= 0.07761  next Energy= -2383.674077 (dE=-0.632E+01)
 bond charge predicted
       N       E                     dE             d eps       ncg     rms          rms(c)
DAV:   1    -0.231652227102E+04   -0.92241E+00   -0.16825E+02 27748   0.133E+01    0.420E+00
RMM:   2    -0.233634475263E+04   -0.19822E+02   -0.20524E+01 31186   0.761E+00    0.558E+01
RMM:   3    -0.240615581168E+04   -0.69811E+02   -0.97586E+00 35254   0.366E+00    0.126E+02
RMM:   4    -0.232205232083E+04    0.84103E+02   -0.31234E+00 27742   0.391E+00    0.286E+01
RMM:   5    -0.232412227552E+04   -0.20700E+01   -0.22300E+00 33377   0.201E+00    0.367E+01
RMM:   6    -0.232080749864E+04    0.33148E+01   -0.30188E+00 30016   0.276E+00    0.278E+01
RMM:   7    -0.232439637335E+04   -0.35889E+01   -0.53638E+00 33235   0.313E+00    0.377E+01
RMM:   8    -0.232101656361E+04    0.33798E+01   -0.27919E+00 29420   0.286E+00    0.276E+01
RMM:   9    -0.231737223982E+04    0.36443E+01   -0.97159E-01 27788   0.216E+00    0.116E+01
RMM:  10    -0.231698907228E+04    0.38317E+00   -0.78214E-01 31256   0.131E+00    0.789E+00
RMM:  11    -0.231695712417E+04    0.31948E-01   -0.73159E-01 30769   0.134E+00    0.736E+00
RMM:  12    -0.231682737228E+04    0.12975E+00   -0.27755E-01 28081   0.105E+00    0.527E+00
RMM:  13    -0.231678765619E+04    0.39716E-01   -0.26072E-01 31547   0.750E-01    0.477E+00
RMM:  14    -0.231670769806E+04    0.79958E-01   -0.13175E-01 34052   0.483E-01    0.298E+00
RMM:  15    -0.231668670449E+04    0.20994E-01   -0.40389E-02 30650   0.333E-01    0.225E+00
RMM:  16    -0.231668383913E+04    0.28654E-02   -0.45503E-02 36361   0.242E-01    0.198E+00
RMM:  17    -0.231667912790E+04    0.47112E-02   -0.25902E-02 31685   0.248E-01    0.164E+00
RMM:  18    -0.231667854645E+04    0.58145E-03   -0.13884E-02 29317   0.239E-01    0.162E+00
RMM:  19    -0.231667216133E+04    0.63851E-02   -0.13827E-02 30987   0.191E-01    0.117E+00
RMM:  20    -0.231666927420E+04    0.28871E-02   -0.11752E-02 32014   0.165E-01    0.941E-01
RMM:  21    -0.231666613254E+04    0.31417E-02   -0.41264E-03 28351   0.135E-01    0.490E-01
RMM:  22    -0.231666611066E+04    0.21884E-04   -0.49953E-03 37419   0.776E-02    0.440E-01
RMM:  23    -0.231666628035E+04   -0.16969E-03   -0.20617E-03 33878   0.581E-02    0.459E-01
RMM:  24    -0.231666611783E+04    0.16252E-03   -0.12491E-03 32275   0.496E-02    0.406E-01
RMM:  25    -0.231666561568E+04    0.50215E-03   -0.11687E-03 34252   0.473E-02    0.248E-01
RMM:  26    -0.231666548575E+04    0.12993E-03   -0.50374E-04 30242   0.397E-02    0.190E-01
RMM:  27    -0.231666547822E+04    0.75265E-05   -0.61627E-04 41389   0.210E-02    0.164E-01
RMM:  28    -0.231666537954E+04    0.98688E-04   -0.19146E-04 36547   0.149E-02    0.871E-02
RMM:  29    -0.231666536986E+04    0.96782E-05   -0.89845E-05 33659   0.117E-02    0.745E-02
RMM:  30    -0.231666536975E+04    0.11237E-06   -0.72514E-05 33303   0.118E-02    0.716E-02
RMM:  31    -0.231666535434E+04    0.15401E-04   -0.35612E-05 30461   0.102E-02    0.446E-02
RMM:  32    -0.231666535443E+04   -0.81520E-07   -0.40516E-05 36938   0.660E-03    0.374E-02
RMM:  33    -0.231666535637E+04   -0.19406E-05   -0.26545E-05 33918   0.651E-03    0.382E-02
RMM:  34    -0.231666535118E+04    0.51915E-05   -0.96695E-06 26182   0.556E-03    0.192E-02
RMM:  35    -0.231666535120E+04   -0.21100E-07   -0.65437E-06 22197   0.330E-03
   3 F= -.23166654E+04 E0= -.23138630E+04  d E =0.606933E+02
 curvature:  -0.38 expect dE=-0.483E+00 dE for cont linesearch -0.325E+00
 ZBRENT: interpolating
 opt :   0.6207  next Energy= -2316.930409 (dE= 0.604E+02)
 bond charge predicted
       N       E                     dE             d eps       ncg     rms          rms(c)
DAV:   1    -0.231710281909E+04   -0.43747E+00   -0.58740E+01 27748   0.784E+00    0.231E+00
RMM:   2    -0.232287269346E+04   -0.57699E+01   -0.56103E+00 31115   0.391E+00    0.315E+01
RMM:   3    -0.234494494267E+04   -0.22072E+02   -0.19153E+00 30674   0.219E+00    0.728E+01
RMM:   4    -0.232001643879E+04    0.24929E+02   -0.76456E-01 27775   0.194E+00    0.210E+01
RMM:   5    -0.231887029066E+04    0.11461E+01   -0.44727E-01 29265   0.123E+00    0.178E+01
RMM:   6    -0.231874294964E+04    0.12734E+00   -0.86589E-01 29396   0.155E+00    0.174E+01
RMM:   7    -0.231997136799E+04   -0.12284E+01   -0.16145E+00 32046   0.182E+00    0.231E+01
RMM:   8    -0.231840585832E+04    0.15655E+01   -0.75555E-01 28327   0.165E+00    0.146E+01
RMM:   9    -0.231727555058E+04    0.11303E+01   -0.29639E-01 27810   0.120E+00    0.504E+00
RMM:  10    -0.231720517085E+04    0.70380E-01   -0.24130E-01 31783   0.688E-01    0.364E+00
RMM:  11    -0.231722453053E+04   -0.19360E-01   -0.20717E-01 30317   0.742E-01    0.400E+00
RMM:  12    -0.231716771832E+04    0.56812E-01   -0.76485E-02 27984   0.560E-01    0.227E+00
RMM:  13    -0.231715128612E+04    0.16432E-01   -0.48775E-02 30063   0.372E-01    0.159E+00
RMM:  14    -0.231714610670E+04    0.51794E-02   -0.41561E-02 36788   0.225E-01    0.121E+00
RMM:  15    -0.231714422022E+04    0.18865E-02   -0.12727E-02 30896   0.184E-01    0.104E+00
RMM:  16    -0.231714350592E+04    0.71430E-03   -0.80766E-03 32289   0.135E-01    0.922E-01
RMM:  17    -0.231714158690E+04    0.19190E-02   -0.70366E-03 32850   0.120E-01    0.674E-01
RMM:  18    -0.231714076994E+04    0.81696E-03   -0.35969E-03 29778   0.110E-01    0.552E-01
RMM:  19    -0.231714020636E+04    0.56358E-03   -0.17710E-03 29084   0.865E-02    0.460E-01
RMM:  20    -0.231714023496E+04   -0.28603E-04   -0.26100E-03 33966   0.677E-02    0.455E-01
RMM:  21    -0.231713947325E+04    0.76171E-03   -0.91014E-04 29507   0.554E-02    0.223E-01
RMM:  22    -0.231713935782E+04    0.11543E-03   -0.66798E-04 32287   0.383E-02    0.153E-01
RMM:  23    -0.231713942451E+04   -0.66692E-04   -0.74440E-04 37623   0.302E-02    0.167E-01
RMM:  24    -0.231713932819E+04    0.96323E-04   -0.25919E-04 31556   0.247E-02    0.890E-02
RMM:  25    -0.231713933923E+04   -0.11044E-04   -0.26818E-04 42176   0.121E-02    0.819E-02
RMM:  26    -0.231713933499E+04    0.42442E-05   -0.81516E-05 34904   0.108E-02    0.708E-02
RMM:  27    -0.231713932085E+04    0.14143E-04   -0.32167E-05 31087   0.875E-03    0.470E-02
RMM:  28    -0.231713932218E+04   -0.13356E-05   -0.30349E-05 34326   0.555E-03    0.460E-02
RMM:  29    -0.231713932345E+04   -0.12631E-05   -0.16078E-05 30368   0.606E-03    0.463E-02
RMM:  30    -0.231713932032E+04    0.31262E-05   -0.72493E-06 24079   0.494E-03    0.381E-02
RMM:  31    -0.231713931838E+04    0.19400E-05   -0.56668E-06 21788   0.327E-03    0.312E-02
RMM:  32    -0.231713931495E+04    0.34326E-05   -0.36866E-06 19699   0.376E-03    0.130E-02
RMM:  33    -0.231713931454E+04    0.40521E-06   -0.19777E-06 16878   0.282E-03
   4 F= -.23171393E+04 E0= -.23143419E+04  d E =0.602194E+02
 curvature:  -0.31 expect dE=-0.275E+00 dE for cont linesearch -0.165E+00
 ZBRENT: bisectioning
 opt :   0.3103  next Energy= -2317.791606 (dE= 0.596E+02)
 bond charge predicted
       N       E                     dE             d eps       ncg     rms          rms(c)
DAV:   1    -0.231750928114E+04   -0.36997E+00   -0.28455E+02 27762   0.174E+01    0.570E+00
RMM:   2    -0.235569133541E+04   -0.38182E+02   -0.40196E+01 31080   0.109E+01    0.762E+01
RMM:   3    -0.246324303294E+04   -0.10755E+03   -0.20972E+01 36260   0.502E+00    0.152E+02
RMM:   4    -0.232744586351E+04    0.13580E+03   -0.60078E+00 27738   0.543E+00    0.395E+01
RMM:   5    -0.232848752090E+04   -0.10417E+01   -0.39708E+00 35901   0.247E+00    0.436E+01
RMM:   6    -0.232314921933E+04    0.53383E+01   -0.43513E+00 29227   0.353E+00    0.313E+01
RMM:   7    -0.233075040807E+04   -0.76012E+01   -0.91807E+00 34720   0.386E+00    0.486E+01
RMM:   8    -0.232385262020E+04    0.68978E+01   -0.44312E+00 29530   0.362E+00    0.325E+01
RMM:   9    -0.231945680358E+04    0.43958E+01   -0.16215E+00 27775   0.277E+00    0.179E+01
RMM:  10    -0.231851749444E+04    0.93931E+00   -0.12640E+00 30860   0.177E+00    0.117E+01
RMM:  11    -0.231824197067E+04    0.27552E+00   -0.13062E+00 32996   0.161E+00    0.908E+00
RMM:  12    -0.231811517602E+04    0.12679E+00   -0.48828E-01 28295   0.136E+00    0.726E+00
RMM:  13    -0.231806313002E+04    0.52046E-01   -0.53815E-01 32606   0.101E+00    0.692E+00
RMM:  14    -0.231788119769E+04    0.18193E+00   -0.18143E-01 30920   0.690E-01    0.402E+00
RMM:  15    -0.231784861619E+04    0.32582E-01   -0.88426E-02 31837   0.436E-01    0.316E+00
RMM:  16    -0.231784310662E+04    0.55096E-02   -0.89443E-02 37580   0.317E-01    0.280E+00
RMM:  17    -0.231783126330E+04    0.11843E-01   -0.41817E-02 31697   0.312E-01    0.224E+00
RMM:  18    -0.231782881233E+04    0.24510E-02   -0.25546E-02 30031   0.296E-01    0.216E+00
RMM:  19    -0.231781402413E+04    0.14788E-01   -0.24832E-02 31260   0.249E-01    0.133E+00
RMM:  20    -0.231781113144E+04    0.28927E-02   -0.12916E-02 29291   0.206E-01    0.115E+00
RMM:  21    -0.231780821422E+04    0.29172E-02   -0.73326E-03 29862   0.154E-01    0.843E-01
RMM:  22    -0.231780731944E+04    0.89478E-03   -0.77359E-03 37664   0.972E-02    0.713E-01
RMM:  23    -0.231780689628E+04    0.42316E-03   -0.30341E-03 31869   0.815E-02    0.639E-01
RMM:  24    -0.231780629109E+04    0.60519E-03   -0.29516E-03 31515   0.854E-02    0.507E-01
RMM:  25    -0.231780586073E+04    0.43036E-03   -0.14741E-03 29562   0.721E-02    0.409E-01
RMM:  26    -0.231780576674E+04    0.93994E-04   -0.15730E-03 36697   0.430E-02    0.356E-01
RMM:  27    -0.231780545638E+04    0.31035E-03   -0.10306E-03 39660   0.320E-02    0.237E-01
RMM:  28    -0.231780523442E+04    0.22196E-03   -0.38812E-04 32672   0.266E-02    0.119E-01
RMM:  29    -0.231780524126E+04   -0.68337E-05   -0.34709E-04 40508   0.173E-02    0.110E-01
RMM:  30    -0.231780524286E+04   -0.16039E-05   -0.13456E-04 33037   0.155E-02    0.106E-01
RMM:  31    -0.231780522449E+04    0.18371E-04   -0.62758E-05 31071   0.128E-02    0.854E-02
RMM:  32    -0.231780522526E+04   -0.77233E-06   -0.86785E-05 37128   0.108E-02    0.795E-02
RMM:  33    -0.231780520343E+04    0.21837E-04   -0.43504E-05 31171   0.105E-02    0.463E-02
RMM:  34    -0.231780519883E+04    0.45953E-05   -0.33064E-05 34531   0.731E-03    0.306E-02
RMM:  35    -0.231780520358E+04   -0.47449E-05   -0.24032E-05 33645   0.566E-03    0.387E-02
RMM:  36    -0.231780520237E+04    0.12023E-05   -0.94105E-06 25541   0.505E-03    0.329E-02
RMM:  37    -0.231780520146E+04    0.91468E-06   -0.54077E-06 21053   0.327E-03
   5 F= -.23178052E+04 E0= -.23150179E+04  d E =0.595535E+02
 curvature:  -1.22 expect dE=-0.452E+00 dE for cont linesearch -0.133E+00
 ZBRENT: bisectioning
 opt :   0.1552  next Energy= -2317.950468 (dE= 0.594E+02)
