unknown system                          
           1
     9.726678    0.000000    0.000000
     0.000000    8.423550    0.000000
     0.000000    0.000000   45.000000
   Fe   Mn
 274  14
Direct configuration=     1
   0.06202122  0.03105543  0.12436439
   0.31657436  0.87494074  0.65487390
   0.18488050  0.12169644  0.78823544
   0.44146089  0.28770909  0.38913499
   0.31756420  0.71291012  0.83281149
   0.81758377  0.21382849  0.83342432
   0.19147414  0.96342611  0.83328031
   0.56209172  0.20713221  0.56548726
   0.06545130  0.03987218  0.74395990
   0.81153673  0.87136657  0.52134165
   0.19111571  0.29043658  0.74389538
   0.93363245  0.45217807  0.34492925
   0.94102569  0.28654456  0.38896102
   0.81384897  0.04008962  0.87538321
   0.18358656  0.78798549  0.61085758
   0.56638915  0.03789040  0.38904668
   0.94247179  0.96352317  0.83337946
   0.31418830  0.53909397  0.87579470
   0.69054339  0.29035573  0.74393801
   0.18233976  0.61382482  0.16667687
   0.81215446  0.20586880  0.47868187
   0.80874773  0.53798530  0.61090759
   0.31217194  0.87036550  0.43447780
   0.80926319  0.03837794  0.25613907
   0.68358276  0.95166212  0.34490909
   0.93108931  0.11486871  0.16723313
   0.06167090  0.87144464  0.52137059
   0.93855098  0.79209079  0.87561627
   0.68561192  0.79444639  0.87563942
   0.55603762  0.36569234  0.16677977
   0.43985429  0.79072357  0.74405187
   0.81149624  0.70657796  0.56545805
   0.56011536  0.87224436  0.78832071
   0.68661978  0.12165531  0.52136882
   0.81643986  0.37471111  0.65489905
   0.94166679  0.46265490  0.83326280
   0.06029642  0.20781851  0.69959360
   0.43514487  0.95795676  0.69953822
   0.31676347  0.21194010  0.83333328
   0.44157000  0.62494328  0.65487681
   0.30877438  0.53791927  0.61088053
   0.93654146  0.45657283  0.56553446
   0.69004805  0.79109614  0.74404415
   0.93367812  0.78835959  0.12466741
   0.69172047  0.78775979  0.38906649
   0.94050399  0.79017977  0.74414798
   0.05876045  0.20298346  0.34501933
   0.68358602  0.45256654  0.34510091
   0.43495004  0.12146233  0.78852095
   0.06455248  0.20485539  0.21151091
   0.05516180  0.36597056  0.16680865
   0.93389258  0.78949743  0.25600083
   0.56044550  0.20776038  0.69958354
   0.68500295  0.95796465  0.69957638
   0.80974114  0.87222696  0.78823191
   0.43700129  0.95719338  0.56537579
   0.81058003  0.37289372  0.78831264
   0.68368068  0.28959510  0.25609967
   0.18735122  0.45717542  0.56544245
   0.05574180  0.86556979  0.16678906
   0.18381117  0.28803849  0.61092609
   0.06217024  0.20715258  0.56535560
   0.31042735  0.20789297  0.69963585
   0.56329782  0.53990727  0.87565884
   0.06193044  0.70634911  0.56553329
   0.68536245  0.62215915  0.78836418
   0.31620798  0.53772380  0.38906629
   0.18665491  0.62135415  0.52141315
   0.56237493  0.87027195  0.43447889
   0.43691686  0.45697087  0.56547264
   0.43980863  0.29088250  0.74406996
   0.81943727  0.87491847  0.30043699
   0.80885080  0.70275161  0.34509543
   0.44159176  0.46245520  0.83312747
   0.68740936  0.95569142  0.47868654
   0.68507302  0.45809049  0.69962889
   0.56184661  0.87181758  0.52139709
   0.56665991  0.37463296  0.65480409
   0.81650724  0.87494860  0.65492741
   0.81156547  0.37110008  0.43419829
   0.80827396  0.53796967  0.25629170
   0.69216889  0.46156964  0.83313734
   0.18603431  0.78841462  0.12427846
   0.69134644  0.28739888  0.38906500
   0.31647445  0.37483239  0.65486276
   0.30887599  0.20240776  0.34484825
   0.81551830  0.54007096  0.74392230
   0.69134577  0.96243893  0.83312431
   0.56628620  0.87471671  0.65493007
   0.31161131  0.70730149  0.56544447
   0.31238291  0.53176679  0.12427615
   0.68959547  0.95648192  0.21197475
   0.31144252  0.20667983  0.56549095
   0.18730360  0.95577032  0.47868758
   0.68740525  0.95712378  0.56548705
   0.43384715  0.78786083  0.61082984
   0.68240856  0.61217102  0.16669953
   0.31885614  0.87418604  0.30021226
   0.31221186  0.70575420  0.47866410
   0.93375098  0.28784858  0.61087199
   0.44512939  0.62484405  0.30044543
   0.80664580  0.86431441  0.16722734
   0.56624552  0.20390462  0.21192071
   0.93310787  0.61289376  0.16686366
   0.43716642  0.95572267  0.47864681
   0.56018927  0.37184533  0.78835853
   0.06143543  0.37221467  0.52133733
   0.30663172  0.36445685  0.16681151
   0.69503490  0.12369838  0.30035711
   0.44261419  0.96211736  0.83318836
   0.18470771  0.28755333  0.12453363
   0.18413113  0.28915902  0.25618358
   0.31227121  0.37031123  0.43444654
   0.56253138  0.03270955  0.12465872
   0.43369033  0.28792436  0.61086883
   0.18375703  0.45266794  0.34510754
   0.43454466  0.28724579  0.12455000
   0.68342780  0.78852607  0.25608816
   0.43664350  0.12158439  0.52136617
   0.18794958  0.29434399  0.87571886
   0.19147114  0.12497295  0.65487456
   0.94161858  0.12502938  0.65486883
   0.81631479  0.53764945  0.38908723
   0.06651843  0.03800007  0.38913209
   0.18298920  0.11223305  0.16665091
   0.05870998  0.53777160  0.61091397
   0.93417408  0.28922902  0.25609167
   0.55866278  0.53798172  0.61085647
   0.93696254  0.95735462  0.56546097
   0.69474719  0.62466315  0.30041300
   0.93741089  0.62025362  0.43445888
   0.93396426  0.62312869  0.78808415
   0.56039071  0.70764058  0.69955933
   0.06637587  0.71418636  0.83336337
   0.94496342  0.12346284  0.30032075
   0.93370988  0.78755702  0.61091913
   0.43398254  0.78963672  0.25600815
   0.31070197  0.37212770  0.78821891
   0.43981095  0.45607384  0.21177750
   0.18671024  0.12163138  0.52138325
   0.81024628  0.70787117  0.69954893
   0.05874186  0.03793906  0.61083321
   0.56626465  0.21279923  0.83313683
   0.31157812  0.87158426  0.52137852
   0.68635601  0.28713955  0.12437644
   0.18964502  0.95651017  0.21202262
   0.68363981  0.28801316  0.61093311
   0.30867272  0.03788733  0.61096136
   0.93502721  0.12211400  0.78846232
   0.43692230  0.79507582  0.87565228
   0.81582288  0.04067738  0.74391137
   0.93514052  0.45805288  0.69962633
   0.19128558  0.62494071  0.65490111
   0.31029374  0.70784828  0.69956312
   0.93414329  0.28722252  0.12442902
   0.43733898  0.45590610  0.47855439
   0.06226493  0.70573658  0.47853168
   0.93701346  0.11981320  0.43460800
   0.44420702  0.12462611  0.30052476
   0.18749489  0.11991683  0.43440949
   0.56362820  0.03887162  0.87569973
   0.18705143  0.95727140  0.56547558
   0.68418185  0.78829441  0.12474090
   0.55867215  0.70236232  0.34501535
   0.31636707  0.03716478  0.38902999
   0.68269675  0.11439050  0.16711711
   0.81502373  0.20460664  0.21156544
   0.05986760  0.53824988  0.25596533
   0.56232431  0.70567882  0.47863636
   0.43457162  0.78777605  0.12448370
   0.56935779  0.37397036  0.30044778
   0.43344984  0.95275612  0.34513255
   0.18518400  0.95789234  0.69962172
   0.43185874  0.61364361  0.16663100
   0.94023458  0.45609335  0.21205125
   0.06172951  0.53110554  0.12431011
   0.81173589  0.37183252  0.52136986
   0.94448251  0.62441931  0.30012949
   0.30896640  0.03816260  0.25584831
   0.68364589  0.78787889  0.61088034
   0.19144022  0.46277759  0.83323764
   0.43190240  0.11250805  0.16665789
   0.31141969  0.37169805  0.52138067
   0.43435939  0.62197126  0.78856895
   0.05907118  0.03823790  0.25613390
   0.56222515  0.70723216  0.56549622
   0.94005847  0.28976379  0.74394210
   0.68331423  0.12200475  0.78834263
   0.18942542  0.45527475  0.21170165
   0.94122920  0.78752848  0.38900128
   0.68668367  0.29711637  0.87576731
   0.55546692  0.86545765  0.16654817
   0.43531953  0.45799878  0.69964454
   0.93385267  0.95153454  0.34490826
   0.68647505  0.62134482  0.52127540
   0.06646024  0.87484699  0.65488884
   0.06012545  0.87269881  0.78822167
   0.06637676  0.37482166  0.65488757
   0.68707805  0.45569804  0.47863713
   0.18437137  0.78958106  0.25599218
   0.43700634  0.12057656  0.43442278
   0.81349647  0.03160067  0.12433335
   0.93651814  0.62159117  0.52139980
   0.44157637  0.12484751  0.65483014
   0.81263294  0.53076700  0.12438558
   0.43385501  0.45277259  0.34513193
   0.80874689  0.20251233  0.34510359
   0.30867293  0.70219904  0.34495273
   0.69128590  0.12495141  0.65490241
   0.56947790  0.87383702  0.30046878
   0.06551069  0.53998633  0.74399206
   0.94044146  0.95568200  0.21156178
   0.81650889  0.70515534  0.21172748
   0.06911807  0.87457930  0.30046904
   0.19454021  0.12424014  0.30046114
   0.05839026  0.70230532  0.34495706
   0.80887061  0.03788529  0.61085955
   0.06284197  0.37123792  0.43439710
   0.55875095  0.20246201  0.34500502
   0.81894090  0.37488155  0.30043183
   0.55973851  0.03894780  0.25588737
   0.56630112  0.53773791  0.38911930
   0.06256516  0.20585602  0.47865319
   0.31102486  0.87134146  0.78812480
   0.93515885  0.95824088  0.69956788
   0.06904031  0.37497894  0.30042458
   0.69130570  0.62498122  0.65492883
   0.68689007  0.45702098  0.56539340
   0.43997445  0.95685813  0.21222649
   0.31230757  0.20565137  0.47870427
   0.81273279  0.53915152  0.87568341
   0.68764402  0.62027746  0.43445703
   0.81051975  0.20774563  0.69964630
   0.81243503  0.70566009  0.47864478
   0.81155690  0.87100939  0.43423842
   0.93730328  0.95519997  0.47871939
   0.56225302  0.20567570  0.47864109
   0.18685338  0.62008936  0.43443504
   0.31531224  0.04080322  0.74398341
   0.94159656  0.62515914  0.65485878
   0.56666291  0.71275479  0.83315211
   0.31998847  0.37318498  0.30034142
   0.56526338  0.70452897  0.21193055
   0.18724073  0.45574494  0.47866419
   0.31444191  0.04023308  0.87541351
   0.18489357  0.45822420  0.69955662
   0.56162808  0.37158560  0.52137523
   0.19123593  0.28769773  0.38905601
   0.31510964  0.20539591  0.21157936
   0.06683109  0.70545155  0.21166893
   0.56202680  0.37070535  0.43444390
   0.43651773  0.62180542  0.52129161
   0.81639309  0.71343748  0.83294491
   0.06042338  0.37281193  0.78824446
   0.43659919  0.29634170  0.87598681
   0.31138488  0.03164140  0.12443710
   0.68784986  0.11962040  0.43435827
   0.18375742  0.95274073  0.34512007
   0.06669453  0.21342590  0.83356795
   0.55884801  0.03801262  0.61093151
   0.68935260  0.45650277  0.21212045
   0.19048668  0.79020308  0.74401842
   0.19420145  0.62440352  0.30043345
   0.44139606  0.78777634  0.38911411
   0.43410205  0.29005232  0.25610289
   0.06422210  0.53982054  0.87559037
   0.56581571  0.04057056  0.74394919
   0.18649453  0.79458150  0.87567670
   0.93727081  0.45560206  0.47865341
   0.56537783  0.54058180  0.74383708
   0.81144769  0.20683245  0.56542981
   0.18493295  0.62168446  0.78829070
   0.06691164  0.53846862  0.38921757
   0.06049220  0.70780879  0.69957480
   0.30729623  0.53799092  0.25577876
   0.31538072  0.70351358  0.21236617
   0.30534250  0.86546950  0.16611431
   0.43694040  0.62075641  0.43443692
   0.81808362  0.03901562  0.38920946
   0.93511193  0.29679363  0.87517915
   0.55845635  0.53896300  0.25600679
   0.06471838  0.03641656  0.87529216
   0.56286375  0.52977402  0.12486591
   0.80524405  0.36609329  0.16641264
   0.06209674  0.87086206  0.43446679
   0.93645034  0.12152096  0.52141350
   0.19293898  0.78741412  0.38899657
   0.31586882  0.54004548  0.74406030
Direct configuration=     2
   0.06186333  0.03144842  0.12442680
   0.31615755  0.87483782  0.65487862
   0.18519106  0.12198577  0.78822024
   0.44128066  0.28776212  0.38920403
   0.31710574  0.71254731  0.83287748
   0.81730458  0.21336779  0.83342438
   0.19119712  0.96306555  0.83329208
   0.56202395  0.20696825  0.56552809
   0.06512956  0.03999329  0.74395492
   0.81144984  0.87151547  0.52143060
   0.19071027  0.29050304  0.74389826
   0.93412874  0.45247503  0.34495266
   0.94076829  0.28671470  0.38903390
   0.81377204  0.04060614  0.87535076
   0.18393122  0.78814052  0.61078182
   0.56607927  0.03795152  0.38911124
   0.94227217  0.96322774  0.83340046
   0.31410985  0.53974761  0.87571044
   0.69030354  0.29039455  0.74393911
   0.18268172  0.61431666  0.16665959
   0.81213462  0.20574234  0.47860855
   0.80905159  0.53812132  0.61083564
   0.31228579  0.87053176  0.43444930
   0.80970037  0.03837081  0.25613284
   0.68405830  0.95202581  0.34492583
   0.93142712  0.11513277  0.16715179
   0.06181622  0.87158389  0.52143577
   0.93847606  0.79192681  0.87556859
   0.68595028  0.79418608  0.87558291
   0.55639168  0.36590690  0.16673132
   0.43971919  0.79077365  0.74403535
   0.81154808  0.70653081  0.56550302
   0.56041560  0.87239781  0.78828442
   0.68655651  0.12171136  0.52143394
   0.81603634  0.37463344  0.65490712
   0.94152759  0.46241310  0.83328690
   0.06052231  0.20776042  0.69959472
   0.43538994  0.95787144  0.69954678
   0.31646095  0.21168274  0.83338311
   0.44113886  0.62480048  0.65487877
   0.30910037  0.53810620  0.61080618
   0.93659453  0.45646345  0.56557375
   0.68988067  0.79111783  0.74403786
   0.93370209  0.78767884  0.12472824
   0.69145933  0.78776112  0.38913042
   0.94026539  0.79030177  0.74411757
   0.05927829  0.20319548  0.34501788
   0.68416404  0.45274792  0.34509393
   0.43519654  0.12180548  0.78847624
   0.06433117  0.20475420  0.21154593
   0.05548542  0.36609004  0.16675607
   0.93422672  0.78937095  0.25599655
   0.56065503  0.20769549  0.69958629
   0.68528243  0.95786261  0.69959600
   0.80997666  0.87243392  0.78820093
   0.43698225  0.95702442  0.56543493
   0.81078131  0.37298463  0.78825947
   0.68415898  0.28933430  0.25611050
   0.18723613  0.45700108  0.56549114
   0.05618734  0.86580737  0.16673877
   0.18415126  0.28820688  0.61086158
   0.06212051  0.20702393  0.56541472
   0.31065787  0.20780638  0.69963536
   0.56340965  0.54058116  0.87558545
   0.06189041  0.70631107  0.56556243
   0.68556484  0.62244068  0.78833741
   0.31594795  0.53769172  0.38913834
   0.18672031  0.62159316  0.52148116
   0.56239815  0.87043972  0.43444485
   0.43688595  0.45685368  0.56551803
   0.43969858  0.29090393  0.74405029
   0.81883039  0.87463249  0.30041195
   0.80932060  0.70286218  0.34510865
   0.44138512  0.46213851  0.83319531
   0.68743584  0.95555700  0.47861627
   0.68533330  0.45795004  0.69962651
   0.56183360  0.87194238  0.52146084
   0.56626966  0.37451717  0.65480798
   0.81609647  0.87480209  0.65493198
   0.81160968  0.37102718  0.43418960
   0.80876942  0.53799708  0.25627710
   0.69194187  0.46145668  0.83319825
   0.18588031  0.78768677  0.12432173
   0.69102790  0.28742900  0.38912758
   0.31603581  0.37470948  0.65486645
   0.30937940  0.20265568  0.34489395
   0.81528130  0.54013800  0.74391917
   0.69115868  0.96222932  0.83317161
   0.56590577  0.87463155  0.65493325
   0.31163675  0.70713372  0.56549105
   0.31206458  0.53223201  0.12432400
   0.68937241  0.95616655  0.21197416
   0.31151502  0.20663429  0.56552864
   0.18728569  0.95564708  0.47862628
   0.68735829  0.95696616  0.56553672
   0.43413178  0.78804418  0.61075576
   0.68246694  0.61271827  0.16670827
   0.31837110  0.87397681  0.30023231
   0.31215500  0.70562001  0.47858102
   0.93405643  0.28801839  0.61079971
   0.44440135  0.62447411  0.30044284
   0.80679071  0.86453725  0.16714824
   0.56589422  0.20393383  0.21194054
   0.93327846  0.61334423  0.16685906
   0.43721287  0.95555376  0.47857931
   0.56042541  0.37206599  0.78832751
   0.06147442  0.37230054  0.52140535
   0.30684318  0.36474372  0.16673194
   0.69434475  0.12358223  0.30037119
   0.44235801  0.96184899  0.83323054
   0.18477703  0.28702886  0.12460306
   0.18449648  0.28882922  0.25617010
   0.31235896  0.37042591  0.43441608
   0.56225005  0.03284607  0.12466798
   0.43401594  0.28811062  0.61079211
   0.18422019  0.45288268  0.34510408
   0.43434873  0.28670383  0.12460970
   0.68397321  0.78853828  0.25610389
   0.43667088  0.12178678  0.52142535
   0.18817883  0.29398545  0.87568381
   0.19107396  0.12485500  0.65489544
   0.94119588  0.12485510  0.65488023
   0.81603689  0.53761456  0.38914653
   0.06622978  0.03802674  0.38918600
   0.18302607  0.11279023  0.16666856
   0.05901658  0.53794307  0.61083431
   0.93451496  0.28897395  0.25608375
   0.55898464  0.53815228  0.61077994
   0.93693435  0.95705166  0.56551001
   0.69415083  0.62449963  0.30044520
   0.93743256  0.62038566  0.43441266
   0.93435032  0.62340534  0.78806926
   0.56055818  0.70755691  0.69956687
   0.06617288  0.71385215  0.83337762
   0.94427341  0.12349227  0.30033153
   0.93401279  0.78774107  0.61084853
   0.43439074  0.78950982  0.25603884
   0.31083324  0.37226620  0.78819664
   0.43961746  0.45577513  0.21179504
   0.18675891  0.12173593  0.52144699
   0.81047487  0.70779652  0.69956764
   0.05902623  0.03812871  0.61075774
   0.56600891  0.21239436  0.83316242
   0.31162198  0.87174045  0.52145737
   0.68628819  0.28653606  0.12443369
   0.18939098  0.95638872  0.21200658
   0.68393996  0.28820840  0.61086851
   0.30899833  0.03804051  0.61087988
   0.93527828  0.12241158  0.78843136
   0.43708838  0.79461057  0.87559356
   0.81552061  0.04071982  0.74391483
   0.93538244  0.45788710  0.69963111
   0.19092817  0.62480855  0.65490378
   0.31052662  0.70778415  0.69956632
   0.93412985  0.28665074  0.12448628
   0.43729852  0.45562276  0.47849367
   0.06227755  0.70549984  0.47849313
   0.93707783  0.12002075  0.43459511
   0.44374267  0.12425276  0.30050893
   0.18746029  0.12008373  0.43435962
   0.56378015  0.03947706  0.87563322
   0.18694531  0.95708211  0.56552529
   0.68436270  0.78769857  0.12479825
   0.55920889  0.70258297  0.34503507
   0.31612291  0.03727883  0.38910520
   0.68299048  0.11470110  0.16708800
   0.81484346  0.20456383  0.21162287
   0.06008500  0.53827738  0.25596928
   0.56234453  0.70559502  0.47856375
   0.43449463  0.78720430  0.12449281
   0.56874513  0.37374531  0.30044615
   0.43397012  0.95292225  0.34510882
   0.18544201  0.95785333  0.69963141
   0.43215596  0.61408897  0.16663247
   0.93997816  0.45585497  0.21205639
   0.06154667  0.53147315  0.12436182
   0.81173816  0.37201111  0.52143101
   0.94393758  0.62428452  0.30015322
   0.30932031  0.03821846  0.25588042
   0.68398389  0.78804791  0.61080491
   0.19123370  0.46249764  0.83330414
   0.43226776  0.11301396  0.16670174
   0.31145969  0.37185889  0.52144544
   0.43473330  0.62220131  0.78850963
   0.05936781  0.03826646  0.25611040
   0.56213021  0.70705120  0.56553243
   0.93988802  0.28989378  0.74393741
   0.68380481  0.12225866  0.78829540
   0.18910825  0.45514088  0.21171074
   0.94089758  0.78750452  0.38907077
   0.68676863  0.29639035  0.87570831
   0.55576383  0.86562860  0.16655805
   0.43554915  0.45790300  0.69964800
   0.93440359  0.95192974  0.34494349
   0.68647822  0.62154941  0.52135942
   0.06606391  0.87472130  0.65489877
   0.06041099  0.87282545  0.78820534
   0.06597512  0.37468227  0.65489398
   0.68709417  0.45546342  0.47853798
   0.18470411  0.78951592  0.25602067
   0.43709149  0.12068610  0.43439956
   0.81312546  0.03205611  0.12442142
   0.93653921  0.62175365  0.52145910
   0.44117879  0.12473182  0.65484600
   0.81253947  0.53133497  0.12439432
   0.43437910  0.45296325  0.34512027
   0.80921899  0.20267487  0.34510218
   0.30921507  0.70247445  0.34497519
   0.69090892  0.12481652  0.65490915
   0.56889847  0.87367312  0.30045727
   0.06520815  0.54004144  0.74398174
   0.94019483  0.95557135  0.21162170
   0.81608782  0.70499693  0.21176595
   0.06857646  0.87429293  0.30047793
   0.19395223  0.12409915  0.30043542
   0.05895243  0.70253045  0.34497817
   0.80919531  0.03805800  0.61078541
   0.06280356  0.37112671  0.43435259
   0.55930338  0.20259783  0.34503511
   0.81842965  0.37461535  0.30041460
   0.56006361  0.03889799  0.25593220
   0.56596247  0.53766806  0.38917836
   0.06252735  0.20568402  0.47858998
   0.31116399  0.87157728  0.78810093
   0.93541084  0.95812071  0.69957535
   0.06858254  0.37468162  0.30042527
   0.69093289  0.62483281  0.65493227
   0.68686015  0.45688167  0.56544693
   0.43974634  0.95663839  0.21219575
   0.31229552  0.20550869  0.47862355
   0.81282487  0.53985311  0.87561825
   0.68770106  0.62033971  0.43441589
   0.81073066  0.20768496  0.69964167
   0.81240616  0.70553963  0.47857229
   0.81159009  0.87102711  0.43423600
   0.93727488  0.95510594  0.47864579
   0.56228685  0.20549766  0.47857048
   0.18691473  0.62018966  0.43440802
   0.31505142  0.04083616  0.74397301
   0.94116093  0.62501107  0.65486456
   0.56647623  0.71248545  0.83319505
   0.31932501  0.37317121  0.30036880
   0.56505084  0.70457981  0.21190199
   0.18730657  0.45555840  0.47858288
   0.31455232  0.04092054  0.87537842
   0.18517514  0.45807750  0.69956126
   0.56168656  0.37178073  0.52143690
   0.19090248  0.28772344  0.38912907
   0.31485960  0.20527515  0.21161048
   0.06632235  0.70524806  0.21167713
   0.56208915  0.37073821  0.43441441
   0.43658726  0.62194143  0.52135843
   0.81614161  0.71307188  0.83296694
   0.06066268  0.37299237  0.78821815
   0.43671416  0.29575533  0.87590174
   0.31131409  0.03203453  0.12440761
   0.68783276  0.11996615  0.43433391
   0.18423957  0.95288312  0.34511638
   0.06641514  0.21298827  0.83353057
   0.55915974  0.03817383  0.61084896
   0.68918066  0.45613424  0.21209068
   0.19018265  0.79028120  0.74400529
   0.19371966  0.62418644  0.30042926
   0.44117471  0.78772504  0.38917316
   0.43448784  0.28973586  0.25609491
   0.06438942  0.54045512  0.87553009
   0.56562666  0.04063723  0.74396041
   0.18675059  0.79418448  0.87562908
   0.93723271  0.45536114  0.47857383
   0.56521105  0.54065500  0.74384049
   0.81146036  0.20676512  0.56548168
   0.18518490  0.62204685  0.78827970
   0.06665632  0.53839347  0.38926956
   0.06071163  0.70776449  0.69958498
   0.30767724  0.53800217  0.25582444
   0.31521449  0.70362183  0.21232146
   0.30562700  0.86556780  0.16611745
   0.43694411  0.62071742  0.43439919
   0.81768371  0.03884859  0.38924672
   0.93536721  0.29622912  0.87519972
   0.55892324  0.53890012  0.25599937
   0.06467412  0.03715182  0.87526886
   0.56266637  0.53032498  0.12487610
   0.80556787  0.36619348  0.16635989
   0.06208187  0.87096959  0.43443202
   0.93654373  0.12173617  0.52144043
   0.19253790  0.78730051  0.38903095
   0.31561782  0.54013858  0.74405438
Direct configuration=     3
   0.06138965  0.03262738  0.12461404
   0.31490711  0.87452907  0.65489276
   0.18612276  0.12285375  0.78817464
   0.44073995  0.28792121  0.38941117
   0.31573033  0.71145889  0.83307543
   0.81646700  0.21198569  0.83342456
   0.19036607  0.96198385  0.83332738
   0.56182063  0.20647637  0.56565060
   0.06416437  0.04035660  0.74394001
   0.81118914  0.87196218  0.52169742
   0.18949395  0.29070240  0.74390687
   0.93561759  0.45336590  0.34502288
   0.93999611  0.28722511  0.38925255
   0.81354124  0.04215571  0.87525342
   0.18496518  0.78860559  0.61055453
   0.56514962  0.03813489  0.38930489
   0.94167330  0.96234142  0.83346345
   0.31387452  0.54170852  0.87545764
   0.68958398  0.29051101  0.74394241
   0.18370759  0.61579218  0.16660777
   0.81207508  0.20536297  0.47838859
   0.80996315  0.53852937  0.61061980
   0.31262735  0.87103053  0.43436382
   0.81101190  0.03834942  0.25611415
   0.68548493  0.95311690  0.34497608
   0.93244052  0.11592493  0.16690778
   0.06225219  0.87200163  0.52163131
   0.93825129  0.79143487  0.87542553
   0.68696534  0.79340515  0.87541340
   0.55745385  0.36655058  0.16658597
   0.43931389  0.79092389  0.74398577
   0.81170360  0.70638935  0.56563793
   0.56131632  0.87285816  0.78817556
   0.68636671  0.12187951  0.52162932
   0.81482577  0.37440041  0.65493133
   0.94111001  0.46168771  0.83335922
   0.06120000  0.20758613  0.69959810
   0.43612516  0.95761547  0.69957249
   0.31555341  0.21091068  0.83353258
   0.43984546  0.62437208  0.65488465
   0.31007833  0.53866698  0.61058313
   0.93675376  0.45613530  0.56569161
   0.68937853  0.79118288  0.74401900
   0.93377399  0.78563660  0.12491074
   0.69067590  0.78776509  0.38932224
   0.93954957  0.79066776  0.74402634
   0.06083182  0.20383156  0.34501353
   0.68589811  0.45329209  0.34507299
   0.43593605  0.12283493  0.78834209
   0.06366724  0.20445063  0.21165099
   0.05645627  0.36644847  0.16659835
   0.93522916  0.78899149  0.25598372
   0.56128364  0.20750082  0.69959455
   0.68612086  0.95755650  0.69965488
   0.81068322  0.87305481  0.78810800
   0.43692513  0.95651754  0.56561233
   0.81138514  0.37325734  0.78809998
   0.68559389  0.28855188  0.25614301
   0.18689086  0.45647807  0.56563721
   0.05752396  0.86652014  0.16658788
   0.18517155  0.28871202  0.61066803
   0.06197130  0.20663797  0.56559207
   0.31134943  0.20754659  0.69963390
   0.56374511  0.54260280  0.87536527
   0.06177030  0.70619693  0.56564985
   0.68617202  0.62328526  0.78825707
   0.31516788  0.53759548  0.38935452
   0.18691649  0.62231017  0.52168520
   0.56246781  0.87094302  0.43434274
   0.43679324  0.45650211  0.56565422
   0.43936844  0.29096823  0.74399129
   0.81700974  0.87377455  0.30033683
   0.81073001  0.70319390  0.34514828
   0.44076520  0.46118844  0.83339881
   0.68751526  0.95515373  0.47840548
   0.68611415  0.45752871  0.69961936
   0.56179455  0.87231678  0.52165211
   0.56509890  0.37416978  0.65481966
   0.81486416  0.87436258  0.65494571
   0.81174230  0.37080849  0.43416355
   0.81025581  0.53807931  0.25623331
   0.69126081  0.46111780  0.83338098
   0.18541831  0.78550323  0.12445155
   0.69007226  0.28751937  0.38931533
   0.31471986  0.37434075  0.65487753
   0.31088961  0.20339946  0.34503107
   0.81457029  0.54033910  0.74390978
   0.69059738  0.96160049  0.83331350
   0.56476447  0.87437604  0.65494280
   0.31171305  0.70663041  0.56563077
   0.31110956  0.53362766  0.12446757
   0.68870323  0.95522044  0.21197240
   0.31173253  0.20649769  0.56564172
   0.18723197  0.95527736  0.47844236
   0.68721741  0.95649330  0.56568575
   0.43498566  0.78859422  0.61053353
   0.68264210  0.61436001  0.16673448
   0.31691597  0.87334910  0.30029246
   0.31198443  0.70521744  0.47833179
   0.93497278  0.28852783  0.61058288
   0.44221723  0.62336430  0.30043504
   0.80722545  0.86520577  0.16691096
   0.56484030  0.20402146  0.21200003
   0.93379024  0.61469563  0.16684528
   0.43735220  0.95504701  0.47837679
   0.56113383  0.37272796  0.78823445
   0.06159137  0.37255815  0.52160940
   0.30747758  0.36560432  0.16649324
   0.69227431  0.12323375  0.30041342
   0.44158949  0.96104389  0.83335708
   0.18498496  0.28545546  0.12481134
   0.18559252  0.28783982  0.25612967
   0.31262220  0.37076996  0.43432471
   0.56140606  0.03325566  0.12469575
   0.43499276  0.28866939  0.61056194
   0.18560967  0.45352689  0.34509369
   0.43376094  0.28507795  0.12478879
   0.68560944  0.78857491  0.25615110
   0.43675301  0.12239393  0.52160287
   0.18886659  0.29290983  0.87557864
   0.18988243  0.12450115  0.65495807
   0.93992779  0.12433227  0.65491444
   0.81520320  0.53750991  0.38932446
   0.06536383  0.03810675  0.38934775
   0.18313668  0.11446177  0.16672150
   0.05993637  0.53845749  0.61059535
   0.93553761  0.28820874  0.25605997
   0.55995020  0.53866395  0.61055035
   0.93684978  0.95614278  0.56565715
   0.69236173  0.62400907  0.30054181
   0.93749757  0.62078180  0.43427401
   0.93550848  0.62423527  0.78802456
   0.56106057  0.70730590  0.69958950
   0.06556390  0.71284951  0.83342036
   0.94220339  0.12358053  0.30036386
   0.93492152  0.78829320  0.61063674
   0.43561532  0.78912914  0.25613091
   0.31122707  0.37268167  0.78812985
   0.43903701  0.45487901  0.21184768
   0.18690491  0.12204957  0.52163821
   0.81116064  0.70757255  0.69962378
   0.05987931  0.03869769  0.61053131
   0.56524170  0.21117973  0.83323921
   0.31175355  0.87220904  0.52169391
   0.68608473  0.28472558  0.12460544
   0.18862885  0.95602438  0.21195843
   0.68484038  0.28879410  0.61067469
   0.30997516  0.03850006  0.61063543
   0.93603149  0.12330430  0.78833849
   0.43758661  0.79321482  0.87541740
   0.81461379  0.04084712  0.74392522
   0.93610820  0.45738976  0.69964548
   0.18985595  0.62441208  0.65491179
   0.31122523  0.70759173  0.69957590
   0.93408954  0.28493541  0.12465805
   0.43717713  0.45477275  0.47831151
   0.06231541  0.70478962  0.47837747
   0.93727092  0.12064340  0.43455644
   0.44234963  0.12313272  0.30046144
   0.18735649  0.12058446  0.43421002
   0.56423598  0.04129337  0.87543370
   0.18662697  0.95651425  0.56567442
   0.68490523  0.78591106  0.12497029
   0.56081912  0.70324491  0.34509426
   0.31539043  0.03762098  0.38933082
   0.68387167  0.11563291  0.16700068
   0.81430265  0.20443541  0.21179519
   0.06073722  0.53835988  0.25598114
   0.56240517  0.70534362  0.47834589
   0.43426365  0.78548903  0.12452015
   0.56690712  0.37307016  0.30044124
   0.43553096  0.95342062  0.34503761
   0.18621602  0.95773627  0.69966046
   0.43304760  0.61542503  0.16663687
   0.93920889  0.45513982  0.21207179
   0.06099813  0.53257599  0.12451692
   0.81174499  0.37254685  0.52161446
   0.94230280  0.62388012  0.30022440
   0.31038204  0.03838603  0.25597675
   0.68499789  0.78855494  0.61057861
   0.19061414  0.46165778  0.83350362
   0.43336383  0.11453169  0.16683329
   0.31157969  0.37234140  0.52163972
   0.43585504  0.62289148  0.78833168
   0.06025773  0.03835211  0.25603990
   0.56184539  0.70650835  0.56564107
   0.93937667  0.29028376  0.74392334
   0.68527655  0.12302041  0.78815372
   0.18815676  0.45473928  0.21173803
   0.93990275  0.78743263  0.38927923
   0.68702348  0.29421229  0.87553133
   0.55665458  0.86614143  0.16658770
   0.43623801  0.45761566  0.69965839
   0.93605633  0.95311533  0.34504918
   0.68648772  0.62216318  0.52161151
   0.06487491  0.87434424  0.65492855
   0.06126761  0.87320539  0.78815634
   0.06477022  0.37426412  0.65491321
   0.68714254  0.45475957  0.47824052
   0.18570232  0.78932049  0.25610613
   0.43734693  0.12101471  0.43432987
   0.81201242  0.03342241  0.12468564
   0.93660243  0.62224107  0.52163702
   0.43998604  0.12438473  0.65489357
   0.81225905  0.53303890  0.12442053
   0.43595137  0.45353522  0.34508528