 288 288   0   0
  0.1280206E+02  0.9726678E-09  0.8423550E-09  0.4500000E-08  0.2500000E-15
  1.000000000000000E-004
  CAR 
 unknown system                          
      6.81192105     -6.03683899  301      4.28913101      1.00000000
     -6.037  0.0000E+00  0.0000E+00
     -5.994  0.0000E+00  0.0000E+00
     -5.951  0.0000E+00  0.0000E+00
     -5.908  0.0000E+00  0.0000E+00
     -5.866  0.0000E+00  0.0000E+00
     -5.823  0.0000E+00  0.0000E+00
     -5.780  0.0000E+00  0.0000E+00
     -5.737  0.0000E+00  0.0000E+00
     -5.694  0.0000E+00  0.0000E+00
     -5.651  0.0000E+00  0.0000E+00
     -5.609  0.0000E+00  0.0000E+00
     -5.566  0.0000E+00  0.0000E+00
     -5.523  0.0000E+00  0.0000E+00
     -5.480  0.0000E+00  0.0000E+00
     -5.437  0.0000E+00  0.0000E+00
     -5.394  0.1944E-15  0.8327E-17
     -5.352  0.4407E-14  0.1971E-15
     -5.309  0.9481E-13  0.4258E-14
     -5.266  0.1731E-11  0.7841E-13
     -5.223  0.2691E-10  0.1231E-11
     -5.180  0.3560E-09  0.1648E-10
     -5.137  0.4012E-08  0.1883E-09
     -5.095  0.3853E-07  0.1838E-08
     -5.052  0.3154E-06  0.1535E-07
     -5.009  0.2203E-05  0.1097E-06
     -4.966  0.1315E-04  0.6727E-06
     -4.923  0.6714E-04  0.3548E-05
     -4.880  0.2941E-03  0.1615E-04
     -4.838  0.1109E-02  0.6366E-04
     -4.795  0.3620E-02  0.2187E-03
     -4.752  0.1028E-01  0.6592E-03
     -4.709  0.2566E-01  0.1758E-02
     -4.666  0.5679E-01  0.4190E-02
     -4.623  0.1128E+00  0.9021E-02
     -4.581  0.2033E+00  0.1773E-01
     -4.538  0.3360E+00  0.3212E-01
     -4.495  0.5132E+00  0.5410E-01
     -4.452  0.7287E+00  0.8531E-01
     -4.409  0.9670E+00  0.1267E+00
     -4.367  0.1205E+01  0.1783E+00
     -4.324  0.1416E+01  0.2390E+00
     -4.281  0.1580E+01  0.3066E+00
     -4.238  0.1691E+01  0.3791E+00
     -4.195  0.1760E+01  0.4544E+00
     -4.152  0.1814E+01  0.5322E+00
     -4.110  0.1892E+01  0.6132E+00
     -4.067  0.2025E+01  0.6999E+00
     -4.024  0.2225E+01  0.7952E+00
     -3.981  0.2478E+01  0.9013E+00
     -3.938  0.2744E+01  0.1019E+01
     -3.895  0.2972E+01  0.1146E+01
     -3.853  0.3118E+01  0.1280E+01
     -3.810  0.3163E+01  0.1415E+01
     -3.767  0.3126E+01  0.1549E+01
     -3.724  0.3055E+01  0.1680E+01
     -3.681  0.3011E+01  0.1809E+01
     -3.638  0.3043E+01  0.1939E+01
     -3.596  0.3172E+01  0.2075E+01
     -3.553  0.3379E+01  0.2220E+01
     -3.510  0.3617E+01  0.2375E+01
     -3.467  0.3833E+01  0.2539E+01
     -3.424  0.3990E+01  0.2710E+01
     -3.381  0.4078E+01  0.2884E+01
     -3.339  0.4114E+01  0.3061E+01
     -3.296  0.4125E+01  0.3237E+01
     -3.253  0.4141E+01  0.3415E+01
     -3.210  0.4186E+01  0.3594E+01
     -3.167  0.4276E+01  0.3777E+01
     -3.124  0.4413E+01  0.3966E+01
     -3.082  0.4590E+01  0.4163E+01
     -3.039  0.4792E+01  0.4368E+01
     -2.996  0.4992E+01  0.4582E+01
     -2.953  0.5161E+01  0.4803E+01
     -2.910  0.5280E+01  0.5029E+01
     -2.867  0.5346E+01  0.5258E+01
     -2.825  0.5381E+01  0.5488E+01
     -2.782  0.5421E+01  0.5721E+01
     -2.739  0.5495E+01  0.5956E+01
     -2.696  0.5596E+01  0.6196E+01
     -2.653  0.5678E+01  0.6439E+01
     -2.611  0.5681E+01  0.6682E+01
     -2.568  0.5588E+01  0.6921E+01
     -2.525  0.5462E+01  0.7155E+01
     -2.482  0.5429E+01  0.7388E+01
     -2.439  0.5606E+01  0.7628E+01
     -2.396  0.6030E+01  0.7886E+01
     -2.354  0.6618E+01  0.8170E+01
     -2.311  0.7189E+01  0.8477E+01
     -2.268  0.7551E+01  0.8801E+01
     -2.225  0.7593E+01  0.9126E+01
     -2.182  0.7353E+01  0.9441E+01
     -2.139  0.7007E+01  0.9741E+01
     -2.097  0.6782E+01  0.1003E+02
     -2.054  0.6838E+01  0.1032E+02
     -2.011  0.7198E+01  0.1063E+02
     -1.968  0.7748E+01  0.1096E+02
     -1.925  0.8304E+01  0.1132E+02
     -1.882  0.8698E+01  0.1169E+02
     -1.840  0.8855E+01  0.1207E+02
     -1.797  0.8820E+01  0.1245E+02
     -1.754  0.8722E+01  0.1282E+02
     -1.711  0.8688E+01  0.1320E+02
     -1.668  0.8776E+01  0.1357E+02
     -1.625  0.8964E+01  0.1396E+02
     -1.583  0.9201E+01  0.1435E+02
     -1.540  0.9456E+01  0.1475E+02
     -1.497  0.9727E+01  0.1517E+02
     -1.454  0.1001E+02  0.1560E+02
     -1.411  0.1027E+02  0.1604E+02
     -1.368  0.1045E+02  0.1649E+02
     -1.326  0.1055E+02  0.1694E+02
     -1.283  0.1070E+02  0.1740E+02
     -1.240  0.1109E+02  0.1787E+02
     -1.197  0.1189E+02  0.1838E+02
     -1.154  0.1304E+02  0.1894E+02
     -1.111  0.1425E+02  0.1955E+02
     -1.069  0.1515E+02  0.2020E+02
     -1.026  0.1553E+02  0.2087E+02
     -0.983  0.1549E+02  0.2153E+02
     -0.940  0.1541E+02  0.2219E+02
     -0.897  0.1572E+02  0.2286E+02
     -0.855  0.1667E+02  0.2358E+02
     -0.812  0.1823E+02  0.2436E+02
     -0.769  0.2027E+02  0.2522E+02
     -0.726  0.2277E+02  0.2620E+02
     -0.683  0.2591E+02  0.2731E+02
     -0.640  0.2989E+02  0.2859E+02
     -0.598  0.3463E+02  0.3007E+02
     -0.555  0.3962E+02  0.3177E+02
     -0.512  0.4415E+02  0.3366E+02
     -0.469  0.4770E+02  0.3570E+02
     -0.426  0.5023E+02  0.3786E+02
     -0.383  0.5206E+02  0.4009E+02
     -0.341  0.5358E+02  0.4238E+02
     -0.298  0.5493E+02  0.4473E+02
     -0.255  0.5600E+02  0.4713E+02
     -0.212  0.5662E+02  0.4956E+02
     -0.169  0.5676E+02  0.5199E+02
     -0.126  0.5659E+02  0.5441E+02
     -0.084  0.5643E+02  0.5683E+02
     -0.041  0.5661E+02  0.5925E+02
      0.002  0.5739E+02  0.6171E+02
      0.045  0.5887E+02  0.6423E+02
      0.088  0.6106E+02  0.6685E+02
      0.131  0.6388E+02  0.6958E+02
      0.173  0.6719E+02  0.7246E+02
      0.216  0.7082E+02  0.7549E+02
      0.259  0.7453E+02  0.7869E+02
      0.302  0.7801E+02  0.8203E+02
      0.345  0.8099E+02  0.8550E+02
      0.388  0.8335E+02  0.8907E+02
      0.430  0.8514E+02  0.9271E+02
      0.473  0.8646E+02  0.9642E+02
      0.516  0.8730E+02  0.1002E+03
      0.559  0.8761E+02  0.1039E+03
      0.602  0.8738E+02  0.1076E+03
      0.645  0.8667E+02  0.1114E+03
      0.687  0.8557E+02  0.1150E+03
      0.730  0.8410E+02  0.1186E+03
      0.773  0.8228E+02  0.1222E+03
      0.816  0.8021E+02  0.1256E+03
      0.859  0.7819E+02  0.1289E+03
      0.901  0.7662E+02  0.1322E+03
      0.944  0.7577E+02  0.1355E+03
      0.987  0.7563E+02  0.1387E+03
      1.030  0.7588E+02  0.1420E+03
      1.073  0.7610E+02  0.1452E+03
      1.116  0.7594E+02  0.1485E+03
      1.158  0.7535E+02  0.1517E+03
      1.201  0.7449E+02  0.1549E+03
      1.244  0.7363E+02  0.1580E+03
      1.287  0.7299E+02  0.1612E+03
      1.330  0.7258E+02  0.1643E+03
      1.373  0.7214E+02  0.1674E+03
      1.415  0.7136E+02  0.1704E+03
      1.458  0.7003E+02  0.1734E+03
      1.501  0.6837E+02  0.1763E+03
      1.544  0.6696E+02  0.1792E+03
      1.587  0.6645E+02  0.1821E+03
      1.630  0.6724E+02  0.1849E+03
      1.672  0.6923E+02  0.1879E+03
      1.715  0.7203E+02  0.1910E+03
      1.758  0.7515E+02  0.1942E+03
      1.801  0.7825E+02  0.1976E+03
      1.844  0.8116E+02  0.2010E+03
      1.887  0.8378E+02  0.2046E+03
      1.929  0.8605E+02  0.2083E+03
      1.972  0.8798E+02  0.2121E+03
      2.015  0.8967E+02  0.2159E+03
      2.058  0.9120E+02  0.2198E+03
      2.101  0.9258E+02  0.2238E+03
      2.144  0.9379E+02  0.2278E+03
      2.186  0.9489E+02  0.2319E+03
      2.229  0.9613E+02  0.2360E+03
      2.272  0.9791E+02  0.2402E+03
      2.315  0.1006E+03  0.2445E+03
      2.358  0.1042E+03  0.2489E+03
      2.401  0.1086E+03  0.2536E+03
      2.443  0.1132E+03  0.2584E+03
      2.486  0.1174E+03  0.2635E+03
      2.529  0.1207E+03  0.2686E+03
      2.572  0.1231E+03  0.2739E+03
      2.615  0.1250E+03  0.2793E+03
      2.657  0.1266E+03  0.2847E+03
      2.700  0.1283E+03  0.2902E+03
      2.743  0.1303E+03  0.2958E+03
      2.786  0.1329E+03  0.3015E+03
      2.829  0.1360E+03  0.3073E+03
      2.872  0.1393E+03  0.3132E+03
      2.914  0.1418E+03  0.3193E+03
      2.957  0.1425E+03  0.3254E+03
      3.000  0.1404E+03  0.3314E+03
      3.043  0.1354E+03  0.3372E+03
      3.086  0.1279E+03  0.3427E+03
      3.129  0.1189E+03  0.3478E+03
      3.171  0.1097E+03  0.3525E+03
      3.214  0.1014E+03  0.3568E+03
      3.257  0.9490E+02  0.3609E+03
      3.300  0.9031E+02  0.3648E+03
      3.343  0.8747E+02  0.3685E+03
      3.386  0.8596E+02  0.3722E+03
      3.428  0.8529E+02  0.3759E+03
      3.471  0.8499E+02  0.3795E+03
      3.514  0.8467E+02  0.3831E+03
      3.557  0.8413E+02  0.3867E+03
      3.600  0.8352E+02  0.3903E+03
      3.643  0.8335E+02  0.3939E+03
      3.685  0.8422E+02  0.3975E+03
      3.728  0.8649E+02  0.4012E+03
      3.771  0.9005E+02  0.4050E+03
      3.814  0.9429E+02  0.4091E+03
      3.857  0.9851E+02  0.4133E+03
      3.900  0.1022E+03  0.4177E+03
      3.942  0.1051E+03  0.4222E+03
      3.985  0.1072E+03  0.4268E+03
      4.028  0.1085E+03  0.4314E+03
      4.071  0.1090E+03  0.4361E+03
      4.114  0.1088E+03  0.4407E+03
      4.157  0.1081E+03  0.4454E+03
      4.199  0.1071E+03  0.4500E+03
      4.242  0.1058E+03  0.4545E+03
      4.285  0.1046E+03  0.4590E+03
      4.328  0.1034E+03  0.4634E+03
      4.371  0.1024E+03  0.4678E+03
      4.413  0.1017E+03  0.4721E+03
      4.456  0.1010E+03  0.4765E+03
      4.499  0.1000E+03  0.4807E+03
      4.542  0.9884E+02  0.4850E+03
      4.585  0.9765E+02  0.4892E+03
      4.628  0.9688E+02  0.4933E+03
      4.670  0.9692E+02  0.4975E+03
      4.713  0.9795E+02  0.5017E+03
      4.756  0.9992E+02  0.5059E+03
      4.799  0.1025E+03  0.5103E+03
      4.842  0.1052E+03  0.5148E+03
      4.885  0.1076E+03  0.5194E+03
      4.927  0.1090E+03  0.5241E+03
      4.970  0.1092E+03  0.5288E+03
      5.013  0.1077E+03  0.5334E+03
      5.056  0.1037E+03  0.5378E+03
      5.099  0.9631E+02  0.5420E+03
      5.142  0.8488E+02  0.5456E+03
      5.184  0.6987E+02  0.5486E+03
      5.227  0.5295E+02  0.5509E+03
      5.270  0.3650E+02  0.5524E+03
      5.313  0.2268E+02  0.5534E+03
      5.356  0.1262E+02  0.5539E+03
      5.399  0.6259E+01  0.5542E+03
      5.441  0.2760E+01  0.5543E+03
      5.484  0.1080E+01  0.5544E+03
      5.527  0.3747E+00  0.5544E+03
      5.570  0.1154E+00  0.5544E+03
      5.613  0.3151E-01  0.5544E+03
      5.656  0.7635E-02  0.5544E+03
      5.698  0.1639E-02  0.5544E+03
      5.741  0.3112E-03  0.5544E+03
      5.784  0.5206E-04  0.5544E+03
      5.827  0.7648E-05  0.5544E+03
      5.870  0.9821E-06  0.5544E+03
      5.913  0.1097E-06  0.5544E+03
      5.955  0.1063E-07  0.5544E+03
      5.998  0.8886E-09  0.5544E+03
      6.041  0.6397E-10  0.5544E+03
      6.084  0.3953E-11  0.5544E+03
      6.127  0.2089E-12  0.5544E+03
      6.169  0.9267E-14  0.5544E+03
      6.212  0.3240E-15  0.5544E+03
      6.255  0.0000E+00  0.5544E+03
      6.298  0.0000E+00  0.5544E+03
      6.341  0.0000E+00  0.5544E+03
      6.384  0.0000E+00  0.5544E+03
      6.426  0.0000E+00  0.5544E+03
      6.469  0.0000E+00  0.5544E+03
      6.512  0.0000E+00  0.5544E+03
      6.555  0.0000E+00  0.5544E+03
      6.598  0.0000E+00  0.5544E+03
      6.641  0.0000E+00  0.5544E+03
      6.683  0.0000E+00  0.5544E+03
      6.726  0.0000E+00  0.5544E+03
      6.769  0.0000E+00  0.5544E+03
      6.812  0.0000E+00  0.5544E+03
