<?xml version="1.0" encoding="ISO-8859-1"?>
<modeling>
 <generator>
  <i name="program" type="string">vasp </i>
  <i name="version" type="string">5.4.4.18Apr17-6-g9f103f2a35  </i>
  <i name="subversion" type="string">(build Sep 27 2018 12:46:37) complex + VL-xray_ parallel </i>
  <i name="platform" type="string">LLNL_Quartz_ifc </i>
  <i name="date" type="string">2021 09 26 </i>
  <i name="time" type="string">19:15:37 </i>
 </generator>
 <incar>
  <i type="int" name="ISTART">     2</i>
  <i type="string" name="PREC">accurate</i>
  <i type="string" name="ALGO"> Fast</i>
  <i type="int" name="ICHARG">     2</i>
  <i type="int" name="INIWAV">     1</i>
  <i type="int" name="NELM">   200</i>
  <i type="int" name="NELMIN">     4</i>
  <i type="int" name="IBRION">     2</i>
  <i name="EDIFF">      0.00000100</i>
  <i type="int" name="NSW">     5</i>
  <i type="int" name="ISIF">     2</i>
  <i type="int" name="ISYM">     2</i>
  <i name="ENCUT">    450.00000000</i>
  <i name="POTIM">      0.25000000</i>
  <i type="string" name="LREAL"> Auto</i>
  <i type="int" name="ISMEAR">     0</i>
  <i name="SIGMA">      0.15000000</i>
  <i type="logical" name="LWAVE"> F  </i>
  <i type="logical" name="LCHARG"> F  </i>
  <i type="int" name="ICORELEVEL">     0</i>
  <i type="int" name="CLNT">     1</i>
  <i type="int" name="CLN">     1</i>
  <i type="int" name="INCAR     ">     0</i>
  <i name="CLZ">      0.00000000</i>
  <v type="int" name="KPOINT_BSE">    -1     0     0     0</v>
  <i type="int" name="NELM">   200</i>
 </incar>
 <structure name="primitive_cell" >
  <crystal>
   <varray name="basis" >
    <v>       9.72667804       0.00000000       0.00000000 </v>
    <v>       0.00000000       8.42355028       0.00000000 </v>
    <v>       0.00000000       0.00000000      45.00000000 </v>
   </varray>
   <i name="volume">   3686.99226691 </i>
   <varray name="rec_basis" >
    <v>       0.10281002       0.00000000       0.00000000 </v>
    <v>       0.00000000       0.11871479       0.00000000 </v>
    <v>       0.00000000       0.00000000       0.02222222 </v>
   </varray>
  </crystal>
  <varray name="positions" >
   <v>       0.06158864      -0.29067552       0.21187982 </v>
   <v>      -0.06223394      -0.20827916       0.25543329 </v>
   <v>       0.18481249      -0.04221175       0.21138276 </v>
   <v>       0.06264028      -0.13402177       0.16694190 </v>
   <v>       0.18835976      -0.20840190       0.25562564 </v>
   <v>      -0.06435746      -0.04233505       0.21149217 </v>
   <v>       0.06371959      -0.45869829       0.25563339 </v>
   <v>      -0.18847404      -0.29044172       0.21177450 </v>
   <v>       0.31196882      -0.29100751       0.21197397 </v>
   <v>       0.18555420       0.45772772       0.21156331 </v>
   <v>      -0.06470710       0.45776880       0.21144933 </v>
   <v>      -0.06240513      -0.38386406       0.16693618 </v>
   <v>       0.18726855      -0.38344938       0.16687516 </v>
   <v>      -0.18652272      -0.45828788       0.25562894 </v>
   <v>      -0.18767534      -0.13332150       0.16673237 </v>
   <v>       0.06277425       0.04223841       0.25595506 </v>
   <v>       0.31228659      -0.13427674       0.16675231 </v>
   <v>       0.31310826      -0.45871447       0.25558486 </v>
   <v>       0.06277972       0.36645893       0.16682057 </v>
   <v>      -0.06260226       0.11653712       0.16696946 </v>
   <v>       0.18716804       0.11649093       0.16700405 </v>
   <v>      -0.06321011      -0.21680218       0.12443782 </v>
   <v>       0.18629170      -0.21696999       0.12442126 </v>
   <v>       0.06248814      -0.46050892       0.12461778 </v>
   <v>      -0.31175743      -0.20838739       0.25557257 </v>
   <v>       0.43527483      -0.04229461       0.21150231 </v>
   <v>      -0.18695523       0.04228421       0.25584802 </v>
   <v>       0.43506088       0.45793145       0.21154439 </v>
   <v>      -0.06210842       0.29208429       0.25578329 </v>
   <v>       0.18447618      -0.37413247       0.30017476 </v>
   <v>       0.06096429       0.20931595       0.21175823 </v>
   <v>       0.05927822      -0.12431460       0.30014139 </v>
   <v>      -0.06551464      -0.37429662       0.30003326 </v>
   <v>       0.31295699       0.04197377       0.25598965 </v>
   <v>       0.43825839      -0.20830611       0.25566965 </v>
   <v>       0.18770806       0.29177626       0.25588006 </v>
   <v>      -0.31492385      -0.04201053       0.21150268 </v>
   <v>      -0.31473169       0.45756563       0.21149957 </v>
   <v>      -0.31266219      -0.38381808       0.16707264 </v>
   <v>       0.43717537      -0.38358605       0.16688473 </v>
   <v>      -0.18703467       0.36596910       0.16687643 </v>
   <v>       0.31271032       0.36577080       0.16689541 </v>
   <v>       0.06173613       0.03829507       0.12456251 </v>
   <v>      -0.18800047      -0.46086963       0.12463070 </v>
   <v>       0.31262620      -0.46113550       0.12466202 </v>
   <v>       0.30900568      -0.12466494       0.30008150 </v>
   <v>       0.31092302       0.20866971       0.21170228 </v>
   <v>      -0.43850148      -0.29091928       0.21186187 </v>
   <v>      -0.18872226       0.20920902       0.21181104 </v>
   <v>       0.05938336       0.37543549       0.30007037 </v>
   <v>      -0.19137423      -0.12330330       0.30017270 </v>
   <v>       0.31139025       0.03809876       0.12462692 </v>
   <v>      -0.18817833       0.03882752       0.12453178 </v>
   <v>      -0.31274449       0.11646497       0.16696280 </v>
   <v>      -0.31343091      -0.21699087       0.12449419 </v>
   <v>       0.43646360      -0.21723291       0.12440153 </v>
   <v>       0.43700062       0.11661561       0.16700163 </v>
   <v>      -0.43664346      -0.45876149       0.25573914 </v>
   <v>      -0.43735773      -0.13406694       0.16679539 </v>
   <v>       0.18479586       0.12530716       0.29992919 </v>
   <v>       0.43465024      -0.37424514       0.30014451 </v>
   <v>       0.30944812       0.37560598       0.30002502 </v>
   <v>      -0.06508707       0.12522549       0.29986255 </v>
   <v>      -0.31257891       0.29219869       0.25581263 </v>
   <v>       0.43801043       0.29237915       0.25591572 </v>
   <v>      -0.19099103       0.37609134       0.30010152 </v>
   <v>      -0.31562193      -0.37400228       0.30002350 </v>
   <v>      -0.06359361       0.28295701       0.12451072 </v>
   <v>       0.18626651       0.28289745       0.12444020 </v>
   <v>      -0.43721447       0.04245482       0.25568104 </v>
   <v>       0.06375467      -0.29495079       0.34453053 </v>
   <v>      -0.43688577       0.36629871       0.16689957 </v>
   <v>      -0.43802459      -0.46013092       0.12451755 </v>
   <v>       0.43452790       0.12567577       0.29994054 </v>
   <v>      -0.44061830      -0.12461161       0.30018619 </v>
   <v>      -0.43892607       0.20895984       0.21172099 </v>
   <v>      -0.06206537      -0.04463096       0.34460582 </v>
   <v>      -0.31494563       0.12534486       0.29999260 </v>
   <v>      -0.18658973      -0.29510291       0.34456986 </v>
   <v>       0.18812067      -0.04487970       0.34467313 </v>
   <v>       0.31356140      -0.29524157       0.34455967 </v>
   <v>       0.43635265       0.28261166       0.12444500 </v>
   <v>      -0.06186880       0.45462915       0.34460756 </v>
   <v>      -0.31407122       0.28259784       0.12445009 </v>
   <v>       0.18770439       0.45499629       0.34469175 </v>
   <v>      -0.43801583       0.03833176       0.12455937 </v>
   <v>      -0.44062845       0.37559262       0.30016583 </v>
   <v>      -0.31172885      -0.04512879       0.34469378 </v>
   <v>       0.06436804       0.20518143       0.34479630 </v>
   <v>       0.43807391      -0.04446700       0.34462647 </v>
   <v>      -0.31177616       0.45525813       0.34457065 </v>
   <v>       0.43802101       0.45526573       0.34471419 </v>
   <v>      -0.18609552       0.20549441       0.34470664 </v>
   <v>      -0.43606147      -0.29473324       0.34456604 </v>
   <v>       0.31422092       0.20511991       0.34472683 </v>
   <v>       0.06246226      -0.45802067       0.38883767 </v>
   <v>      -0.06257188      -0.20810600       0.38901928 </v>
   <v>       0.18767442      -0.20817979       0.38895946 </v>
   <v>      -0.18744193      -0.45830419       0.38882970 </v>
   <v>       0.31255588      -0.45813875       0.38884568 </v>
   <v>       0.06264910       0.04166680       0.38900526 </v>
   <v>      -0.43540939       0.20552760       0.34475785 </v>
   <v>      -0.18750838       0.04179716       0.38890451 </v>
   <v>       0.18742286       0.29198608       0.38881053 </v>
   <v>      -0.06230053       0.29123730       0.38882641 </v>
   <v>      -0.31234718      -0.20835289       0.38905179 </v>
   <v>       0.31242241       0.04206697       0.38895169 </v>
   <v>       0.43731570      -0.20817154       0.38894842 </v>
   <v>      -0.31240261       0.29139261       0.38870547 </v>
   <v>      -0.43764297      -0.45837697       0.38901525 </v>
   <v>       0.43792260       0.29126207       0.38894218 </v>
   <v>      -0.43754266       0.04154780       0.38897900 </v>
   <v>       0.06042278      -0.12547585       0.43323640 </v>
   <v>       0.18691171      -0.37461147       0.43326284 </v>
   <v>      -0.06304288      -0.37457926       0.43331567 </v>
   <v>      -0.18926653      -0.12519591       0.43313353 </v>
   <v>       0.31171427      -0.12492757       0.43341146 </v>
   <v>       0.06202405       0.37518410       0.43344090 </v>
   <v>       0.43717492      -0.37435983       0.43314561 </v>
   <v>      -0.31293875      -0.37539608       0.43323511 </v>
   <v>       0.18642827       0.12521559       0.43327899 </v>
   <v>      -0.18793573       0.37558153       0.43340240 </v>
   <v>      -0.06277341       0.12565996       0.43346718 </v>
   <v>       0.31217422       0.37525444       0.43337558 </v>
   <v>      -0.43908085      -0.12481328       0.43313598 </v>
   <v>       0.43690927       0.12588971       0.43311930 </v>
   <v>      -0.31283507       0.12551574       0.43339096 </v>
   <v>      -0.43788032       0.37530404       0.43345649 </v>
   <v>       0.06457521      -0.29243087       0.47765283 </v>
   <v>      -0.18597767      -0.29205662       0.47755230 </v>
   <v>      -0.06099572       0.45777902       0.47751273 </v>
   <v>      -0.06017389      -0.04183667       0.47764592 </v>
   <v>       0.18952680      -0.04187658       0.47751809 </v>
   <v>       0.31406296      -0.29219631       0.47749366 </v>
   <v>       0.18944379       0.45769720       0.47750178 </v>
   <v>      -0.31079043       0.45822239       0.47743602 </v>
   <v>      -0.31068184      -0.04210208       0.47755072 </v>
   <v>       0.06440757       0.20775820       0.47754505 </v>
   <v>       0.43933926      -0.04211455       0.47748234 </v>
   <v>       0.43937084       0.45717016       0.47751197 </v>
   <v>      -0.18509807       0.20755957       0.47748703 </v>
   <v>      -0.43536342      -0.29237432       0.47771097 </v>
   <v>       0.31421483       0.20764944       0.47752511 </v>
   <v>      -0.43590899       0.20738296       0.47746052 </v>
   <v>       0.18691317      -0.20925407      -0.47784274 </v>
   <v>      -0.06327716      -0.20880855      -0.47773894 </v>
   <v>       0.06083704      -0.45927996      -0.47755508 </v>
   <v>       0.06133334       0.04067590      -0.47772912 </v>
   <v>      -0.18852923      -0.45911215      -0.47766461 </v>
   <v>       0.31091382      -0.45830132      -0.47737226 </v>
   <v>       0.43616467      -0.20934813      -0.47792324 </v>
   <v>      -0.31348386      -0.20890741      -0.47792505 </v>
   <v>      -0.18780646       0.04037169      -0.47779635 </v>
   <v>       0.31131861       0.04059084      -0.47771128 </v>
   <v>       0.18637632       0.29147111      -0.47758742 </v>
   <v>      -0.06461682       0.29207856      -0.47751179 </v>
   <v>       0.43552745       0.29141794      -0.47759619 </v>
   <v>      -0.43917973      -0.45822788      -0.47749879 </v>
   <v>      -0.31460670       0.29143310      -0.47752416 </v>
   <v>      -0.43830113       0.04067817      -0.47767908 </v>
   <v>       0.06655108      -0.28188867      -0.12444604 </v>
   <v>      -0.06082743      -0.04071237      -0.12392187 </v>
   <v>       0.31374438      -0.28140499      -0.12397379 </v>
   <v>      -0.06299691       0.45857441      -0.12419417 </v>
   <v>      -0.18629840      -0.28179759      -0.12428962 </v>
   <v>       0.18853483       0.46035819      -0.12428717 </v>
   <v>       0.18883715      -0.04088829      -0.12434419 </v>
   <v>       0.06616882       0.21634880      -0.12414730 </v>
   <v>       0.43641020      -0.04029197      -0.12409868 </v>
   <v>      -0.31290724       0.45739869      -0.12409273 </v>
   <v>      -0.31403934      -0.03860952      -0.12405145 </v>
   <v>       0.43656979       0.46044658      -0.12432065 </v>
   <v>      -0.18657196       0.21675809      -0.12410289 </v>
   <v>       0.31385380       0.21728183      -0.12438531 </v>
   <v>      -0.43906509      -0.28234451      -0.12420497 </v>
   <v>       0.18768351      -0.37576995      -0.43346401 </v>
   <v>       0.06255739      -0.12562450      -0.43335027 </v>
   <v>      -0.06262037      -0.37585032      -0.43333369 </v>
   <v>       0.06270253       0.37369525      -0.43357870 </v>
   <v>      -0.18714882      -0.12608986      -0.43341373 </v>
   <v>       0.31253992      -0.12588336      -0.43335823 </v>
   <v>      -0.18742561       0.37401933      -0.43354047 </v>
   <v>       0.18779504       0.12444472      -0.43343992 </v>
   <v>      -0.06190008       0.12397666      -0.43336799 </v>
   <v>      -0.31243339      -0.37547066      -0.43342633 </v>
   <v>       0.31327126       0.37355735      -0.43353168 </v>
   <v>       0.43804289      -0.37601001      -0.43348174 </v>
   <v>      -0.43746277       0.21805892      -0.12424484 </v>
   <v>      -0.31241438       0.12449272      -0.43341447 </v>
   <v>       0.43791677       0.12471608      -0.43350880 </v>
   <v>      -0.43748946      -0.12521166      -0.43323632 </v>
   <v>      -0.43710600       0.37379960      -0.43348921 </v>
   <v>      -0.06562971      -0.36476323      -0.16598701 </v>
   <v>       0.06076981      -0.11795157      -0.16675481 </v>
   <v>       0.18586651      -0.36735578      -0.16723879 </v>
   <v>      -0.18993678      -0.11717340      -0.16551948 </v>
   <v>       0.06164794       0.38342999      -0.16681112 </v>
   <v>       0.31054767      -0.11690669      -0.16718792 </v>
   <v>      -0.19005164       0.38447901      -0.16618235 </v>
   <v>      -0.31406504      -0.36534955      -0.16614723 </v>
   <v>      -0.06459526       0.13367176      -0.16595019 </v>
   <v>       0.31077870       0.38265452      -0.16681618 </v>
   <v>       0.43568799      -0.36690156      -0.16710168 </v>
   <v>       0.18608745       0.13485512      -0.16713297 </v>
   <v>      -0.31316561       0.13395411      -0.16617250 </v>
   <v>      -0.43849132      -0.11743593      -0.16652511 </v>
   <v>       0.43602929       0.13316160      -0.16692169 </v>
   <v>      -0.43967729       0.38282870      -0.16712054 </v>
   <v>       0.06261436      -0.29183465      -0.38900809 </v>
   <v>      -0.06167164      -0.04176395      -0.38917006 </v>
   <v>       0.18832331      -0.04199237      -0.38918691 </v>
   <v>      -0.18624755      -0.29189155      -0.38900450 </v>
   <v>      -0.06214848       0.45824108      -0.38895396 </v>
   <v>       0.31291910      -0.29172424      -0.38895538 </v>
   <v>       0.18789230       0.45863939      -0.38879654 </v>
   <v>      -0.31258058      -0.04145698      -0.38927809 </v>
   <v>       0.43797682      -0.04176140      -0.38922825 </v>
   <v>       0.06308323       0.20856529      -0.38913688 </v>
   <v>      -0.31229228       0.45807262      -0.38898925 </v>
   <v>       0.43883847       0.45932538      -0.38897804 </v>
   <v>      -0.43696715      -0.29159026      -0.38903343 </v>
   <v>      -0.18723349       0.20788515      -0.38886444 </v>
   <v>       0.31285209       0.20827004      -0.38893088 </v>
   <v>      -0.43644945       0.20650366      -0.38909624 </v>
   <v>       0.06655334      -0.45702378      -0.21139398 </v>
   <v>       0.18903239      -0.20844603      -0.21159367 </v>
   <v>      -0.06091722      -0.20835027      -0.21166539 </v>
   <v>      -0.18425328      -0.45704522      -0.21114028 </v>
   <v>       0.31557050      -0.45821743      -0.21144197 </v>
   <v>       0.06517942       0.04186872      -0.21173281 </v>
   <v>       0.31677837       0.04073797      -0.21138453 </v>
   <v>       0.43988584      -0.20816623      -0.21139543 </v>
   <v>      -0.31067288      -0.20899796      -0.21166853 </v>
   <v>      -0.06072260       0.29227227      -0.21184190 </v>
   <v>       0.18908124       0.29276204      -0.21199463 </v>
   <v>      -0.18105593       0.04497095      -0.21242569 </v>
   <v>      -0.43447128      -0.45794295      -0.21143003 </v>
   <v>       0.43902546       0.29199586      -0.21155510 </v>
   <v>      -0.31160072       0.29176519      -0.21187626 </v>
   <v>      -0.43437990       0.04133777      -0.21184577 </v>
   <v>       0.06066198      -0.45546210      -0.34484078 </v>
   <v>       0.18587139      -0.20475048      -0.34451444 </v>
   <v>      -0.06621967      -0.20626985      -0.34453103 </v>
   <v>       0.30980403      -0.45604675      -0.34490076 </v>
   <v>      -0.18911264      -0.45650843      -0.34455396 </v>
   <v>       0.06041926       0.04400505      -0.34448443 </v>
   <v>      -0.06515541       0.29378070      -0.34488347 </v>
   <v>       0.18447288       0.29396088      -0.34471128 </v>
   <v>       0.43588765      -0.20563762      -0.34466731 </v>
   <v>      -0.31496832      -0.20650073      -0.34461988 </v>
   <v>       0.31044283       0.04455595      -0.34444853 </v>
   <v>      -0.19000437       0.04542787      -0.34437426 </v>
   <v>      -0.43948598      -0.45658714      -0.34476037 </v>
   <v>       0.43454130       0.29441514      -0.34463853 </v>
   <v>      -0.31545122       0.29401241      -0.34466040 </v>
   <v>      -0.43971269       0.04423772      -0.34469122 </v>
   <v>       0.05873335      -0.29000646      -0.25595213 </v>
   <v>      -0.19138239      -0.28966245      -0.25564763 </v>
   <v>      -0.06577826      -0.04223948      -0.25578629 </v>
   <v>       0.18332596       0.46002005      -0.25595031 </v>
   <v>       0.18488140      -0.03923497      -0.25590915 </v>
   <v>       0.30903839      -0.29015354      -0.25620029 </v>
   <v>      -0.06683970       0.45947684      -0.25613699 </v>
   <v>      -0.31393596      -0.03823727      -0.25526600 </v>
   <v>       0.05955374       0.20963959      -0.25540634 </v>
   <v>       0.43497498      -0.03965715      -0.25551334 </v>
   <v>       0.43376755       0.46179787      -0.25588080 </v>
   <v>      -0.31622784       0.46072845      -0.25599489 </v>
   <v>      -0.19139608       0.20962408      -0.25511004 </v>
   <v>       0.30794793       0.21009902      -0.25588790 </v>
   <v>      -0.44101427      -0.28891558      -0.25594092 </v>
   <v>      -0.43968921       0.21063232      -0.25526149 </v>
   <v>      -0.05541343      -0.37553634      -0.30038178 </v>
   <v>       0.07103534      -0.12521638      -0.30035038 </v>
   <v>       0.19526891      -0.37478473      -0.30032293 </v>
   <v>      -0.17935082      -0.12508799      -0.30032394 </v>
   <v>       0.32142499      -0.12515677      -0.30045466 </v>
   <v>       0.06957469       0.37537162      -0.29998223 </v>
   <v>      -0.05599866       0.12341729      -0.30065235 </v>
   <v>      -0.30472876      -0.37491752      -0.30041818 </v>
   <v>      -0.18090670       0.37519979      -0.30036824 </v>
   <v>       0.19560539       0.12520589      -0.30043961 </v>
   <v>       0.32032415       0.37423210      -0.30033000 </v>
   <v>       0.44411145      -0.37415639      -0.30002824 </v>
   <v>      -0.30570725       0.12483839      -0.30040598 </v>
   <v>      -0.42957974      -0.12495116      -0.30008937 </v>
   <v>       0.44510428       0.12600008      -0.30016254 </v>
   <v>      -0.43058900       0.37544893      -0.30027310 </v>
  </varray>
 </structure>
 <varray name="primitive_index" >
  <v type="int" >        1 </v>
  <v type="int" >      238 </v>
  <v type="int" >      109 </v>
  <v type="int" >      208 </v>
  <v type="int" >       89 </v>
  <v type="int" >       71 </v>
  <v type="int" >      220 </v>
  <v type="int" >       81 </v>
  <v type="int" >      192 </v>
  <v type="int" >       10 </v>
  <v type="int" >      242 </v>
  <v type="int" >      193 </v>
  <v type="int" >       35 </v>
  <v type="int" >      227 </v>
  <v type="int" >      231 </v>
  <v type="int" >      263 </v>
  <v type="int" >      191 </v>
  <v type="int" >      243 </v>
  <v type="int" >       55 </v>
  <v type="int" >      158 </v>
  <v type="int" >      126 </v>
  <v type="int" >      155 </v>
  <v type="int" >      262 </v>
  <v type="int" >       22 </v>
  <v type="int" >      128 </v>
  <v type="int" >       15 </v>
  <v type="int" >      222 </v>
  <v type="int" >       28 </v>
  <v type="int" >      252 </v>
  <v type="int" >      253 </v>
  <v type="int" >      160 </v>
  <v type="int" >      147 </v>
  <v type="int" >       38 </v>
  <v type="int" >      278 </v>
  <v type="int" >      226 </v>
  <v type="int" >       45 </v>
  <v type="int" >      161 </v>
  <v type="int" >      205 </v>
  <v type="int" >      117 </v>
  <v type="int" >      265 </v>
  <v type="int" >      183 </v>
  <v type="int" >      138 </v>
  <v type="int" >       48 </v>
  <v type="int" >       14 </v>
  <v type="int" >      197 </v>
  <v type="int" >      108 </v>
  <v type="int" >       61 </v>
  <v type="int" >      251 </v>
  <v type="int" >       70 </v>
  <v type="int" >       26 </v>
  <v type="int" >      277 </v>
  <v type="int" >       23 </v>
  <v type="int" >       99 </v>
  <v type="int" >       90 </v>
  <v type="int" >       25 </v>
  <v type="int" >       83 </v>
  <v type="int" >      143 </v>
  <v type="int" >       33 </v>
  <v type="int" >       44 </v>
  <v type="int" >      142 </v>
  <v type="int" >      100 </v>
  <v type="int" >       52 </v>
  <v type="int" >      145 </v>
  <v type="int" >      203 </v>
  <v type="int" >        5 </v>
  <v type="int" >      104 </v>
  <v type="int" >      144 </v>
  <v type="int" >      133 </v>
  <v type="int" >      189 </v>
  <v type="int" >      261 </v>
  <v type="int" >      112 </v>
  <v type="int" >      122 </v>
  <v type="int" >       43 </v>
  <v type="int" >      169 </v>
  <v type="int" >      255 </v>
  <v type="int" >       63 </v>
  <v type="int" >       92 </v>
  <v type="int" >      170 </v>
  <v type="int" >      118 </v>
  <v type="int" >      254 </v>
  <v type="int" >      257 </v>
  <v type="int" >      279 </v>
  <v type="int" >      190 </v>
  <v type="int" >      267 </v>
  <v type="int" >      120 </v>
  <v type="int" >      214 </v>
  <v type="int" >      124 </v>
  <v type="int" >       24 </v>
  <v type="int" >      153 </v>
  <v type="int" >      236 </v>
  <v type="int" >       34 </v>
  <v type="int" >       95 </v>
  <v type="int" >      172 </v>
  <v type="int" >      123 </v>
  <v type="int" >      258 </v>
  <v type="int" >      247 </v>
  <v type="int" >      198 </v>
  <v type="int" >      229 </v>
  <v type="int" >       86 </v>
  <v type="int" >       57 </v>
  <v type="int" >      246 </v>
  <v type="int" >       50 </v>
  <v type="int" >       17 </v>
  <v type="int" >      105 </v>
  <v type="int" >      273 </v>
  <v type="int" >      156 </v>
  <v type="int" >      134 </v>
  <v type="int" >       79 </v>
  <v type="int" >      232 </v>
  <v type="int" >      171 </v>
  <v type="int" >      248 </v>
  <v type="int" >      244 </v>
  <v type="int" >      211 </v>
  <v type="int" >      168 </v>
  <v type="int" >      137 </v>
  <v type="int" >       46 </v>
  <v type="int" >      240 </v>
  <v type="int" >      256 </v>
  <v type="int" >      281 </v>
  <v type="int" >       94 </v>
  <v type="int" >      223 </v>
  <v type="int" >       29 </v>
  <v type="int" >       32 </v>
  <v type="int" >      215 </v>
  <v type="int" >      239 </v>
  <v type="int" >      184 </v>
  <v type="int" >      115 </v>
  <v type="int" >      136 </v>
  <v type="int" >       62 </v>
  <v type="int" >      268 </v>
  <v type="int" >      166 </v>
  <v type="int" >      179 </v>
  <v type="int" >      176 </v>
  <v type="int" >      217 </v>
  <v type="int" >      132 </v>
  <v type="int" >      249 </v>
  <v type="int" >       91 </v>
  <v type="int" >      185 </v>
  <v type="int" >      130 </v>
  <v type="int" >       19 </v>
  <v type="int" >      206 </v>
  <v type="int" >      207 </v>
  <v type="int" >      175 </v>
  <v type="int" >       11 </v>
  <v type="int" >      107 </v>
  <v type="int" >      116 </v>
  <v type="int" >      178 </v>
  <v type="int" >      218 </v>
  <v type="int" >      241 </v>
  <v type="int" >      230 </v>
  <v type="int" >      187 </v>
  <v type="int" >       18 </v>
  <v type="int" >       93 </v>
  <v type="int" >      266 </v>
  <v type="int" >      225 </v>
  <v type="int" >      209 </v>
  <v type="int" >      111 </v>
  <v type="int" >      141 </v>
  <v type="int" >       87 </v>
  <v type="int" >      181 </v>
  <v type="int" >       58 </v>
  <v type="int" >      274 </v>
  <v type="int" >        2 </v>
  <v type="int" >      151 </v>
  <v type="int" >      286 </v>
  <v type="int" >      125 </v>
  <v type="int" >      154 </v>
  <v type="int" >      212 </v>
  <v type="int" >       97 </v>
  <v type="int" >       27 </v>
  <v type="int" >      234 </v>
  <v type="int" >      173 </v>
  <v type="int" >       41 </v>
  <v type="int" >       39 </v>
  <v type="int" >      131 </v>
  <v type="int" >      148 </v>
  <v type="int" >       12 </v>
  <v type="int" >       72 </v>
  <v type="int" >      250 </v>
  <v type="int" >      276 </v>
  <v type="int" >       40 </v>
  <v type="int" >      146 </v>
  <v type="int" >      233 </v>
  <v type="int" >      259 </v>
  <v type="int" >      264 </v>
  <v type="int" >      216 </v>
  <v type="int" >       21 </v>
  <v type="int" >       13 </v>
  <v type="int" >      235 </v>
  <v type="int" >       68 </v>
  <v type="int" >       98 </v>
  <v type="int" >       16 </v>
  <v type="int" >       59 </v>
  <v type="int" >      177 </v>
  <v type="int" >       66 </v>
  <v type="int" >      285 </v>
  <v type="int" >        6 </v>
  <v type="int" >        7 </v>
  <v type="int" >       73 </v>
  <v type="int" >      271 </v>
  <v type="int" >      129 </v>
  <v type="int" >      150 </v>
  <v type="int" >      152 </v>
  <v type="int" >      188 </v>
  <v type="int" >      221 </v>
  <v type="int" >      174 </v>
  <v type="int" >      269 </v>
  <v type="int" >      103 </v>
  <v type="int" >      180 </v>
  <v type="int" >      201 </v>
  <v type="int" >       51 </v>
  <v type="int" >       82 </v>
  <v type="int" >      245 </v>
  <v type="int" >      280 </v>
  <v type="int" >      194 </v>
  <v type="int" >        3 </v>
  <v type="int" >      260 </v>
  <v type="int" >      228 </v>
  <v type="int" >      102 </v>
  <v type="int" >        4 </v>
  <v type="int" >      162 </v>
  <v type="int" >      167 </v>
  <v type="int" >       77 </v>
  <v type="int" >      287 </v>
  <v type="int" >      284 </v>
  <v type="int" >       36 </v>
  <v type="int" >      149 </v>
  <v type="int" >      106 </v>
  <v type="int" >       60 </v>
  <v type="int" >       67 </v>
  <v type="int" >       85 </v>
  <v type="int" >      114 </v>
  <v type="int" >       88 </v>
  <v type="int" >      199 </v>
  <v type="int" >      282 </v>
  <v type="int" >      288 </v>
  <v type="int" >      121 </v>
  <v type="int" >      127 </v>
  <v type="int" >      182 </v>
  <v type="int" >      283 </v>
  <v type="int" >      196 </v>
  <v type="int" >      113 </v>
  <v type="int" >      157 </v>
  <v type="int" >       49 </v>
  <v type="int" >       42 </v>
  <v type="int" >      135 </v>
  <v type="int" >       69 </v>
  <v type="int" >      200 </v>
  <v type="int" >       53 </v>
  <v type="int" >      210 </v>
  <v type="int" >      186 </v>
  <v type="int" >      213 </v>
  <v type="int" >       31 </v>
  <v type="int" >      159 </v>
  <v type="int" >       76 </v>
  <v type="int" >      140 </v>
  <v type="int" >      204 </v>
  <v type="int" >      202 </v>
  <v type="int" >      275 </v>
  <v type="int" >      110 </v>
  <v type="int" >      237 </v>
  <v type="int" >       84 </v>
  <v type="int" >      119 </v>
  <v type="int" >       80 </v>
  <v type="int" >        9 </v>
  <v type="int" >       20 </v>
  <v type="int" >       78 </v>
  <v type="int" >       54 </v>
  <v type="int" >       96 </v>
  <v type="int" >       64 </v>
  <v type="int" >      272 </v>
  <v type="int" >      101 </v>
  <v type="int" >      164 </v>
  <v type="int" >      195 </v>
  <v type="int" >       74 </v>
  <v type="int" >      163 </v>
  <v type="int" >      219 </v>
  <v type="int" >       65 </v>
  <v type="int" >      139 </v>
  <v type="int" >       56 </v>
  <v type="int" >       30 </v>
  <v type="int" >      165 </v>
  <v type="int" >      270 </v>
  <v type="int" >        8 </v>
  <v type="int" >      224 </v>
  <v type="int" >       75 </v>
  <v type="int" >       37 </v>
  <v type="int" >       47 </v>
 </varray>
 <kpoints>
  <generation param="Gamma">
   <v type="int" name="divisions">       4        4        1 </v>
   <v name="usershift">      0.00000000       0.00000000       0.00000000 </v>
   <v name="genvec1">      0.25000000       0.00000000       0.00000000 </v>
   <v name="genvec2">      0.00000000       0.25000000       0.00000000 </v>
   <v name="genvec3">      0.00000000       0.00000000       1.00000000 </v>
   <v name="shift">      0.00000000       0.00000000       0.00000000 </v>
  </generation>
  <varray name="kpointlist" >
   <v>       0.00000000       0.00000000       0.00000000 </v>
   <v>       0.25000000       0.00000000       0.00000000 </v>
   <v>       0.50000000       0.00000000       0.00000000 </v>
   <v>       0.00000000       0.25000000       0.00000000 </v>
   <v>       0.25000000       0.25000000       0.00000000 </v>
   <v>       0.50000000       0.25000000       0.00000000 </v>
   <v>      -0.25000000       0.25000000       0.00000000 </v>
   <v>       0.00000000       0.50000000       0.00000000 </v>
   <v>       0.25000000       0.50000000       0.00000000 </v>
   <v>       0.50000000       0.50000000       0.00000000 </v>
  </varray>
  <varray name="weights" >
   <v>       0.06250000 </v>
   <v>       0.12500000 </v>
   <v>       0.06250000 </v>
   <v>       0.12500000 </v>
   <v>       0.12500000 </v>
   <v>       0.12500000 </v>
   <v>       0.12500000 </v>
   <v>       0.06250000 </v>
   <v>       0.12500000 </v>
   <v>       0.06250000 </v>
  </varray>
 </kpoints>
 <parameters>
  <separator name="general" >
   <i type="string" name="SYSTEM">unknown system</i>
   <i type="logical" name="LCOMPAT"> F  </i>
  </separator>
  <separator name="electronic" >
   <i type="string" name="PREC">accura</i>
   <i name="ENMAX">    450.00000000</i>
   <i name="ENAUG">    838.43500000</i>
   <i name="EDIFF">      0.00000100</i>
   <i type="int" name="IALGO">    68</i>
   <i type="int" name="IWAVPR">    11</i>
   <i type="int" name="NBANDS">  1386</i>
   <i name="NELECT">   2297.00000000</i>
   <i type="int" name="TURBO">     0</i>
   <i type="int" name="IRESTART">     0</i>
   <i type="int" name="NREBOOT">     0</i>
   <i type="int" name="NMIN">     0</i>
   <i name="EREF">      0.00000000</i>
   <separator name="electronic smearing" >
    <i type="int" name="ISMEAR">     0</i>
    <i name="SIGMA">      0.15000000</i>
    <i name="KSPACING">      0.50000000</i>
    <i type="logical" name="KGAMMA"> T  </i>
   </separator>
   <separator name="electronic projectors" >
    <i type="logical" name="LREAL"> T  </i>
    <v name="ROPT">     -0.00025000     -0.00025000</v>
    <i type="int" name="LMAXPAW">  -100</i>
    <i type="int" name="LMAXMIX">     2</i>
    <i type="logical" name="NLSPLINE"> F  </i>
   </separator>
   <separator name="electronic startup" >
    <i type="int" name="ISTART">     0</i>
    <i type="int" name="ICHARG">     2</i>
    <i type="int" name="INIWAV">     1</i>
   </separator>
   <separator name="electronic spin" >
    <i type="int" name="ISPIN">     1</i>
    <i type="logical" name="LNONCOLLINEAR"> F  </i>
    <v name="MAGMOM">      1.00000000      1.00000000      1.00000000      1.00000000      1.00000000      1.00000000      1.00000000      1.00000000      1.00000000      1.00000000      1.00000000      1.00000000      1.00000000      1.00000000      1.00000000      1.00000000      1.00000000      1.00000000      1.00000000      1.00000000
      1.00000000      1.00000000      1.00000000      1.00000000      1.00000000      1.00000000      1.00000000      1.00000000      1.00000000      1.00000000      1.00000000      1.00000000      1.00000000      1.00000000      1.00000000      1.00000000      1.00000000      1.00000000      1.00000000      1.00000000
      1.00000000      1.00000000      1.00000000      1.00000000      1.00000000      1.00000000      1.00000000      1.00000000      1.00000000      1.00000000      1.00000000      1.00000000      1.00000000      1.00000000      1.00000000      1.00000000      1.00000000      1.00000000      1.00000000      1.00000000
      1.00000000      1.00000000      1.00000000      1.00000000      1.00000000      1.00000000      1.00000000      1.00000000      1.00000000      1.00000000      1.00000000      1.00000000      1.00000000      1.00000000      1.00000000      1.00000000      1.00000000      1.00000000      1.00000000      1.00000000
      1.00000000      1.00000000      1.00000000      1.00000000      1.00000000      1.00000000      1.00000000      1.00000000      1.00000000      1.00000000      1.00000000      1.00000000      1.00000000      1.00000000      1.00000000      1.00000000      1.00000000      1.00000000      1.00000000      1.00000000
      1.00000000      1.00000000      1.00000000      1.00000000      1.00000000      1.00000000      1.00000000      1.00000000      1.00000000      1.00000000      1.00000000      1.00000000      1.00000000      1.00000000      1.00000000      1.00000000      1.00000000      1.00000000      1.00000000      1.00000000
      1.00000000      1.00000000      1.00000000      1.00000000      1.00000000      1.00000000      1.00000000      1.00000000      1.00000000      1.00000000      1.00000000      1.00000000      1.00000000      1.00000000      1.00000000      1.00000000      1.00000000      1.00000000      1.00000000      1.00000000
      1.00000000      1.00000000      1.00000000      1.00000000      1.00000000      1.00000000      1.00000000      1.00000000      1.00000000      1.00000000      1.00000000      1.00000000      1.00000000      1.00000000      1.00000000      1.00000000      1.00000000      1.00000000      1.00000000      1.00000000
      1.00000000      1.00000000      1.00000000      1.00000000      1.00000000      1.00000000      1.00000000      1.00000000      1.00000000      1.00000000      1.00000000      1.00000000      1.00000000      1.00000000      1.00000000      1.00000000      1.00000000      1.00000000      1.00000000      1.00000000
      1.00000000      1.00000000      1.00000000      1.00000000      1.00000000      1.00000000      1.00000000      1.00000000      1.00000000      1.00000000      1.00000000      1.00000000      1.00000000      1.00000000      1.00000000      1.00000000      1.00000000      1.00000000      1.00000000      1.00000000
      1.00000000      1.00000000      1.00000000      1.00000000      1.00000000      1.00000000      1.00000000      1.00000000      1.00000000      1.00000000      1.00000000      1.00000000      1.00000000      1.00000000      1.00000000      1.00000000      1.00000000      1.00000000      1.00000000      1.00000000
      1.00000000      1.00000000      1.00000000      1.00000000      1.00000000      1.00000000      1.00000000      1.00000000      1.00000000      1.00000000      1.00000000      1.00000000      1.00000000      1.00000000      1.00000000      1.00000000      1.00000000      1.00000000      1.00000000      1.00000000
      1.00000000      1.00000000      1.00000000      1.00000000      1.00000000      1.00000000      1.00000000      1.00000000      1.00000000      1.00000000      1.00000000      1.00000000      1.00000000      1.00000000      1.00000000      1.00000000      1.00000000      1.00000000      1.00000000      1.00000000
      1.00000000      1.00000000      1.00000000      1.00000000      1.00000000      1.00000000      1.00000000      1.00000000      1.00000000      1.00000000      1.00000000      1.00000000      1.00000000      1.00000000      1.00000000      1.00000000      1.00000000      1.00000000      1.00000000      1.00000000
      1.00000000      1.00000000      1.00000000      1.00000000      1.00000000      1.00000000      1.00000000      1.00000000</v>
    <i name="NUPDOWN">     -1.00000000</i>
    <i type="logical" name="LSORBIT"> F  </i>
    <v name="SAXIS">      0.00000000      0.00000000      1.00000000</v>
    <i type="logical" name="LSPIRAL"> F  </i>
    <v name="QSPIRAL">      0.00000000      0.00000000      0.00000000</v>
    <i type="logical" name="LZEROZ"> F  </i>
   </separator>
   <separator name="electronic exchange-correlation" >
    <i type="logical" name="LASPH"> F  </i>
    <i type="logical" name="LMETAGGA"> F  </i>
   </separator>
   <separator name="electronic convergence" >
    <i type="int" name="NELM">   200</i>
    <i type="int" name="NELMDL">     0</i>
    <i type="int" name="NELMIN">     4</i>
    <i name="ENINI">    450.00000000</i>
    <separator name="electronic convergence detail" >
     <i type="logical" name="LDIAG"> T  </i>
     <i type="logical" name="LSUBROT"> F  </i>
     <i name="WEIMIN">      0.00100000</i>
     <i name="EBREAK">      0.00000000</i>
     <i name="DEPER">      0.30000000</i>
     <i type="int" name="NRMM">     4</i>
     <i name="TIME">      0.40000000</i>
    </separator>
   </separator>
   <separator name="electronic mixer" >
    <i name="AMIX">      0.40000000</i>
    <i name="BMIX">      1.00000000</i>
    <i name="AMIN">      0.10000000</i>
    <i name="AMIX_MAG">      1.60000000</i>
    <i name="BMIX_MAG">      1.00000000</i>
    <separator name="electronic mixer details" >
     <i type="int" name="IMIX">     4</i>
     <i type="logical" name="MIXFIRST"> F  </i>
     <i type="int" name="MAXMIX">   -45</i>
     <i name="WC">    100.00000000</i>
     <i type="int" name="INIMIX">     1</i>
     <i type="int" name="MIXPRE">     1</i>
     <i type="int" name="MREMOVE">     5</i>
    </separator>
   </separator>
   <separator name="electronic dipolcorrection" >
    <i type="logical" name="LDIPOL"> F  </i>
    <i type="logical" name="LMONO"> F  </i>
    <i type="int" name="IDIPOL">     0</i>
    <i name="EPSILON">      1.00000000</i>
    <v name="DIPOL">   -100.00000000   -100.00000000   -100.00000000</v>
    <i name="EFIELD">      0.00000000</i>
   </separator>
  </separator>
  <separator name="grids" >
   <i type="int" name="NGX">    70</i>
   <i type="int" name="NGY">    60</i>
   <i type="int" name="NGZ">   320</i>
   <i type="int" name="NGXF">   140</i>
   <i type="int" name="NGYF">   120</i>
   <i type="int" name="NGZF">   640</i>
   <i type="logical" name="ADDGRID"> F  </i>
  </separator>
  <separator name="ionic" >
   <i type="int" name="NSW">     5</i>
   <i type="int" name="IBRION">     2</i>
   <i type="int" name="MDALGO">     0</i>
   <i type="int" name="ISIF">     2</i>
   <i name="PSTRESS">      0.00000000</i>
   <i name="EDIFFG">      0.00001000</i>
   <i type="int" name="NFREE">     1</i>
   <i name="POTIM">      0.25000000</i>
   <i name="SMASS">     -3.00000000</i>
   <i name="SCALEE">      1.00000000</i>
  </separator>
  <separator name="ionic md" >
   <i name="TEBEG">      0.00010000</i>
   <i name="TEEND">      0.00010000</i>
   <i type="int" name="NBLOCK">     1</i>
   <i type="int" name="KBLOCK">     5</i>
   <i type="int" name="NPACO">   256</i>
   <i name="APACO">     16.00000000</i>
  </separator>
  <separator name="symmetry" >
   <i type="int" name="ISYM">     2</i>
   <i name="SYMPREC">      0.00001000</i>
  </separator>
  <separator name="dos" >
   <i type="int" name="LORBIT">     0</i>
   <v name="RWIGS">     -1.00000000     -1.00000000</v>
   <i type="int" name="NEDOS">   301</i>
   <i name="EMIN">     10.00000000</i>
   <i name="EMAX">    -10.00000000</i>
   <i name="EFERMI">      0.00000000</i>
  </separator>
  <separator name="writing" >
   <i type="int" name="NWRITE">     2</i>
   <i type="logical" name="LWAVE"> F  </i>
   <i type="logical" name="LDOWNSAMPLE"> F  </i>
   <i type="logical" name="LCHARG"> F  </i>
   <i type="logical" name="LPARD"> F  </i>
   <i type="logical" name="LVTOT"> F  </i>
   <i type="logical" name="LVHAR"> F  </i>
   <i type="logical" name="LELF"> F  </i>
   <i type="logical" name="LOPTICS"> F  </i>
   <v name="STM">      0.00000000      0.00000000      0.00000000      0.00000000      0.00000000      0.00000000      0.00000000</v>
  </separator>
  <separator name="performance" >
   <i type="int" name="NPAR">    14</i>
   <i type="int" name="NSIM">     4</i>
   <i type="int" name="NBLK">    -1</i>
   <i type="logical" name="LPLANE"> T  </i>
   <i type="logical" name="LSCALAPACK"> T  </i>
   <i type="logical" name="LSCAAWARE"> T  </i>
   <i type="logical" name="LSCALU"> F  </i>
   <i type="logical" name="LASYNC"> F  </i>
   <i type="logical" name="LORBITALREAL"> F  </i>
  </separator>
  <separator name="miscellaneous" >
   <i type="int" name="IDIOT">     3</i>
   <i type="int" name="ISPECIAL">     0</i>
   <i type="logical" name="LMUSIC"> F  </i>
   <v name="POMASS">     55.84700000     54.93800000</v>
   <v name="DARWINR">      0.00000000      0.00000000</v>
   <v name="DARWINV">      1.00000000      1.00000000</v>
   <i type="logical" name="LCORR"> T  </i>
  </separator>
  <i type="logical" name="GGA_COMPAT"> T  </i>
  <i type="logical" name="LBERRY"> F  </i>
  <i type="int" name="ICORELEVEL">     0</i>
  <i type="logical" name="LDAU"> F  </i>
  <i type="int" name="I_CONSTRAINED_M">     0</i>
  <separator name="electronic exchange-correlation" >
   <i type="string" name="GGA">--</i>
   <i type="int" name="VOSKOWN">     0</i>
   <i type="logical" name="LHFCALC"> F  </i>
   <i type="string" name="PRECFOCK"></i>
   <i type="logical" name="LSYMGRAD"> F  </i>
   <i type="logical" name="LHFONE"> F  </i>
   <i type="logical" name="LRHFCALC"> F  </i>
   <i type="logical" name="LTHOMAS"> F  </i>
   <i type="logical" name="LMODELHF"> F  </i>
   <i name="ENCUT4O">     -1.00000000</i>
   <i type="int" name="EXXOEP">     0</i>
   <i type="int" name="FOURORBIT">     0</i>
   <i name="AEXX">      0.00000000</i>
   <i name="HFALPHA">      0.00000000</i>
   <i name="MCALPHA">      0.00000000</i>
   <i name="ALDAX">      1.00000000</i>
   <i name="AGGAX">      1.00000000</i>
   <i name="ALDAC">      1.00000000</i>
   <i name="AGGAC">      1.00000000</i>
   <i type="int" name="NKREDX">     1</i>
   <i type="int" name="NKREDY">     1</i>
   <i type="int" name="NKREDZ">     1</i>
   <i type="logical" name="SHIFTRED"> F  </i>
   <i type="logical" name="ODDONLY"> F  </i>
   <i type="logical" name="EVENONLY"> F  </i>
   <i type="int" name="LMAXFOCK">     0</i>
   <i type="int" name="NMAXFOCKAE">     0</i>
   <i type="logical" name="LFOCKAEDFT"> F  </i>
   <i name="HFSCREEN">      0.00000000</i>
   <i name="HFSCREENC">      0.00000000</i>
   <i type="int" name="NBANDSGWLOW">     0</i>
  </separator>
  <separator name="vdW DFT" >
   <i type="logical" name="LUSE_VDW"> F  </i>
   <i name="Zab_VDW">     -0.84910000</i>
   <i name="PARAM1">      0.12340000</i>
   <i name="PARAM2">      1.00000000</i>
   <i name="PARAM3">      0.00000000</i>
  </separator>
  <separator name="model GW" >
   <i type="int" name="MODEL_GW">     0</i>
   <i name="MODEL_EPS0">      7.68123389</i>
   <i name="MODEL_ALPHA">      1.00000000</i>
  </separator>
  <separator name="linear response parameters" >
   <i type="logical" name="LEPSILON"> F  </i>
   <i type="logical" name="LRPA"> F  </i>
   <i type="logical" name="LNABLA"> F  </i>
   <i type="logical" name="LVEL"> F  </i>
   <i type="int" name="KINTER">     0</i>
   <i name="CSHIFT">      0.10000000</i>
   <i name="OMEGAMAX">     -1.00000000</i>
   <i name="DEG_THRESHOLD">      0.00200000</i>
   <i name="RTIME">     -0.10000000</i>
   <i name="WPLASMAI">      0.00000000</i>
   <v name="DFIELD">      0.00000000      0.00000000      0.00000000</v>
   <v name="WPLASMA">      0.00000000      0.00000000      0.00000000      0.00000000      0.00000000      0.00000000      0.00000000      0.00000000      0.00000000</v>
  </separator>
  <separator name="orbital magnetization" >
   <i type="logical" name="NUCIND"> F  </i>
   <v name="MAGPOS">      0.00000000      0.00000000      0.00000000</v>
   <i type="logical" name="LNICSALL"> T  </i>
   <i type="logical" name="ORBITALMAG"> F  </i>
   <i type="logical" name="LMAGBLOCH"> F  </i>
   <i type="logical" name="LCHIMAG"> F  </i>
   <i type="logical" name="LGAUGE"> T  </i>
   <i type="int" name="MAGATOM">     0</i>
   <v name="MAGDIPOL">      0.00000000      0.00000000      0.00000000</v>
   <v name="AVECCONST">      0.00000000      0.00000000      0.00000000</v>
  </separator>
  <separator name="response functions" >
   <i type="logical" name="LADDER"> F  </i>
   <i type="logical" name="LRPAFORCE"> F  </i>
   <i type="logical" name="LFXC"> F  </i>
   <i type="logical" name="LHARTREE"> T  </i>
   <i type="int" name="IBSE">     0</i>
   <v type="int" name="KPOINT">    -1     0     0     0</v>
   <i type="logical" name="LTCTE"> F  </i>
   <i type="logical" name="LTETE"> F  </i>
   <i type="logical" name="LTRIPLET"> F  </i>
   <i type="logical" name="LFXCEPS"> F  </i>
   <i type="logical" name="LFXHEG"> F  </i>
   <i type="int" name="NATURALO">     2</i>
   <i type="logical" name="L2ORDER"> F  </i>
   <i type="logical" name="LMP2LT"> F  </i>
   <i type="logical" name="LUSEW"> F  </i>
   <i name="ENCUTGW">     -2.00000000</i>
   <i name="ENCUTGWSOFT">     -2.00000000</i>
   <i name="ENCUTLF">     -1.00000000</i>
   <i type="int" name="LMAXMP2">    -1</i>
   <i name="SCISSOR">      0.00000000</i>
   <i type="int" name="NOMEGA">     0</i>
   <i type="int" name="NOMEGAR">     0</i>
   <i type="int" name="NBANDSGW">    -1</i>
   <i type="int" name="NBANDSO">    -1</i>
   <i type="int" name="NBANDSV">    -1</i>
   <i type="int" name="NELM">   200</i>
   <i type="int" name="NELMHF">     1</i>
   <i type="int" name="DIM">     3</i>
   <i type="int" name="ANTIRES">     0</i>
   <i name="OMEGAMAX">    -30.00000000</i>
   <i name="OMEGAMIN">    -30.00000000</i>
   <i name="OMEGATL">   -200.00000000</i>
   <i type="int" name="OMEGAGRID">   140</i>
   <i name="CSHIFT">     -0.10000000</i>
   <i type="logical" name="SELFENERGY"> F  </i>
   <i type="logical" name="LSPECTRAL"> F  </i>
   <i type="logical" name="LSPECTRALGW"> F  </i>
   <i type="logical" name="LSINGLES"> F  </i>
   <i type="logical" name="LFERMIGW"> F  </i>
   <i type="logical" name="ODDONLYGW"> F  </i>
   <i type="logical" name="EVENONLYGW"> F  </i>
   <i type="int" name="NKREDLFX">     1</i>
   <i type="int" name="NKREDLFY">     1</i>
   <i type="int" name="NKREDLFZ">     1</i>
   <i type="int" name="MAXMEM">  2800</i>
   <i type="int" name="TELESCOPE">     0</i>
   <i type="int" name="TAUPAR">     1</i>
   <i type="int" name="OMEGAPAR">    -1</i>
   <i name="LAMBDA">      1.00000000</i>
  </separator>
  <separator name="External order field" >
   <i name="OFIELD_KAPPA">      0.00000000</i>
   <v name="OFIELD_K">      0.00000000      0.00000000      0.00000000</v>
   <i name="OFIELD_Q6_NEAR">      0.00000000</i>
   <i name="OFIELD_Q6_FAR">      0.00000000</i>
   <i name="OFIELD_A">      0.00000000</i>
  </separator>
 </parameters>
 <atominfo>
  <atoms>     288 </atoms>
  <types>       2 </types>
  <array name="atoms" >
   <dimension dim="1">ion</dimension>
   <field type="string">element</field>
   <field type="int">atomtype</field>
   <set>
    <rc><c>Fe</c><c>   1</c></rc>
    <rc><c>Fe</c><c>   1</c></rc>
    <rc><c>Fe</c><c>   1</c></rc>
    <rc><c>Fe</c><c>   1</c></rc>
    <rc><c>Fe</c><c>   1</c></rc>
    <rc><c>Fe</c><c>   1</c></rc>
    <rc><c>Fe</c><c>   1</c></rc>
    <rc><c>Fe</c><c>   1</c></rc>
    <rc><c>Fe</c><c>   1</c></rc>
    <rc><c>Fe</c><c>   1</c></rc>
    <rc><c>Fe</c><c>   1</c></rc>
    <rc><c>Fe</c><c>   1</c></rc>
    <rc><c>Fe</c><c>   1</c></rc>
    <rc><c>Fe</c><c>   1</c></rc>
    <rc><c>Fe</c><c>   1</c></rc>
    <rc><c>Fe</c><c>   1</c></rc>
    <rc><c>Fe</c><c>   1</c></rc>
    <rc><c>Fe</c><c>   1</c></rc>
    <rc><c>Fe</c><c>   1</c></rc>
    <rc><c>Fe</c><c>   1</c></rc>
    <rc><c>Fe</c><c>   1</c></rc>
    <rc><c>Fe</c><c>   1</c></rc>
    <rc><c>Fe</c><c>   1</c></rc>
    <rc><c>Fe</c><c>   1</c></rc>
    <rc><c>Fe</c><c>   1</c></rc>
    <rc><c>Fe</c><c>   1</c></rc>
    <rc><c>Fe</c><c>   1</c></rc>
    <rc><c>Fe</c><c>   1</c></rc>
    <rc><c>Fe</c><c>   1</c></rc>
    <rc><c>Fe</c><c>   1</c></rc>
    <rc><c>Fe</c><c>   1</c></rc>
    <rc><c>Fe</c><c>   1</c></rc>
    <rc><c>Fe</c><c>   1</c></rc>
    <rc><c>Fe</c><c>   1</c></rc>
    <rc><c>Fe</c><c>   1</c></rc>
    <rc><c>Fe</c><c>   1</c></rc>
    <rc><c>Fe</c><c>   1</c></rc>
    <rc><c>Fe</c><c>   1</c></rc>
    <rc><c>Fe</c><c>   1</c></rc>
    <rc><c>Fe</c><c>   1</c></rc>
    <rc><c>Fe</c><c>   1</c></rc>
    <rc><c>Fe</c><c>   1</c></rc>
    <rc><c>Fe</c><c>   1</c></rc>
    <rc><c>Fe</c><c>   1</c></rc>
    <rc><c>Fe</c><c>   1</c></rc>
    <rc><c>Fe</c><c>   1</c></rc>
    <rc><c>Fe</c><c>   1</c></rc>
    <rc><c>Fe</c><c>   1</c></rc>
    <rc><c>Fe</c><c>   1</c></rc>
    <rc><c>Fe</c><c>   1</c></rc>
    <rc><c>Fe</c><c>   1</c></rc>
    <rc><c>Fe</c><c>   1</c></rc>
    <rc><c>Fe</c><c>   1</c></rc>
    <rc><c>Fe</c><c>   1</c></rc>
    <rc><c>Fe</c><c>   1</c></rc>
    <rc><c>Fe</c><c>   1</c></rc>
    <rc><c>Fe</c><c>   1</c></rc>
    <rc><c>Fe</c><c>   1</c></rc>
    <rc><c>Fe</c><c>   1</c></rc>
    <rc><c>Fe</c><c>   1</c></rc>
    <rc><c>Fe</c><c>   1</c></rc>
    <rc><c>Fe</c><c>   1</c></rc>
    <rc><c>Fe</c><c>   1</c></rc>
    <rc><c>Fe</c><c>   1</c></rc>
    <rc><c>Fe</c><c>   1</c></rc>
    <rc><c>Fe</c><c>   1</c></rc>
    <rc><c>Fe</c><c>   1</c></rc>
    <rc><c>Fe</c><c>   1</c></rc>
    <rc><c>Fe</c><c>   1</c></rc>
    <rc><c>Fe</c><c>   1</c></rc>
    <rc><c>Fe</c><c>   1</c></rc>
    <rc><c>Fe</c><c>   1</c></rc>
    <rc><c>Fe</c><c>   1</c></rc>
    <rc><c>Fe</c><c>   1</c></rc>
    <rc><c>Fe</c><c>   1</c></rc>
    <rc><c>Fe</c><c>   1</c></rc>
    <rc><c>Fe</c><c>   1</c></rc>
    <rc><c>Fe</c><c>   1</c></rc>
    <rc><c>Fe</c><c>   1</c></rc>
    <rc><c>Fe</c><c>   1</c></rc>
    <rc><c>Fe</c><c>   1</c></rc>
    <rc><c>Fe</c><c>   1</c></rc>
    <rc><c>Fe</c><c>   1</c></rc>
    <rc><c>Fe</c><c>   1</c></rc>
    <rc><c>Fe</c><c>   1</c></rc>
    <rc><c>Fe</c><c>   1</c></rc>
    <rc><c>Fe</c><c>   1</c></rc>
    <rc><c>Fe</c><c>   1</c></rc>
    <rc><c>Fe</c><c>   1</c></rc>
    <rc><c>Fe</c><c>   1</c></rc>
    <rc><c>Fe</c><c>   1</c></rc>
    <rc><c>Fe</c><c>   1</c></rc>
    <rc><c>Fe</c><c>   1</c></rc>
    <rc><c>Fe</c><c>   1</c></rc>
    <rc><c>Fe</c><c>   1</c></rc>
    <rc><c>Fe</c><c>   1</c></rc>
    <rc><c>Fe</c><c>   1</c></rc>
    <rc><c>Fe</c><c>   1</c></rc>
    <rc><c>Fe</c><c>   1</c></rc>
    <rc><c>Fe</c><c>   1</c></rc>
    <rc><c>Fe</c><c>   1</c></rc>
    <rc><c>Fe</c><c>   1</c></rc>
    <rc><c>Fe</c><c>   1</c></rc>
    <rc><c>Fe</c><c>   1</c></rc>
    <rc><c>Fe</c><c>   1</c></rc>
    <rc><c>Fe</c><c>   1</c></rc>
    <rc><c>Fe</c><c>   1</c></rc>
    <rc><c>Fe</c><c>   1</c></rc>
    <rc><c>Fe</c><c>   1</c></rc>
    <rc><c>Fe</c><c>   1</c></rc>
    <rc><c>Fe</c><c>   1</c></rc>
    <rc><c>Fe</c><c>   1</c></rc>
    <rc><c>Fe</c><c>   1</c></rc>
    <rc><c>Fe</c><c>   1</c></rc>
    <rc><c>Fe</c><c>   1</c></rc>
    <rc><c>Fe</c><c>   1</c></rc>
    <rc><c>Fe</c><c>   1</c></rc>
    <rc><c>Fe</c><c>   1</c></rc>
    <rc><c>Fe</c><c>   1</c></rc>
    <rc><c>Fe</c><c>   1</c></rc>
    <rc><c>Fe</c><c>   1</c></rc>
    <rc><c>Fe</c><c>   1</c></rc>
    <rc><c>Fe</c><c>   1</c></rc>
    <rc><c>Fe</c><c>   1</c></rc>
    <rc><c>Fe</c><c>   1</c></rc>
    <rc><c>Fe</c><c>   1</c></rc>
    <rc><c>Fe</c><c>   1</c></rc>
    <rc><c>Fe</c><c>   1</c></rc>
    <rc><c>Fe</c><c>   1</c></rc>
    <rc><c>Fe</c><c>   1</c></rc>
    <rc><c>Fe</c><c>   1</c></rc>
    <rc><c>Fe</c><c>   1</c></rc>
    <rc><c>Fe</c><c>   1</c></rc>
    <rc><c>Fe</c><c>   1</c></rc>
    <rc><c>Fe</c><c>   1</c></rc>
    <rc><c>Fe</c><c>   1</c></rc>
    <rc><c>Fe</c><c>   1</c></rc>
    <rc><c>Fe</c><c>   1</c></rc>
    <rc><c>Fe</c><c>   1</c></rc>
    <rc><c>Fe</c><c>   1</c></rc>
    <rc><c>Fe</c><c>   1</c></rc>
    <rc><c>Fe</c><c>   1</c></rc>
    <rc><c>Fe</c><c>   1</c></rc>
    <rc><c>Fe</c><c>   1</c></rc>
    <rc><c>Fe</c><c>   1</c></rc>
    <rc><c>Fe</c><c>   1</c></rc>
    <rc><c>Fe</c><c>   1</c></rc>
    <rc><c>Fe</c><c>   1</c></rc>
    <rc><c>Fe</c><c>   1</c></rc>
    <rc><c>Fe</c><c>   1</c></rc>
    <rc><c>Fe</c><c>   1</c></rc>
    <rc><c>Fe</c><c>   1</c></rc>
    <rc><c>Fe</c><c>   1</c></rc>
    <rc><c>Fe</c><c>   1</c></rc>
    <rc><c>Fe</c><c>   1</c></rc>
    <rc><c>Fe</c><c>   1</c></rc>
    <rc><c>Fe</c><c>   1</c></rc>
    <rc><c>Fe</c><c>   1</c></rc>
    <rc><c>Fe</c><c>   1</c></rc>
    <rc><c>Fe</c><c>   1</c></rc>
    <rc><c>Fe</c><c>   1</c></rc>
    <rc><c>Fe</c><c>   1</c></rc>
    <rc><c>Fe</c><c>   1</c></rc>
    <rc><c>Fe</c><c>   1</c></rc>
    <rc><c>Fe</c><c>   1</c></rc>
    <rc><c>Fe</c><c>   1</c></rc>
    <rc><c>Fe</c><c>   1</c></rc>
    <rc><c>Fe</c><c>   1</c></rc>
    <rc><c>Fe</c><c>   1</c></rc>
    <rc><c>Fe</c><c>   1</c></rc>
    <rc><c>Fe</c><c>   1</c></rc>
    <rc><c>Fe</c><c>   1</c></rc>
    <rc><c>Fe</c><c>   1</c></rc>
    <rc><c>Fe</c><c>   1</c></rc>
    <rc><c>Fe</c><c>   1</c></rc>
    <rc><c>Fe</c><c>   1</c></rc>
    <rc><c>Fe</c><c>   1</c></rc>
    <rc><c>Fe</c><c>   1</c></rc>
    <rc><c>Fe</c><c>   1</c></rc>
    <rc><c>Fe</c><c>   1</c></rc>
    <rc><c>Fe</c><c>   1</c></rc>
    <rc><c>Fe</c><c>   1</c></rc>
    <rc><c>Fe</c><c>   1</c></rc>
    <rc><c>Fe</c><c>   1</c></rc>
    <rc><c>Fe</c><c>   1</c></rc>
    <rc><c>Fe</c><c>   1</c></rc>
    <rc><c>Fe</c><c>   1</c></rc>
    <rc><c>Fe</c><c>   1</c></rc>
    <rc><c>Fe</c><c>   1</c></rc>
    <rc><c>Fe</c><c>   1</c></rc>
    <rc><c>Fe</c><c>   1</c></rc>
    <rc><c>Fe</c><c>   1</c></rc>
    <rc><c>Fe</c><c>   1</c></rc>
    <rc><c>Fe</c><c>   1</c></rc>
    <rc><c>Fe</c><c>   1</c></rc>
    <rc><c>Fe</c><c>   1</c></rc>
    <rc><c>Fe</c><c>   1</c></rc>
    <rc><c>Fe</c><c>   1</c></rc>
    <rc><c>Fe</c><c>   1</c></rc>
    <rc><c>Fe</c><c>   1</c></rc>
    <rc><c>Fe</c><c>   1</c></rc>
    <rc><c>Fe</c><c>   1</c></rc>
    <rc><c>Fe</c><c>   1</c></rc>
    <rc><c>Fe</c><c>   1</c></rc>
    <rc><c>Fe</c><c>   1</c></rc>
    <rc><c>Fe</c><c>   1</c></rc>
    <rc><c>Fe</c><c>   1</c></rc>
    <rc><c>Fe</c><c>   1</c></rc>
    <rc><c>Fe</c><c>   1</c></rc>
    <rc><c>Fe</c><c>   1</c></rc>
    <rc><c>Fe</c><c>   1</c></rc>
    <rc><c>Fe</c><c>   1</c></rc>
    <rc><c>Fe</c><c>   1</c></rc>
    <rc><c>Fe</c><c>   1</c></rc>
    <rc><c>Fe</c><c>   1</c></rc>
    <rc><c>Fe</c><c>   1</c></rc>
    <rc><c>Fe</c><c>   1</c></rc>
    <rc><c>Fe</c><c>   1</c></rc>
    <rc><c>Fe</c><c>   1</c></rc>
    <rc><c>Fe</c><c>   1</c></rc>
    <rc><c>Fe</c><c>   1</c></rc>
    <rc><c>Fe</c><c>   1</c></rc>
    <rc><c>Fe</c><c>   1</c></rc>
    <rc><c>Fe</c><c>   1</c></rc>
    <rc><c>Fe</c><c>   1</c></rc>
    <rc><c>Fe</c><c>   1</c></rc>
    <rc><c>Fe</c><c>   1</c></rc>
    <rc><c>Fe</c><c>   1</c></rc>
    <rc><c>Fe</c><c>   1</c></rc>
    <rc><c>Fe</c><c>   1</c></rc>
    <rc><c>Fe</c><c>   1</c></rc>
    <rc><c>Fe</c><c>   1</c></rc>
    <rc><c>Fe</c><c>   1</c></rc>
    <rc><c>Fe</c><c>   1</c></rc>
    <rc><c>Fe</c><c>   1</c></rc>
    <rc><c>Fe</c><c>   1</c></rc>
    <rc><c>Fe</c><c>   1</c></rc>
    <rc><c>Fe</c><c>   1</c></rc>
    <rc><c>Fe</c><c>   1</c></rc>
    <rc><c>Fe</c><c>   1</c></rc>
    <rc><c>Fe</c><c>   1</c></rc>
    <rc><c>Fe</c><c>   1</c></rc>
    <rc><c>Fe</c><c>   1</c></rc>
    <rc><c>Fe</c><c>   1</c></rc>
    <rc><c>Fe</c><c>   1</c></rc>
    <rc><c>Fe</c><c>   1</c></rc>
    <rc><c>Fe</c><c>   1</c></rc>
    <rc><c>Fe</c><c>   1</c></rc>
    <rc><c>Fe</c><c>   1</c></rc>
    <rc><c>Fe</c><c>   1</c></rc>
    <rc><c>Fe</c><c>   1</c></rc>
    <rc><c>Fe</c><c>   1</c></rc>
    <rc><c>Fe</c><c>   1</c></rc>
    <rc><c>Fe</c><c>   1</c></rc>
    <rc><c>Fe</c><c>   1</c></rc>
    <rc><c>Fe</c><c>   1</c></rc>
    <rc><c>Fe</c><c>   1</c></rc>
    <rc><c>Fe</c><c>   1</c></rc>
    <rc><c>Fe</c><c>   1</c></rc>
    <rc><c>Fe</c><c>   1</c></rc>
    <rc><c>Fe</c><c>   1</c></rc>
    <rc><c>Fe</c><c>   1</c></rc>
    <rc><c>Fe</c><c>   1</c></rc>
    <rc><c>Fe</c><c>   1</c></rc>
    <rc><c>Fe</c><c>   1</c></rc>
    <rc><c>Fe</c><c>   1</c></rc>
    <rc><c>Fe</c><c>   1</c></rc>
    <rc><c>Fe</c><c>   1</c></rc>
    <rc><c>Fe</c><c>   1</c></rc>
    <rc><c>Fe</c><c>   1</c></rc>
    <rc><c>Fe</c><c>   1</c></rc>
    <rc><c>Fe</c><c>   1</c></rc>
    <rc><c>Fe</c><c>   1</c></rc>
    <rc><c>Fe</c><c>   1</c></rc>
    <rc><c>Fe</c><c>   1</c></rc>
    <rc><c>Fe</c><c>   1</c></rc>
    <rc><c>Fe</c><c>   1</c></rc>
    <rc><c>Fe</c><c>   1</c></rc>
    <rc><c>Fe</c><c>   1</c></rc>
    <rc><c>Fe</c><c>   1</c></rc>
    <rc><c>Fe</c><c>   1</c></rc>
    <rc><c>Mn</c><c>   2</c></rc>
    <rc><c>Mn</c><c>   2</c></rc>
    <rc><c>Mn</c><c>   2</c></rc>
    <rc><c>Mn</c><c>   2</c></rc>
    <rc><c>Mn</c><c>   2</c></rc>
    <rc><c>Mn</c><c>   2</c></rc>
    <rc><c>Mn</c><c>   2</c></rc>
   </set>
  </array>
  <array name="atomtypes" >
   <dimension dim="1">type</dimension>
   <field type="int">atomspertype</field>
   <field type="string">element</field>
   <field>mass</field>
   <field>valence</field>
   <field type="string">pseudopotential</field>
   <set>
    <rc><c> 281</c><c>Fe</c><c>     55.84700000</c><c>      8.00000000</c><c>  PAW_PBE Fe_GW 31Mar2010               </c></rc>
    <rc><c>   7</c><c>Mn</c><c>     54.93800000</c><c>      7.00000000</c><c>  PAW_PBE Mn_GW 31Mar2010               </c></rc>
   </set>
  </array>
 </atominfo>
 <structure name="initialpos" >
  <crystal>
   <varray name="basis" >
    <v>       9.72667804       0.00000000       0.00000000 </v>
    <v>       0.00000000       8.42355028       0.00000000 </v>
    <v>       0.00000000       0.00000000      45.00000000 </v>
   </varray>
   <i name="volume">   3686.99226691 </i>
   <varray name="rec_basis" >
    <v>       0.10281002       0.00000000       0.00000000 </v>
    <v>       0.00000000       0.11871479       0.00000000 </v>
    <v>       0.00000000       0.00000000       0.02222222 </v>
   </varray>
  </crystal>
  <varray name="positions" >
   <v>       0.06158864       0.70932448       0.21187982 </v>
   <v>       0.31374438       0.71859501       0.87602621 </v>
   <v>       0.68741942       0.95854302       0.61072191 </v>
   <v>       0.43883847       0.45932538       0.61102196 </v>
   <v>       0.43801043       0.29237915       0.25591572 </v>
   <v>       0.06164794       0.38342999       0.83318888 </v>
   <v>       0.31054767       0.88309331       0.83281208 </v>
   <v>       0.44411145       0.62584361       0.69997176 </v>
   <v>       0.05955374       0.20963959       0.74459366 </v>
   <v>       0.18555420       0.45772772       0.21156331 </v>
   <v>       0.56409101       0.20738296       0.47746052 </v>
   <v>       0.06255739       0.87437550       0.56664973 </v>
   <v>       0.56253723       0.21805892       0.87575516 </v>
   <v>       0.81199953       0.53913037       0.12463070 </v>
   <v>       0.43527483       0.95770539       0.21150231 </v>
   <v>       0.56289400       0.37379960       0.56651079 </v>
   <v>       0.81249162       0.04179716       0.38890451 </v>
   <v>       0.68651614       0.79109259       0.52207495 </v>
   <v>       0.43937084       0.45717016       0.47751197 </v>
   <v>       0.43497498       0.96034285       0.74448666 </v>
   <v>       0.43804289       0.62398999       0.56651826 </v>
   <v>       0.06248814       0.53949108       0.12461778 </v>
   <v>       0.31139025       0.03809876       0.12462692 </v>
   <v>       0.68827115       0.95487121       0.34469378 </v>
   <v>       0.68656909       0.78300913       0.12449419 </v>
   <v>       0.05938336       0.37543549       0.30007037 </v>
   <v>       0.68709276       0.45739869       0.87590727 </v>
   <v>       0.43506088       0.45793145       0.21154439 </v>
   <v>       0.81206427       0.37558153       0.43340240 </v>
   <v>       0.81909330       0.37519979       0.69963176 </v>
   <v>       0.56051402       0.54341286       0.65523963 </v>
   <v>       0.93722659       0.12565996       0.43346718 </v>
   <v>       0.56335654       0.54123851       0.25573914 </v>
   <v>       0.68822384       0.45525813       0.34457065 </v>
   <v>       0.18726855       0.61655062       0.16687516 </v>
   <v>       0.18903239       0.79155397       0.78840633 </v>
   <v>       0.44510428       0.12600008       0.69983746 </v>
   <v>       0.93448536       0.62570338       0.30003326 </v>
   <v>       0.31385380       0.21728183       0.87561469 </v>
   <v>       0.31253992       0.87411664       0.56664177 </v>
   <v>       0.81342804       0.21675809       0.87589711 </v>
   <v>       0.81088736       0.54349157       0.65544604 </v>
   <v>       0.56197541       0.53986908       0.12451755 </v>
   <v>       0.56264227       0.86593306       0.16679539 </v>
   <v>       0.18770806       0.29177626       0.25588006 </v>
   <v>       0.81073347       0.87480409       0.43313353 </v>
   <v>       0.56941100       0.37544893       0.69972690 </v>
   <v>       0.06173613       0.03829507       0.12456251 </v>
   <v>       0.30980403       0.54395325       0.65509924 </v>
   <v>       0.56459061       0.20552760       0.34475785 </v>
   <v>       0.18832331       0.95800763       0.61081309 </v>
   <v>       0.30944812       0.37560598       0.30002502 </v>
   <v>       0.43588765       0.79436238       0.65533269 </v>
   <v>       0.68377216       0.46072845       0.74400511 </v>
   <v>       0.06277972       0.36645893       0.16682057 </v>
   <v>       0.69527124       0.62508248       0.69958182 </v>
   <v>       0.31255588       0.54186125       0.38884568 </v>
   <v>       0.06655108       0.71811133       0.87555396 </v>
   <v>       0.93437029       0.63523677       0.83401299 </v>
   <v>       0.31557050       0.54178257       0.78855803 </v>
   <v>       0.31092302       0.20866971       0.21170228 </v>
   <v>       0.06457521       0.70756913       0.47765283 </v>
   <v>       0.56107393       0.20895984       0.21172099 </v>
   <v>       0.30794793       0.21009902       0.74411210 </v>
   <v>       0.06957469       0.37537162       0.70001777 </v>
   <v>       0.18586651       0.63264422       0.83276121 </v>
   <v>       0.06517942       0.04186872       0.78826719 </v>
   <v>       0.43791677       0.12471608       0.56649120 </v>
   <v>       0.93484459       0.29378070       0.65511653 </v>
   <v>       0.81127774       0.20920902       0.21181104 </v>
   <v>       0.93564254       0.95766495       0.21149217 </v>
   <v>       0.93737963       0.62414968       0.56666631 </v>
   <v>       0.80994836       0.38447901       0.83381765 </v>
   <v>       0.19526891       0.62521527       0.69967707 </v>
   <v>       0.57042026       0.87504884       0.69991063 </v>
   <v>       0.68454878       0.29401241       0.65533960 </v>
   <v>       0.31285209       0.20827004       0.61106912 </v>
   <v>       0.43376755       0.46179787       0.74411920 </v>
   <v>       0.43731570       0.79182846       0.38894842 </v>
   <v>       0.68606404       0.96176273       0.74473400 </v>
   <v>       0.81152596       0.70955828       0.21177450 </v>
   <v>       0.81375245       0.70810845       0.61099550 </v>
   <v>       0.43646360       0.78276709       0.12440153 </v>
   <v>       0.30903839       0.70984646       0.74379971 </v>
   <v>       0.31677837       0.04073797       0.78861547 </v>
   <v>       0.81255807       0.54169581       0.38882970 </v>
   <v>       0.68539330       0.29143310       0.52247584 </v>
   <v>       0.68932712       0.79100204       0.78833147 </v>
   <v>       0.18835976       0.79159810       0.25562564 </v>
   <v>       0.68725551       0.11646497       0.16696280 </v>
   <v>       0.68931816       0.95789792       0.47755072 </v>
   <v>       0.93793463       0.95536904       0.34460582 </v>
   <v>       0.81219354       0.04037169       0.52220365 </v>
   <v>       0.68706125       0.62460392       0.43323511 </v>
   <v>       0.43802101       0.45526573       0.34471419 </v>
   <v>       0.80860392       0.20962408       0.74488996 </v>
   <v>       0.43641020       0.95970803       0.87590132 </v>
   <v>       0.56251054       0.87478834       0.56676368 </v>
   <v>       0.81182167       0.03882752       0.12453178 </v>
   <v>       0.43465024       0.62575486       0.30014451 </v>
   <v>       0.56031079       0.21063232       0.74473851 </v>
   <v>       0.68770772       0.45807262       0.61101075 </v>
   <v>       0.56032271       0.38282870       0.83287946 </v>
   <v>       0.80900897       0.37609134       0.30010152 </v>
   <v>       0.18742286       0.29198608       0.38881053 </v>
   <v>       0.81574672       0.54295478       0.78885972 </v>
   <v>       0.18691317       0.79074593       0.52215726 </v>
   <v>       0.30900568       0.87533506       0.30008150 </v>
   <v>       0.18481249       0.95778825       0.21138276 </v>
   <v>       0.18332596       0.46002005       0.74404969 </v>
   <v>       0.43552745       0.29141794       0.52240381 </v>
   <v>       0.06375467       0.70504921       0.34453053 </v>
   <v>       0.18587139       0.79524952       0.65548556 </v>
   <v>       0.43988584       0.79183377       0.78860457 </v>
   <v>       0.68716493       0.12551574       0.43339096 </v>
   <v>       0.93672284       0.79119145       0.52226106 </v>
   <v>       0.68733781       0.61618192       0.16707264 </v>
   <v>       0.81341027       0.70489709       0.34456986 </v>
   <v>       0.93316030       0.45947684       0.74386301 </v>
   <v>       0.18770439       0.45499629       0.34469175 </v>
   <v>       0.56552872       0.54205705       0.78856997 </v>
   <v>       0.56311423       0.36629871       0.16689957 </v>
   <v>       0.56393853       0.70526676       0.34456604 </v>
   <v>       0.55937155       0.37559262       0.30016583 </v>
   <v>       0.18853483       0.46035819       0.87571283 </v>
   <v>       0.18716804       0.11649093       0.16700405 </v>
   <v>       0.43902546       0.29199586       0.78844490 </v>
   <v>       0.68824257       0.79161261       0.25557257 </v>
   <v>       0.93540474       0.13367176       0.83404981 </v>
   <v>       0.43933926       0.95788545       0.47748234 </v>
   <v>       0.56093491       0.71765549       0.87579503 </v>
   <v>       0.18944379       0.45769720       0.47750178 </v>
   <v>       0.93640639       0.28295701       0.12451072 </v>
   <v>       0.31242241       0.04206697       0.38895169 </v>
   <v>       0.06041926       0.04400505       0.65551557 </v>
   <v>       0.56211968       0.37530404       0.43345649 </v>
   <v>       0.93695712       0.62542074       0.43331567 </v>
   <v>       0.31271032       0.36577080       0.16689541 </v>
   <v>       0.94400134       0.12341729       0.69934765 </v>
   <v>       0.56028731       0.04423772       0.65530878 </v>
   <v>       0.56082027       0.54177212       0.52250121 </v>
   <v>       0.18479586       0.12530716       0.29992919 </v>
   <v>       0.43700062       0.11661561       0.16700163 </v>
   <v>       0.68437807       0.62599772       0.30002350 </v>
   <v>       0.93491293       0.12522549       0.29986255 </v>
   <v>       0.81257439       0.37401933       0.56645953 </v>
   <v>       0.05927822       0.87568540       0.30014139 </v>
   <v>       0.18768351       0.62423005       0.56653599 </v>
   <v>       0.93908278       0.79164973       0.78833461 </v>
   <v>       0.31077870       0.38265452       0.83318382 </v>
   <v>       0.93700309       0.45857441       0.87580583 </v>
   <v>       0.43568799       0.63309844       0.83289832 </v>
   <v>       0.06436804       0.20518143       0.34479630 </v>
   <v>       0.18883715       0.95911171       0.87565581 </v>
   <v>       0.93678989       0.78319782       0.12443782 </v>
   <v>       0.68765282       0.79164711       0.38905179 </v>
   <v>       0.93378033       0.79373015       0.65546897 </v>
   <v>       0.93739774       0.11653712       0.16696946 </v>
   <v>       0.43454130       0.29441514       0.65536147 </v>
   <v>       0.06096429       0.20931595       0.21175823 </v>
   <v>       0.68507615       0.95798947       0.21150268 </v>
   <v>       0.56303285       0.70840974       0.61096657 </v>
   <v>       0.82064918       0.87491201       0.69967606 </v>
   <v>       0.94458657       0.62446366       0.69961822 </v>
   <v>       0.19560539       0.12520589       0.69956039 </v>
   <v>       0.93900428       0.45777902       0.47751273 </v>
   <v>       0.81276651       0.20788515       0.61113556 </v>
   <v>       0.18691171       0.62538853       0.43326284 </v>
   <v>       0.43452790       0.12567577       0.29994054 </v>
   <v>       0.68505437       0.12534486       0.29999260 </v>
   <v>       0.56235703       0.54162303       0.38901525 </v>
   <v>       0.81390448       0.20549441       0.34470664 </v>
   <v>       0.43656979       0.46044658       0.87567935 </v>
   <v>       0.56150868       0.88256407       0.83347489 </v>
   <v>       0.31421483       0.20764944       0.47752511 </v>
   <v>       0.18952680       0.95812342       0.47751809 </v>
   <v>       0.06076981       0.88204843       0.83324519 </v>
   <v>       0.06083704       0.54072004       0.52244492 </v>
   <v>       0.93982611       0.95816333       0.47764592 </v>
   <v>       0.06261436       0.70816535       0.61099191 </v>
   <v>       0.56169887       0.04067817       0.52232092 </v>
   <v>       0.68839928       0.29176519       0.78812374 </v>
   <v>       0.81296533       0.36596910       0.16687643 </v>
   <v>       0.43690927       0.12588971       0.43311930 </v>
   <v>       0.06440757       0.20775820       0.47754505 </v>
   <v>       0.31044283       0.04455595       0.65555147 </v>
   <v>       0.43616467       0.79065187       0.52207676 </v>
   <v>       0.18608745       0.13485512       0.83286703 </v>
   <v>       0.18626651       0.28289745       0.12444020 </v>
   <v>       0.93813120       0.45462915       0.34460756 </v>
   <v>       0.31228659       0.86572326       0.16675231 </v>
   <v>       0.31196882       0.70899249       0.21197397 </v>
   <v>       0.93759487       0.61613594       0.16693618 </v>
   <v>       0.18789230       0.45863939       0.61120346 </v>
   <v>       0.07103534       0.87478362       0.69964962 </v>
   <v>       0.06066198       0.54453790       0.65515922 </v>
   <v>       0.31262620       0.53886450       0.12466202 </v>
   <v>       0.93742812       0.79189400       0.38901928 </v>
   <v>       0.93927740       0.29227227       0.78815810 </v>
   <v>       0.18447288       0.29396088       0.65528872 </v>
   <v>       0.93832836       0.95823605       0.61082994 </v>
   <v>       0.80861761       0.71033755       0.74435237 </v>
   <v>       0.68742109       0.29219869       0.25581263 </v>
   <v>       0.05873335       0.70999354       0.74404787 </v>
   <v>       0.68526831       0.45756563       0.21149957 </v>
   <v>       0.81490193       0.20755957       0.47748703 </v>
   <v>       0.56463658       0.70762568       0.47771097 </v>
   <v>       0.06264028       0.86597823       0.16694190 </v>
   <v>       0.93538318       0.29207856       0.52248821 </v>
   <v>       0.68503168       0.79349927       0.65538012 </v>
   <v>       0.06042278       0.87452415       0.43323640 </v>
   <v>       0.06616882       0.21634880       0.87585270 </v>
   <v>       0.80999563       0.04542787       0.65562574 </v>
   <v>       0.56198417       0.03833176       0.12455937 </v>
   <v>       0.31217422       0.37525444       0.43337558 </v>
   <v>       0.31327126       0.37355735       0.56646832 </v>
   <v>       0.31406296       0.70780369       0.47749366 </v>
   <v>       0.06133334       0.04067590       0.52227088 </v>
   <v>       0.32142499       0.87484323       0.69954534 </v>
   <v>       0.06371959       0.54130171       0.25563339 </v>
   <v>       0.68683439       0.13395411       0.83382750 </v>
   <v>       0.81304477       0.04228421       0.25584802 </v>
   <v>       0.18642827       0.12521559       0.43327899 </v>
   <v>       0.69429275       0.12483839       0.69959402 </v>
   <v>       0.18637632       0.29147111       0.52241258 </v>
   <v>       0.43825839       0.79169389       0.25566965 </v>
   <v>       0.81347728       0.54171212       0.25562894 </v>
   <v>       0.06308323       0.20856529       0.61086312 </v>
   <v>       0.18767442       0.79182021       0.38895946 </v>
   <v>       0.31091382       0.54169868       0.52262774 </v>
   <v>       0.81232466       0.86667850       0.16673237 </v>
   <v>       0.68759739       0.29139261       0.38870547 </v>
   <v>       0.18779504       0.12444472       0.56656008 </v>
   <v>       0.68596066       0.96139048       0.87594855 </v>
   <v>       0.68758562       0.12449272       0.56658553 </v>
   <v>       0.43807391       0.95553300       0.34462647 </v>
   <v>       0.18488140       0.96076503       0.74409085 </v>
   <v>       0.93776606       0.79172084       0.25543329 </v>
   <v>       0.56091915       0.87518672       0.43313598 </v>
   <v>       0.31171427       0.87507243       0.43341146 </v>
   <v>       0.81147077       0.54088785       0.52233539 </v>
   <v>       0.93529290       0.45776880       0.21144933 </v>
   <v>       0.31310826       0.54128553       0.25558486 </v>
   <v>       0.56245734       0.04154780       0.38897900 </v>
   <v>       0.93785152       0.45824108       0.61104604 </v>
   <v>       0.06264910       0.04166680       0.38900526 </v>
   <v>       0.06246226       0.54197933       0.38883767 </v>
   <v>       0.43792260       0.29126207       0.38894218 </v>
   <v>       0.68920957       0.45822239       0.47743602 </v>
   <v>       0.06270253       0.37369525       0.56642130 </v>
   <v>       0.56149852       0.70908072       0.21186187 </v>
   <v>       0.93789158       0.29208429       0.25578329 </v>
   <v>       0.18447618       0.62586753       0.30017476 </v>
   <v>       0.18812067       0.95512030       0.34467313 </v>
   <v>       0.55938170       0.87538839       0.30018619 </v>
   <v>       0.06202405       0.37518410       0.43344090 </v>
   <v>       0.31356140       0.70475843       0.34455967 </v>
   <v>       0.31422092       0.20511991       0.34472683 </v>
   <v>       0.93809992       0.12397666       0.56663201 </v>
   <v>       0.43797682       0.95823860       0.61077175 </v>
   <v>       0.56278553       0.04245482       0.25568104 </v>
   <v>       0.18629170       0.78303001       0.12442126 </v>
   <v>       0.06277425       0.04223841       0.25595506 </v>
   <v>       0.68756661       0.62452934       0.56657367 </v>
   <v>       0.43717537       0.61641395       0.16688473 </v>
   <v>       0.31131861       0.04059084       0.52228872 </v>
   <v>       0.68592878       0.28259784       0.12445009 </v>
   <v>       0.81402233       0.70794338       0.47755230 </v>
   <v>       0.43602929       0.13316160       0.83307831 </v>
   <v>       0.32032415       0.37423210       0.69967000 </v>
   <v>       0.68593496       0.63465045       0.83385277 </v>
   <v>       0.55898573       0.71108442       0.74405908 </v>
   <v>       0.93769947       0.29123730       0.38882641 </v>
   <v>       0.93917257       0.95928763       0.87607813 </v>
   <v>       0.93422174       0.95776052       0.74421371 </v>
   <v>       0.81285118       0.87391014       0.56658627 </v>
   <v>       0.80862577       0.87669670       0.30017270 </v>
   <v>       0.31295699       0.04197377       0.25598965 </v>
   <v>       0.43635265       0.28261166       0.12444500 </v>
   <v>       0.31291910       0.70827576       0.61104462 </v>
   <v>       0.43717492       0.62564017       0.43314561 </v>
   <v>       0.18908124       0.29276204       0.78800537 </v>
   <v>       0.56562010       0.04133777       0.78815423 </v>
   <v>       0.06655334       0.54297622       0.78860602 </v>
   <v>       0.81006322       0.88282660       0.83448052 </v>
   <v>       0.81370160       0.71820241       0.87571038 </v>
   <v>       0.56355055       0.20650366       0.61090376 </v>
   <v>       0.81894407       0.04497095       0.78757431 </v>
  </varray>
 </structure>
 <calculation>
  <scstep>
   <time name="dav">   54.11   54.12</time>
   <time name="total">   54.26   54.32</time>
   <energy>
    <i name="alphaZ">  16403.00255340 </i>
    <i name="ewald"> 732333.82675981 </i>
    <i name="hartreedc">-923988.64317609 </i>
    <i name="XCdc">  -6388.86529648 </i>
    <i name="pawpsdc"> 163151.95320885 </i>
    <i name="pawaedc">-160818.84594568 </i>
    <i name="eentropy">     -1.04362368 </i>
    <i name="bandstr">  38620.38896543 </i>
    <i name="atom"> 169914.59583762 </i>
    <i name="e_fr_energy">  29226.36928319 </i>
    <i name="e_wo_entrp">  29227.41290687 </i>
    <i name="e_0_energy">  29226.89109503 </i>
   </energy>
  </scstep>
  <scstep>
   <time name="dav">   53.71   53.75</time>
   <time name="total">   53.72   53.76</time>
   <energy>
    <i name="e_fr_energy">   1194.93354567 </i>
    <i name="e_wo_entrp">   1196.39435299 </i>
    <i name="e_0_energy">   1195.66394933 </i>
   </energy>
  </scstep>
  <scstep>
   <time name="dav">   70.75   70.79</time>
   <time name="total">   70.76   70.80</time>
   <energy>
    <i name="e_fr_energy">  -1940.26631128 </i>
    <i name="e_wo_entrp">  -1936.71781054 </i>
    <i name="e_0_energy">  -1938.49206091 </i>
   </energy>
  </scstep>
  <scstep>
   <time name="dav">   88.36   88.41</time>
   <time name="total">   88.37   88.42</time>
   <energy>
    <i name="e_fr_energy">  -2607.91141947 </i>
    <i name="e_wo_entrp">  -2604.28348292 </i>
    <i name="e_0_energy">  -2606.09745119 </i>
   </energy>
  </scstep>
  <scstep>
   <time name="dav">   84.63   84.68</time>
   <time name="total">   86.70   86.75</time>
   <energy>
    <i name="e_fr_energy">  -2728.09962082 </i>
    <i name="e_wo_entrp">  -2724.31175923 </i>
    <i name="e_0_energy">  -2726.20569002 </i>
   </energy>
  </scstep>
  <scstep>
   <time name="diag">    8.23    8.23</time>
   <time name="diis">   37.66   37.67</time>
   <time name="orth">    2.27    2.27</time>
   <time name="total">   50.36   50.41</time>
   <energy>
    <i name="e_fr_energy">  -5839.73473875 </i>
    <i name="e_wo_entrp">  -5836.77826135 </i>
    <i name="e_0_energy">  -5838.25650005 </i>
   </energy>
  </scstep>
  <scstep>
   <time name="diag">    8.31    8.31</time>
   <time name="diis">   37.19   37.19</time>
   <time name="orth">    2.28    2.28</time>
   <time name="total">   49.98   50.03</time>
[...]
       <r>     5.8697     0.0000  2772.0000 </r>
       <r>     5.9125     0.0000  2772.0000 </r>
       <r>     5.9553     0.0000  2772.0000 </r>
       <r>     5.9982     0.0000  2772.0000 </r>
       <r>     6.0410     0.0000  2772.0000 </r>
       <r>     6.0838     0.0000  2772.0000 </r>
       <r>     6.1267     0.0000  2772.0000 </r>
       <r>     6.1695     0.0000  2772.0000 </r>
       <r>     6.2123     0.0000  2772.0000 </r>
       <r>     6.2551     0.0000  2772.0000 </r>
       <r>     6.2980     0.0000  2772.0000 </r>
       <r>     6.3408     0.0000  2772.0000 </r>
       <r>     6.3836     0.0000  2772.0000 </r>
       <r>     6.4265     0.0000  2772.0000 </r>
       <r>     6.4693     0.0000  2772.0000 </r>
       <r>     6.5121     0.0000  2772.0000 </r>
       <r>     6.5549     0.0000  2772.0000 </r>
       <r>     6.5978     0.0000  2772.0000 </r>
       <r>     6.6406     0.0000  2772.0000 </r>
       <r>     6.6834     0.0000  2772.0000 </r>
       <r>     6.7263     0.0000  2772.0000 </r>
       <r>     6.7691     0.0000  2772.0000 </r>
       <r>     6.8119     0.0000  2772.0000 </r>
      </set>
     </set>
    </array>
   </total>
  </dos>
 </calculation>
 <structure name="finalpos" >
  <crystal>
   <varray name="basis" >
    <v>       9.72667804       0.00000000       0.00000000 </v>
    <v>       0.00000000       8.42355028       0.00000000 </v>
    <v>       0.00000000       0.00000000      45.00000000 </v>
   </varray>
   <i name="volume">   3686.99226691 </i>
   <varray name="rec_basis" >
    <v>       0.10281002       0.00000000       0.00000000 </v>
    <v>       0.00000000       0.11871479       0.00000000 </v>
    <v>       0.00000000       0.00000000       0.02222222 </v>
   </varray>
  </crystal>
  <varray name="positions" >
   <v>       0.06135708       0.70696860       0.21169914 </v>
   <v>       0.31349885       0.71378651       0.87549003 </v>
   <v>       0.68820922       0.95821652       0.61100175 </v>
   <v>       0.43782100       0.45819712       0.61101705 </v>
   <v>       0.43704457       0.29072434       0.25593868 </v>
   <v>       0.06188788       0.38178819       0.83355969 </v>
   <v>       0.31108513       0.88116135       0.83338689 </v>
   <v>       0.44091781       0.62550874       0.69974428 </v>
   <v>       0.06157780       0.21042552       0.74418392 </v>
   <v>       0.18624730       0.45679896       0.21160317 </v>
   <v>       0.56335936       0.20787494       0.47783378 </v>
   <v>       0.06257348       0.87442387       0.56649679 </v>
   <v>       0.56239717       0.21416771       0.87561157 </v>
   <v>       0.81205472       0.53558414       0.12477253 </v>
   <v>       0.43617418       0.95674551       0.21163600 </v>
   <v>       0.56253598       0.37463650       0.56655827 </v>
   <v>       0.81256779       0.04123663       0.38888712 </v>
   <v>       0.68717579       0.79147562       0.52210699 </v>
   <v>       0.43822957       0.45799293       0.47780158 </v>
   <v>       0.43714745       0.96054208       0.74405772 </v>
   <v>       0.43735910       0.62490382       0.56656500 </v>
   <v>       0.06193613       0.53567814       0.12472974 </v>
   <v>       0.31181715       0.03579760       0.12475187 </v>
   <v>       0.68742091       0.95682326       0.34462308 </v>
   <v>       0.68671906       0.78598479       0.12459776 </v>
   <v>       0.06089795       0.37507526       0.30020534 </v>
   <v>       0.68655690       0.46340139       0.87554374 </v>
   <v>       0.43619732       0.45679660       0.21161033 </v>
   <v>       0.81238526       0.37465708       0.43334351 </v>
   <v>       0.81592154       0.37587900       0.69964810 </v>
   <v>       0.56230376       0.54274660       0.65532123 </v>
   <v>       0.93728852       0.12469921       0.43336343 </v>
   <v>       0.56221368       0.54110107       0.25594417 </v>
   <v>       0.68736188       0.45701211       0.34460384 </v>
   <v>       0.18746106       0.61856191       0.16678883 </v>
   <v>       0.18883139       0.79309967       0.78810113 </v>
   <v>       0.44118291       0.12532248       0.69972688 </v>
   <v>       0.93603614       0.62492110       0.30007937 </v>
   <v>       0.31265284       0.21409714       0.87550022 </v>
   <v>       0.31241373       0.87448394       0.56647076 </v>
   <v>       0.81339877       0.21244102       0.87587098 </v>
   <v>       0.81234901       0.54252029       0.65532230 </v>
   <v>       0.56210546       0.53559086       0.12478108 </v>
   <v>       0.56211692       0.86839537       0.16681584 </v>
   <v>       0.18705161       0.29078195       0.25595328 </v>
   <v>       0.81241137       0.87484005       0.43338103 </v>
   <v>       0.56583025       0.37596622       0.69978234 </v>
   <v>       0.06176940       0.03569929       0.12476054 </v>
   <v>       0.31249400       0.54285070       0.65524635 </v>
   <v>       0.56256049       0.20676338       0.34457587 </v>
   <v>       0.18804473       0.95840026       0.61101719 </v>
   <v>       0.31091781       0.37500267       0.30023426 </v>
   <v>       0.43752952       0.79284823       0.65528163 </v>
   <v>       0.68699181       0.46019618       0.74417807 </v>
   <v>       0.06225880       0.36848896       0.16676594 </v>
   <v>       0.69077731       0.62579012       0.69978815 </v>
   <v>       0.31255312       0.54114400       0.38889601 </v>
   <v>       0.06408770       0.71360104       0.87556328 </v>
   <v>       0.93633772       0.63208251       0.83366648 </v>
   <v>       0.31422589       0.54425732       0.78830080 </v>
   <v>       0.31129575       0.20695243       0.21175754 </v>
   <v>       0.06327591       0.70773216       0.47777253 </v>
   <v>       0.56118405       0.20708042       0.21171756 </v>
   <v>       0.31236391       0.21060460       0.74409127 </v>
   <v>       0.06536183       0.37555288       0.69981397 </v>
   <v>       0.18665865       0.63067309       0.83316199 </v>
   <v>       0.06396569       0.04353289       0.78834267 </v>
   <v>       0.43738133       0.12450065       0.56650633 </v>
   <v>       0.93741998       0.29283528       0.65525894 </v>
   <v>       0.81117854       0.20701556       0.21173205 </v>
   <v>       0.93612114       0.95693750       0.21160490 </v>
   <v>       0.93766003       0.62456294       0.56653760 </v>
   <v>       0.81155031       0.38189583       0.83369845 </v>
   <v>       0.19078652       0.62574430       0.69961429 </v>
   <v>       0.56597572       0.87517109       0.69981224 </v>
   <v>       0.68715725       0.29285624       0.65528784 </v>
   <v>       0.31269708       0.20857537       0.61103554 </v>
   <v>       0.43710696       0.46037303       0.74412573 </v>
   <v>       0.43754169       0.79120046       0.38882654 </v>
   <v>       0.68704184       0.95998411       0.74413467 </v>
   <v>       0.81139179       0.70709376       0.21166752 </v>
   <v>       0.81316250       0.70854537       0.61104340 </v>
   <v>       0.43667808       0.78592891       0.12461232 </v>
   <v>       0.31185717       0.71096870       0.74409542 </v>
   <v>       0.31479814       0.04411376       0.78838129 </v>
   <v>       0.81257499       0.54106990       0.38888104 </v>
   <v>       0.68711293       0.29114317       0.52202063 </v>
   <v>       0.68850866       0.79331301       0.78843868 </v>
   <v>       0.18711558       0.79092258       0.25601503 </v>
   <v>       0.68719931       0.11864113       0.16674524 </v>
   <v>       0.68828084       0.95789099       0.47776285 </v>
   <v>       0.93746895       0.95677299       0.34459144 </v>
   <v>       0.81215062       0.04116300       0.52199020 </v>
   <v>       0.68736425       0.62488665       0.43336282 </v>
   <v>       0.43744311       0.45681259       0.34459823 </v>
   <v>       0.81144729       0.21002298       0.74414204 </v>
   <v>       0.43717590       0.96442261       0.87537606 </v>
   <v>       0.56252742       0.87456216       0.56649611 </v>
   <v>       0.81181574       0.03584020       0.12473170 </v>
   <v>       0.43603548       0.62476508       0.30012009 </v>
   <v>       0.56209376       0.21008536       0.74423560 </v>
   <v>       0.68780410       0.45860613       0.61103584 </v>
   <v>       0.56050357       0.38135406       0.83333709 </v>
   <v>       0.81105662       0.37503481       0.30017754 </v>
   <v>       0.18765095       0.29119556       0.38890541 </v>
   <v>       0.81419288       0.54407728       0.78858400 </v>
   <v>       0.18693828       0.79123822       0.52206586 </v>
   <v>       0.31095783       0.87499453       0.30019984 </v>
   <v>       0.18624722       0.95684840       0.21164824 </v>
   <v>       0.18660711       0.46013404       0.74413017 </v>
   <v>       0.43700654       0.29119107       0.52200382 </v>
   <v>       0.06244747       0.70687723       0.34459721 </v>
   <v>       0.18756973       0.79297988       0.65534974 </v>
   <v>       0.43923034       0.79325216       0.78817572 </v>
   <v>       0.68725711       0.12489850       0.43333277 </v>
   <v>       0.93707771       0.79100588       0.52209370 </v>
   <v>       0.68730534       0.61865821       0.16674728 </v>
   <v>       0.81262605       0.70685083       0.34457799 </v>
   <v>       0.93684077       0.46022043       0.74414614 </v>
   <v>       0.18749520       0.45687875       0.34458845 </v>
   <v>       0.56342983       0.54403188       0.78833943 </v>
   <v>       0.56209893       0.36851074       0.16673687 </v>
   <v>       0.56234913       0.70683011       0.34458702 </v>
   <v>       0.56083085       0.37501953       0.30019988 </v>
   <v>       0.18726573       0.46392608       0.87544721 </v>
   <v>       0.18727545       0.11864021       0.16675853 </v>
   <v>       0.43848985       0.29368743       0.78830510 </v>
   <v>       0.68717842       0.79102124       0.25598754 </v>
   <v>       0.93625547       0.13163779       0.83353259 </v>
   <v>       0.43836605       0.95783785       0.47777892 </v>
   <v>       0.56209524       0.71350838       0.87566616 </v>
   <v>       0.18821630       0.45797344       0.47783981 </v>
   <v>       0.93671334       0.28593691       0.12460971 </v>
   <v>       0.31245876       0.04113523       0.38886720 </v>
   <v>       0.06227330       0.04286586       0.65519436 </v>
   <v>       0.56231352       0.37485106       0.43334409 </v>
   <v>       0.93737987       0.62475478       0.43333052 </v>
   <v>       0.31226704       0.36843220       0.16678448 </v>
   <v>       0.94065216       0.12575888       0.69966733 </v>
   <v>       0.56227676       0.04293835       0.65532646 </v>
   <v>       0.56206980       0.54145410       0.52199508 </v>
   <v>       0.18609173       0.12489231       0.30018318 </v>
   <v>       0.43730999       0.11855928       0.16675568 </v>
   <v>       0.68607804       0.62500288       0.30006574 </v>
   <v>       0.93600223       0.12508468       0.30014161 </v>
   <v>       0.81232240       0.37448839       0.56656866 </v>
   <v>       0.06081557       0.87498167       0.30017391 </v>
   <v>       0.18738690       0.62461296       0.56659705 </v>
   <v>       0.93828824       0.79227910       0.78828215 </v>
   <v>       0.31100011       0.38090863       0.83347941 </v>
   <v>       0.93784683       0.46369301       0.87556325 </v>
   <v>       0.43627343       0.63095044       0.83332607 </v>
   <v>       0.06261397       0.20673155       0.34457760 </v>
   <v>       0.18766370       0.96413110       0.87530295 </v>
   <v>       0.93664104       0.78587481       0.12461341 </v>
   <v>       0.68749678       0.79106121       0.38882488 </v>
   <v>       0.93746480       0.79297531       0.65525300 </v>
   <v>       0.93720938       0.11863617       0.16674728 </v>
   <v>       0.43716082       0.29307553       0.65531417 </v>
   <v>       0.06126866       0.20702632       0.21173388 </v>
   <v>       0.68608710       0.95690514       0.21158001 </v>
   <v>       0.56301206       0.70855527       0.61103887 </v>
   <v>       0.81598642       0.87540498       0.69976637 </v>
   <v>       0.94105843       0.62563770       0.69970376 </v>
   <v>       0.19062252       0.12559984       0.69977185 </v>
   <v>       0.93828915       0.45798307       0.47784383 </v>
   <v>       0.81315292       0.20849567       0.61100339 </v>
   <v>       0.18731536       0.62473035       0.43334943 </v>
   <v>       0.43610664       0.12489738       0.30015810 </v>
   <v>       0.68593012       0.12495412       0.30013259 </v>
   <v>       0.56248731       0.54120561       0.38885560 </v>
   <v>       0.81270507       0.20686400       0.34458074 </v>
   <v>       0.43770084       0.46464627       0.87529701 </v>
   <v>       0.56178344       0.88105648       0.83377790 </v>
   <v>       0.31338268       0.20790499       0.47779335 </v>
   <v>       0.18829981       0.95788094       0.47783018 </v>
   <v>       0.06092715       0.88102565       0.83354690 </v>
   <v>       0.06211421       0.54119064       0.52208773 </v>
   <v>       0.93811726       0.95793233       0.47783889 </v>
   <v>       0.06294384       0.70855877       0.61102913 </v>
   <v>       0.56207495       0.04137814       0.52204730 </v>
   <v>       0.68848701       0.29313159       0.78845415 </v>
   <v>       0.81215771       0.36849192       0.16677237 </v>
   <v>       0.43737933       0.12468285       0.43337579 </v>
   <v>       0.06328734       0.20801902       0.47782882 </v>
   <v>       0.31268454       0.04318560       0.65518921 </v>
   <v>       0.43719845       0.79148917       0.52205468 </v>
   <v>       0.18636804       0.13223570       0.83323940 </v>
   <v>       0.18661078       0.28576497       0.12462353 </v>
   <v>       0.93743772       0.45688991       0.34457952 </v>
   <v>       0.31220475       0.86857178       0.16680401 </v>
   <v>       0.31134845       0.70712372       0.21168359 </v>
   <v>       0.93737009       0.61873726       0.16674999 </v>
   <v>       0.18800597       0.45892358       0.61097677 </v>
   <v>       0.06632222       0.87586040       0.69964297 </v>
   <v>       0.06230504       0.54291249       0.65532862 </v>
   <v>       0.31191426       0.53546382       0.12474041 </v>
   <v>       0.93749395       0.79120470       0.38881865 </v>
   <v>       0.93866135       0.29438347       0.78844568 </v>
   <v>       0.18705159       0.29303887       0.65528876 </v>
   <v>       0.93787281       0.95809475       0.61107357 </v>
   <v>       0.81234202       0.71022149       0.74417334 </v>
   <v>       0.68710120       0.29076491       0.25597360 </v>
   <v>       0.06206831       0.71009659       0.74409351 </v>
   <v>       0.68622768       0.45686485       0.21161662 </v>
   <v>       0.81310523       0.20788862       0.47779884 </v>
   <v>       0.56320718       0.70769169       0.47779771 </v>
   <v>       0.06212772       0.86843938       0.16679262 </v>
   <v>       0.93706756       0.29100350       0.52208095 </v>
   <v>       0.68743921       0.79278042       0.65522276 </v>
   <v>       0.06234341       0.87472680       0.43333464 </v>
   <v>       0.06436983       0.21399222       0.87569036 </v>
   <v>       0.81239763       0.04279301       0.65532135 </v>
   <v>       0.56178838       0.03558114       0.12476052 </v>
   <v>       0.31231073       0.37486399       0.43335135 </v>
   <v>       0.31249061       0.37467697       0.56658647 </v>
   <v>       0.31326676       0.70775715       0.47779796 </v>
   <v>       0.06218076       0.04130171       0.52209915 </v>
   <v>       0.31589367       0.87593052       0.69970837 </v>
   <v>       0.06209485       0.54109224       0.25597046 </v>
   <v>       0.68708814       0.13225140       0.83355065 </v>
   <v>       0.81207229       0.04089879       0.25592618 </v>
   <v>       0.18735444       0.12482946       0.43336586 </v>
   <v>       0.69082389       0.12567763       0.69988775 </v>
   <v>       0.18697987       0.29111233       0.52205725 </v>
   <v>       0.43709242       0.79089958       0.25603412 </v>
   <v>       0.81214449       0.54117278       0.25592733 </v>
   <v>       0.06298043       0.20839103       0.61100478 </v>
   <v>       0.18740599       0.79118416       0.38885727 </v>
   <v>       0.31217499       0.54109226       0.52208044 </v>
   <v>       0.81224650       0.86860818       0.16677676 </v>
   <v>       0.68772783       0.29127989       0.38888580 </v>
   <v>       0.18754017       0.12436662       0.56651898 </v>
   <v>       0.68647448       0.96465103       0.87591090 </v>
   <v>       0.68764632       0.12449736       0.56648204 </v>
   <v>       0.43746952       0.95682302       0.34459881 </v>
   <v>       0.18734229       0.96055103       0.74404475 </v>
   <v>       0.93724269       0.79088615       0.25603773 </v>
   <v>       0.56222733       0.87486368       0.43334896 </v>
   <v>       0.31213061       0.87477816       0.43334026 </v>
   <v>       0.81189841       0.54127665       0.52209529 </v>
   <v>       0.93615863       0.45693835       0.21160940 </v>
   <v>       0.31223246       0.54113533       0.25596484 </v>
   <v>       0.56247903       0.04112278       0.38887759 </v>
   <v>       0.93811506       0.45883352       0.61098464 </v>
   <v>       0.06244513       0.04104373       0.38888360 </v>
   <v>       0.06240646       0.54116176       0.38888406 </v>
   <v>       0.43765866       0.29125568       0.38886140 </v>
   <v>       0.68828636       0.45777120       0.47783045 </v>
   <v>       0.06239983       0.37436856       0.56658560 </v>
   <v>       0.56137178       0.70701191       0.21171644 </v>
   <v>       0.93708252       0.29085693       0.25594529 </v>
   <v>       0.18595188       0.62480690       0.30006735 </v>
   <v>       0.18739213       0.95675093       0.34461045 </v>
   <v>       0.56087450       0.87517709       0.30017651 </v>
   <v>       0.06242506       0.37491585       0.43333003 </v>
   <v>       0.31247070       0.70684975       0.34460860 </v>
   <v>       0.31266262       0.20693819       0.34459496 </v>
   <v>       0.93749314       0.12455080       0.56651132 </v>
   <v>       0.43781726       0.95840476       0.61103379 </v>
   <v>       0.56209033       0.04088003       0.25593328 </v>
   <v>       0.18674145       0.78578425       0.12461029 </v>
   <v>       0.06211497       0.04089236       0.25587487 </v>
   <v>       0.68750574       0.62470087       0.56653074 </v>
   <v>       0.43746653       0.61862594       0.16678833 </v>
   <v>       0.31202289       0.04112172       0.52198961 </v>
   <v>       0.68656839       0.28602336       0.12461725 </v>
   <v>       0.81333728       0.70783945       0.47778433 </v>
   <v>       0.43708237       0.13154260       0.83334162 </v>
   <v>       0.31569293       0.37576557       0.69976173 </v>
   <v>       0.68700814       0.63228767       0.83360365 </v>
   <v>       0.56214466       0.71079213       0.74411180 </v>
   <v>       0.93773731       0.29121752       0.38889379 </v>
   <v>       0.93858893       0.96387125       0.87576174 </v>
   <v>       0.93752407       0.95991835       0.74394564 </v>
   <v>       0.81257608       0.87448793       0.56649497 </v>
   <v>       0.81109572       0.87487569       0.30017147 </v>
   <v>       0.31219492       0.04079610       0.25591294 </v>
   <v>       0.43667966       0.28573827       0.12463601 </v>
   <v>       0.31271114       0.70832550       0.61098214 </v>
   <v>       0.43729810       0.62464741       0.43334715 </v>
   <v>       0.18881167       0.29248962       0.78799458 </v>
   <v>       0.56414455       0.04354769       0.78819076 </v>
   <v>       0.06428679       0.54415912       0.78815827 </v>
   <v>       0.81052024       0.88132904       0.83419798 </v>
   <v>       0.81284041       0.71409839       0.87583703 </v>
   <v>       0.56295352       0.20838934       0.61096047 </v>
   <v>       0.81583054       0.04469398       0.78815934 </v>
  </varray>
 </structure>
</modeling>
