unknown system                          
           1
     9.726678    0.000000    0.000000
     0.000000    8.423550    0.000000
     0.000000    0.000000   45.000000
   Fe   Mn
 281   7
Direct configuration=     1
   0.06158864  0.70932448  0.21187982
   0.31374438  0.71859501  0.87602621
   0.68741942  0.95854302  0.61072191
   0.43883847  0.45932538  0.61102196
   0.43801043  0.29237915  0.25591572
   0.06164794  0.38342999  0.83318888
   0.31054767  0.88309331  0.83281208
   0.44411145  0.62584361  0.69997176
   0.05955374  0.20963959  0.74459366
   0.18555420  0.45772772  0.21156331
   0.56409101  0.20738296  0.47746052
   0.06255739  0.87437550  0.56664973
   0.56253723  0.21805892  0.87575516
   0.81199953  0.53913037  0.12463070
   0.43527483  0.95770539  0.21150231
   0.56289400  0.37379960  0.56651079
   0.81249162  0.04179716  0.38890451
   0.68651614  0.79109259  0.52207495
   0.43937084  0.45717016  0.47751197
   0.43497498  0.96034285  0.74448666
   0.43804289  0.62398999  0.56651826
   0.06248814  0.53949108  0.12461778
   0.31139025  0.03809876  0.12462692
   0.68827115  0.95487121  0.34469378
   0.68656909  0.78300913  0.12449419
   0.05938336  0.37543549  0.30007037
   0.68709276  0.45739869  0.87590727
   0.43506088  0.45793145  0.21154439
   0.81206427  0.37558153  0.43340240
   0.81909330  0.37519979  0.69963176
   0.56051402  0.54341286  0.65523963
   0.93722659  0.12565996  0.43346718
   0.56335654  0.54123851  0.25573914
   0.68822384  0.45525813  0.34457065
   0.18726855  0.61655062  0.16687516
   0.18903239  0.79155397  0.78840633
   0.44510428  0.12600008  0.69983746
   0.93448536  0.62570338  0.30003326
   0.31385380  0.21728183  0.87561469
   0.31253992  0.87411664  0.56664177
   0.81342804  0.21675809  0.87589711
   0.81088736  0.54349157  0.65544604
   0.56197541  0.53986908  0.12451755
   0.56264227  0.86593306  0.16679539
   0.18770806  0.29177626  0.25588006
   0.81073347  0.87480409  0.43313353
   0.56941100  0.37544893  0.69972690
   0.06173613  0.03829507  0.12456251
   0.30980403  0.54395325  0.65509924
   0.56459061  0.20552760  0.34475785
   0.18832331  0.95800763  0.61081309
   0.30944812  0.37560598  0.30002502
   0.43588765  0.79436238  0.65533269
   0.68377216  0.46072845  0.74400511
   0.06277972  0.36645893  0.16682057
   0.69527124  0.62508248  0.69958182
   0.31255588  0.54186125  0.38884568
   0.06655108  0.71811133  0.87555396
   0.93437029  0.63523677  0.83401299
   0.31557050  0.54178257  0.78855803
   0.31092302  0.20866971  0.21170228
   0.06457521  0.70756913  0.47765283
   0.56107393  0.20895984  0.21172099
   0.30794793  0.21009902  0.74411210
   0.06957469  0.37537162  0.70001777
   0.18586651  0.63264422  0.83276121
   0.06517942  0.04186872  0.78826719
   0.43791677  0.12471608  0.56649120
   0.93484459  0.29378070  0.65511653
   0.81127774  0.20920902  0.21181104
   0.93564254  0.95766495  0.21149217
   0.93737963  0.62414968  0.56666631
   0.80994836  0.38447901  0.83381765
   0.19526891  0.62521527  0.69967707
   0.57042026  0.87504884  0.69991063
   0.68454878  0.29401241  0.65533960
   0.31285209  0.20827004  0.61106912
   0.43376755  0.46179787  0.74411920
   0.43731570  0.79182846  0.38894842
   0.68606404  0.96176273  0.74473400
   0.81152596  0.70955828  0.21177450
   0.81375245  0.70810845  0.61099550
   0.43646360  0.78276709  0.12440153
   0.30903839  0.70984646  0.74379971
   0.31677837  0.04073797  0.78861547
   0.81255807  0.54169581  0.38882970
   0.68539330  0.29143310  0.52247584
   0.68932712  0.79100204  0.78833147
   0.18835976  0.79159810  0.25562564
   0.68725551  0.11646497  0.16696280
   0.68931816  0.95789792  0.47755072
   0.93793463  0.95536904  0.34460582
   0.81219354  0.04037169  0.52220365
   0.68706125  0.62460392  0.43323511
   0.43802101  0.45526573  0.34471419
   0.80860392  0.20962408  0.74488996
   0.43641020  0.95970803  0.87590132
   0.56251054  0.87478834  0.56676368
   0.81182167  0.03882752  0.12453178
   0.43465024  0.62575486  0.30014451
   0.56031079  0.21063232  0.74473851
   0.68770772  0.45807262  0.61101075
   0.56032271  0.38282870  0.83287946
   0.80900897  0.37609134  0.30010152
   0.18742286  0.29198608  0.38881053
   0.81574672  0.54295478  0.78885972
   0.18691317  0.79074593  0.52215726
   0.30900568  0.87533506  0.30008150
   0.18481249  0.95778825  0.21138276
   0.18332596  0.46002005  0.74404969
   0.43552745  0.29141794  0.52240381
   0.06375467  0.70504921  0.34453053
   0.18587139  0.79524952  0.65548556
   0.43988584  0.79183377  0.78860457
   0.68716493  0.12551574  0.43339096
   0.93672284  0.79119145  0.52226106
   0.68733781  0.61618192  0.16707264
   0.81341027  0.70489709  0.34456986
   0.93316030  0.45947684  0.74386301
   0.18770439  0.45499629  0.34469175
   0.56552872  0.54205705  0.78856997
   0.56311423  0.36629871  0.16689957
   0.56393853  0.70526676  0.34456604
   0.55937155  0.37559262  0.30016583
   0.18853483  0.46035819  0.87571283
   0.18716804  0.11649093  0.16700405
   0.43902546  0.29199586  0.78844490
   0.68824257  0.79161261  0.25557257
   0.93540474  0.13367176  0.83404981
   0.43933926  0.95788545  0.47748234
   0.56093491  0.71765549  0.87579503
   0.18944379  0.45769720  0.47750178
   0.93640639  0.28295701  0.12451072
   0.31242241  0.04206697  0.38895169
   0.06041926  0.04400505  0.65551557
   0.56211968  0.37530404  0.43345649
   0.93695712  0.62542074  0.43331567
   0.31271032  0.36577080  0.16689541
   0.94400134  0.12341729  0.69934765
   0.56028731  0.04423772  0.65530878
   0.56082027  0.54177212  0.52250121
   0.18479586  0.12530716  0.29992919
   0.43700062  0.11661561  0.16700163
   0.68437807  0.62599772  0.30002350
   0.93491293  0.12522549  0.29986255
   0.81257439  0.37401933  0.56645953
   0.05927822  0.87568540  0.30014139
   0.18768351  0.62423005  0.56653599
   0.93908278  0.79164973  0.78833461
   0.31077870  0.38265452  0.83318382
   0.93700309  0.45857441  0.87580583
   0.43568799  0.63309844  0.83289832
   0.06436804  0.20518143  0.34479630
   0.18883715  0.95911171  0.87565581
   0.93678989  0.78319782  0.12443782
   0.68765282  0.79164711  0.38905179
   0.93378033  0.79373015  0.65546897
   0.93739774  0.11653712  0.16696946
   0.43454130  0.29441514  0.65536147
   0.06096429  0.20931595  0.21175823
   0.68507615  0.95798947  0.21150268
   0.56303285  0.70840974  0.61096657
   0.82064918  0.87491201  0.69967606
   0.94458657  0.62446366  0.69961822
   0.19560539  0.12520589  0.69956039
   0.93900428  0.45777902  0.47751273
   0.81276651  0.20788515  0.61113556
   0.18691171  0.62538853  0.43326284
   0.43452790  0.12567577  0.29994054
   0.68505437  0.12534486  0.29999260
   0.56235703  0.54162303  0.38901525
   0.81390448  0.20549441  0.34470664
   0.43656979  0.46044658  0.87567935
   0.56150868  0.88256407  0.83347489
   0.31421483  0.20764944  0.47752511
   0.18952680  0.95812342  0.47751809
   0.06076981  0.88204843  0.83324519
   0.06083704  0.54072004  0.52244492
   0.93982611  0.95816333  0.47764592
   0.06261436  0.70816535  0.61099191
   0.56169887  0.04067817  0.52232092
   0.68839928  0.29176519  0.78812374
   0.81296533  0.36596910  0.16687643
   0.43690927  0.12588971  0.43311930
   0.06440757  0.20775820  0.47754505
   0.31044283  0.04455595  0.65555147
   0.43616467  0.79065187  0.52207676
   0.18608745  0.13485512  0.83286703
   0.18626651  0.28289745  0.12444020
   0.93813120  0.45462915  0.34460756
   0.31228659  0.86572326  0.16675231
   0.31196882  0.70899249  0.21197397
   0.93759487  0.61613594  0.16693618
   0.18789230  0.45863939  0.61120346
   0.07103534  0.87478362  0.69964962
   0.06066198  0.54453790  0.65515922
   0.31262620  0.53886450  0.12466202
   0.93742812  0.79189400  0.38901928
   0.93927740  0.29227227  0.78815810
   0.18447288  0.29396088  0.65528872
   0.93832836  0.95823605  0.61082994
   0.80861761  0.71033755  0.74435237
   0.68742109  0.29219869  0.25581263
   0.05873335  0.70999354  0.74404787
   0.68526831  0.45756563  0.21149957
   0.81490193  0.20755957  0.47748703
   0.56463658  0.70762568  0.47771097
   0.06264028  0.86597823  0.16694190
   0.93538318  0.29207856  0.52248821
   0.68503168  0.79349927  0.65538012
   0.06042278  0.87452415  0.43323640
   0.06616882  0.21634880  0.87585270
   0.80999563  0.04542787  0.65562574
   0.56198417  0.03833176  0.12455937
   0.31217422  0.37525444  0.43337558
   0.31327126  0.37355735  0.56646832
   0.31406296  0.70780369  0.47749366
   0.06133334  0.04067590  0.52227088
   0.32142499  0.87484323  0.69954534
   0.06371959  0.54130171  0.25563339
   0.68683439  0.13395411  0.83382750
   0.81304477  0.04228421  0.25584802
   0.18642827  0.12521559  0.43327899
   0.69429275  0.12483839  0.69959402
   0.18637632  0.29147111  0.52241258
   0.43825839  0.79169389  0.25566965
   0.81347728  0.54171212  0.25562894
   0.06308323  0.20856529  0.61086312
   0.18767442  0.79182021  0.38895946
   0.31091382  0.54169868  0.52262774
   0.81232466  0.86667850  0.16673237
   0.68759739  0.29139261  0.38870547
   0.18779504  0.12444472  0.56656008
   0.68596066  0.96139048  0.87594855
   0.68758562  0.12449272  0.56658553
   0.43807391  0.95553300  0.34462647
   0.18488140  0.96076503  0.74409085
   0.93776606  0.79172084  0.25543329
   0.56091915  0.87518672  0.43313598
   0.31171427  0.87507243  0.43341146
   0.81147077  0.54088785  0.52233539
   0.93529290  0.45776880  0.21144933
   0.31310826  0.54128553  0.25558486
   0.56245734  0.04154780  0.38897900
   0.93785152  0.45824108  0.61104604
   0.06264910  0.04166680  0.38900526
   0.06246226  0.54197933  0.38883767
   0.43792260  0.29126207  0.38894218
   0.68920957  0.45822239  0.47743602
   0.06270253  0.37369525  0.56642130
   0.56149852  0.70908072  0.21186187
   0.93789158  0.29208429  0.25578329
   0.18447618  0.62586753  0.30017476
   0.18812067  0.95512030  0.34467313
   0.55938170  0.87538839  0.30018619
   0.06202405  0.37518410  0.43344090
   0.31356140  0.70475843  0.34455967
   0.31422092  0.20511991  0.34472683
   0.93809992  0.12397666  0.56663201
   0.43797682  0.95823860  0.61077175
   0.56278553  0.04245482  0.25568104
   0.18629170  0.78303001  0.12442126
   0.06277425  0.04223841  0.25595506
   0.68756661  0.62452934  0.56657367
   0.43717537  0.61641395  0.16688473
   0.31131861  0.04059084  0.52228872
   0.68592878  0.28259784  0.12445009
   0.81402233  0.70794338  0.47755230
   0.43602929  0.13316160  0.83307831
   0.32032415  0.37423210  0.69967000
   0.68593496  0.63465045  0.83385277
   0.55898573  0.71108442  0.74405908
   0.93769947  0.29123730  0.38882641
   0.93917257  0.95928763  0.87607813
   0.93422174  0.95776052  0.74421371
   0.81285118  0.87391014  0.56658627
   0.80862577  0.87669670  0.30017270
   0.31295699  0.04197377  0.25598965
   0.43635265  0.28261166  0.12444500
   0.31291910  0.70827576  0.61104462
   0.43717492  0.62564017  0.43314561
   0.18908124  0.29276204  0.78800537
   0.56562010  0.04133777  0.78815423
   0.06655334  0.54297622  0.78860602
   0.81006322  0.88282660  0.83448052
   0.81370160  0.71820241  0.87571038
   0.56355055  0.20650366  0.61090376
   0.81894407  0.04497095  0.78757431
Direct configuration=     2
   0.06154275  0.70896701  0.21184494
   0.31375108  0.71771884  0.87592510
   0.68757570  0.95844172  0.61077853
   0.43864007  0.45912042  0.61102902
   0.43786068  0.29209879  0.25592430
   0.06165000  0.38322811  0.83327905
   0.31061853  0.88279432  0.83294369
   0.44366388  0.62577812  0.69993129
   0.05981946  0.20976565  0.74451477
   0.18566188  0.45760142  0.21156135
   0.56400430  0.20746335  0.47753968
   0.06257026  0.87436110  0.56662392
   0.56251178  0.21735910  0.87572448
   0.81201726  0.53851141  0.12468003
   0.43540884  0.95757390  0.21151972
   0.56284171  0.37393351  0.56652410
   0.81251636  0.04171020  0.38889670
   0.68662135  0.79116800  0.52207206
   0.43919927  0.45730822  0.47757282
   0.43527479  0.96040777  0.74440977
   0.43790750  0.62415894  0.56653106
   0.06238852  0.53883424  0.12465373
   0.31146044  0.03771362  0.12466716
   0.68813677  0.95515865  0.34467660
   0.68659184  0.78351745  0.12451467
   0.05960388  0.37540780  0.30009617
   0.68695473  0.45846870  0.87583395
   0.43523957  0.45777222  0.21154731
   0.81211318  0.37542457  0.43339372
   0.81867129  0.37528190  0.69963491
   0.56077401  0.54332729  0.65525092
   0.93721337  0.12550268  0.43345133
   0.56319387  0.54126698  0.25577936
   0.68807938  0.45553706  0.34457090
   0.18732155  0.61682027  0.16684182
   0.18900964  0.79177029  0.78834215
   0.44452820  0.12584427  0.69983013
   0.93471957  0.62560243  0.30003425
   0.31367566  0.21669713  0.87558315
   0.31251417  0.87416479  0.56661234
   0.81344082  0.21596628  0.87590458
   0.81108130  0.54332132  0.65542272
   0.56201453  0.53911611  0.12458845
   0.56255740  0.86629918  0.16678532
   0.18760545  0.29161829  0.25589682
   0.81101935  0.87482516  0.43317883
   0.56889234  0.37552501  0.69974129
   0.06173437  0.03785269  0.12461508
   0.31024438  0.54377818  0.65512176
   0.56426187  0.20569980  0.34471981
   0.18827166  0.95807466  0.61085679
   0.30966008  0.37552204  0.30006771
   0.43613125  0.79413684  0.65532317
   0.68427066  0.46060484  0.74403338
   0.06271134  0.36674929  0.16679125
   0.69457360  0.62521988  0.69961989
   0.31256116  0.54174429  0.38885049
   0.06617115  0.71728854  0.87555200
   0.93472053  0.63468700  0.83396636
   0.31537880  0.54220640  0.78850938
   0.31097820  0.20840878  0.21171070
   0.06438495  0.70758247  0.47768187
   0.56107622  0.20867807  0.21171707
   0.30868078  0.21017430  0.74410692
   0.06890558  0.37536459  0.69998543
   0.18598888  0.63231827  0.83284650
   0.06501777  0.04212460  0.78828083
   0.43781685  0.12465606  0.56649533
   0.93524827  0.29362602  0.65514511
   0.81124692  0.20887040  0.21179614
   0.93570437  0.95758599  0.21150328
   0.93743730  0.62421975  0.56664556
   0.81021909  0.38408294  0.83381221
   0.19458717  0.62528098  0.69966332
   0.56976297  0.87505259  0.69990244
   0.68492698  0.29383297  0.65532745
   0.31281923  0.20833360  0.61107060
   0.43428184  0.46154930  0.74411998
   0.43735855  0.79174072  0.38891926
   0.68612801  0.96144400  0.74462684
   0.81149811  0.70918390  0.21174996
   0.81364016  0.70819326  0.61101368
   0.43649972  0.78330935  0.12443929
   0.30945762  0.71006532  0.74384854
   0.31649431  0.04131937  0.78857143
   0.81257062  0.54158754  0.38883294
   0.68567485  0.29135950  0.52237966
   0.68919513  0.79133481  0.78835456
   0.18816693  0.79150398  0.25570330
   0.68724762  0.11677432  0.16690263
   0.68917162  0.95791379  0.47759772
   0.93787578  0.95555079  0.34459719
   0.81214918  0.04051403  0.52215339
   0.68710395  0.62466787  0.43325953
   0.43793675  0.45549278  0.34468711
   0.80899334  0.20972820  0.74474837
   0.43655571  0.96053735  0.87578360
   0.56251677  0.87472511  0.56671538
   0.81181962  0.03831326  0.12458396
   0.43485676  0.62559948  0.30013863
   0.56054528  0.21054347  0.74464992
   0.68771229  0.45818451  0.61102293
   0.56029943  0.38262553  0.83298616
   0.80933653  0.37593082  0.30011609
   0.18746876  0.29186170  0.38882390
   0.81552998  0.54311738  0.78881471
   0.18689375  0.79083324  0.52213058
   0.30930091  0.87529371  0.30010150
   0.18504824  0.95766618  0.21142406
   0.18379369  0.46003983  0.74406519
   0.43575243  0.29136491  0.52231566
   0.06354820  0.70533376  0.34453732
   0.18612147  0.79489286  0.65545988
   0.43979457  0.79201646  0.78852192
   0.68717045  0.12543581  0.43338449
   0.93675623  0.79114098  0.52222227
   0.68733390  0.61652724  0.16699111
   0.81331463  0.70519994  0.34456349
   0.93372098  0.45959366  0.74391090
   0.18769512  0.45528183  0.34466573
   0.56520317  0.54238131  0.78853100
   0.56294060  0.36663195  0.16684629
   0.56367177  0.70549220  0.34456444
   0.55957468  0.37551172  0.30017555
   0.18832453  0.46097361  0.87564004
   0.18720143  0.11680177  0.16693908
   0.43893844  0.29220589  0.78841955
   0.68808599  0.79153485  0.25565270
   0.93557209  0.13338806  0.83397645
   0.43920925  0.95788924  0.47754529
   0.56111989  0.71690732  0.87576624
   0.18925667  0.45775181  0.47757143
   0.93645243  0.28345918  0.12453464
   0.31242419  0.04190679  0.38892917
   0.06067780  0.04384139  0.65545533
   0.56213905  0.37524638  0.43344063
   0.93703276  0.62530878  0.43331761
   0.31265495  0.36617067  0.16685619
   0.94353548  0.12381526  0.69940469
   0.56059668  0.04404594  0.65531267
   0.56101086  0.54170750  0.52240020
   0.18499742  0.12526222  0.29997729
   0.43706455  0.11689201  0.16693563
   0.68464954  0.62586103  0.30002458
   0.93506388  0.12523555  0.29990984
   0.81253417  0.37408480  0.56647955
   0.05949137  0.87557312  0.30014749
   0.18761926  0.62429285  0.56655343
   0.93896028  0.79168943  0.78832657
   0.31079011  0.38240665  0.83327166
   0.93720799  0.45946344  0.87574387
   0.43575253  0.63274510  0.83300187
   0.06409680  0.20540170  0.34475203
   0.18865484  0.96002059  0.87557229
   0.93675091  0.78364278  0.12447357
   0.68762610  0.79155167  0.38900481
   0.93438698  0.79363661  0.65542360
   0.93736932  0.11683294  0.16690815
   0.43494261  0.29422406  0.65534954
   0.06101087  0.20895662  0.21175352
   0.68522019  0.95784227  0.21150733
   0.56304055  0.70842392  0.61098682
   0.81993199  0.87498857  0.69969850
   0.94408695  0.62463972  0.69963195
   0.19481480  0.12522256  0.69960430
   0.93890937  0.45781787  0.47758268
   0.81284298  0.20799332  0.61111853
   0.18696706  0.62527621  0.43327862
   0.43477756  0.12555915  0.29997838
   0.68515448  0.12530169  0.30001506
   0.56237707  0.54155999  0.38898016
   0.81373378  0.20569785  0.34467895
   0.43674609  0.46120009  0.87557965
   0.56150616  0.88237245  0.83355840
   0.31412031  0.20768897  0.47758311
   0.18934731  0.95808660  0.47758233
   0.06077078  0.88194908  0.83332112
   0.06104107  0.54080384  0.52237026
   0.93954644  0.95813238  0.47769109
   0.06266798  0.70823748  0.61100612
   0.56175212  0.04080091  0.52226089
   0.68841480  0.29197867  0.78818395
   0.81282944  0.36635787  0.16683680
   0.43698819  0.12568371  0.43316808
   0.06424347  0.20780835  0.47760720
   0.31079696  0.04435473  0.65548483
   0.43633475  0.79080963  0.52205817
   0.18611081  0.13448278  0.83294495
   0.18631805  0.28337138  0.12447911
   0.93802449  0.45498491  0.34459346
   0.31227717  0.86616868  0.16674761
   0.31186080  0.70873487  0.21191910
   0.93755679  0.61651948  0.16687997
   0.18792788  0.45870321  0.61116680
   0.07033302  0.87494130  0.69965688
   0.06089770  0.54428537  0.65518994
   0.31250309  0.53826178  0.12469211
   0.93743855  0.79179547  0.38897605
   0.93918960  0.29261455  0.78821099
   0.18485484  0.29383064  0.65528707
   0.93824963  0.95817704  0.61088346
   0.80920592  0.71029483  0.74431791
   0.68738720  0.29196044  0.25584768
   0.05923622  0.70997923  0.74405719
   0.68541524  0.45748218  0.21151311
   0.81459371  0.20760878  0.47755292
   0.56440716  0.70762812  0.47773556
   0.06255356  0.86634643  0.16690130
   0.93564984  0.29187411  0.52240488
   0.68540130  0.79341096  0.65534942
   0.06074412  0.87455980  0.43325477
   0.06591499  0.21592080  0.87581811
   0.81037591  0.04498936  0.65557302
   0.56194950  0.03785356  0.12461325
   0.31218158  0.37521884  0.43337399
   0.31312499  0.37375237  0.56649662
   0.31395057  0.70778150  0.47755646
   0.06147050  0.04079352  0.52223124
   0.32059437  0.87502886  0.69958017
   0.06345353  0.54132430  0.25570113
   0.68684625  0.13375211  0.83378943
   0.81288882  0.04206669  0.25586572
   0.18658374  0.12516752  0.43329645
   0.69379593  0.12497608  0.69965383
   0.18644583  0.29139320  0.52233758
   0.43806721  0.79158807  0.25574373
   0.81327633  0.54167543  0.25568636
   0.06307542  0.20852230  0.61089554
   0.18762255  0.79173086  0.38893538
   0.31111407  0.54157862  0.52252013
   0.81232906  0.86696676  0.16672346
   0.68763760  0.29138206  0.38873155
   0.18775694  0.12441372  0.56655334
   0.68600366  0.96200706  0.87593999
   0.68760963  0.12447065  0.56656274
   0.43798915  0.95571103  0.34461503
   0.18528098  0.96072181  0.74407665
   0.93770617  0.79158798  0.25555138
   0.56112185  0.87514862  0.43317635
   0.31175359  0.87502910  0.43340030
   0.81151104  0.54095278  0.52228313
   0.93541930  0.45767073  0.21147066
   0.31298113  0.54131895  0.25565646
   0.56245881  0.04147747  0.38895560
   0.93791897  0.45835195  0.61103829
   0.06261199  0.04154996  0.38897791
   0.06244754  0.54184950  0.38884226
   0.43788146  0.29127833  0.38891937
   0.68907695  0.45812416  0.47751734
   0.06264363  0.37379242  0.56645533
   0.56147416  0.70877541  0.21183334
   0.93776957  0.29189060  0.25581672
   0.18468303  0.62570445  0.30014937
   0.18800359  0.95534859  0.34465639
   0.55959387  0.87538948  0.30018502
   0.06209624  0.37517205  0.43342045
   0.31339302  0.70508353  0.34456247
   0.31399051  0.20541069  0.34469755
   0.93799427  0.12407779  0.56661158
   0.43793677  0.95823471  0.61082208
   0.56267795  0.04220140  0.25572943
   0.18636177  0.78348832  0.12445523
   0.06267907  0.04202360  0.25594052
   0.68756813  0.62456370  0.56656759
   0.43725304  0.61671499  0.16684866
   0.31143009  0.04067280  0.52222343
   0.68601936  0.28318759  0.12448774
   0.81393433  0.70792480  0.47760164
   0.43617321  0.13294135  0.83314284
   0.31960559  0.37449347  0.69968864
   0.68605682  0.63425476  0.83382521
   0.55947664  0.71106045  0.74406778
   0.93771401  0.29124263  0.38883430
   0.93911107  0.96010344  0.87601880
   0.93478065  0.95810808  0.74415714
   0.81279912  0.87399191  0.56657084
   0.80902210  0.87638943  0.30017206
   0.31285764  0.04177802  0.25597770
   0.43639942  0.28313553  0.12448796
   0.31288496  0.70826331  0.61103958
   0.43718091  0.62545567  0.43318058
   0.18904193  0.29264436  0.78800277
   0.56540951  0.04167759  0.78816279
   0.06619180  0.54315957  0.78853159
   0.81011607  0.88266332  0.83443182
   0.81356445  0.71749688  0.87575757
   0.56344017  0.20683651  0.61092123
   0.81847164  0.04489289  0.78768877
Direct configuration=     3
   0.06140508  0.70789459  0.21174029
   0.31377116  0.71509031  0.87562179
   0.68804455  0.95813782  0.61094838
   0.43804488  0.45850553  0.61105019
   0.43741144  0.29125771  0.25595006
   0.06165619  0.38262249  0.83354958
   0.31083111  0.88189735  0.83333853
   0.44232118  0.62558164  0.69980991
   0.06061663  0.21014382  0.74427809
   0.18598491  0.45722255  0.21155545
   0.56374420  0.20770452  0.47777717
   0.06260887  0.87431790  0.56654650
   0.56243543  0.21525965  0.87563244
   0.81207042  0.53665455  0.12482804
   0.43581087  0.95717943  0.21157193
   0.56268487  0.37433527  0.56656404
   0.81259056  0.04144931  0.38887328
   0.68693699  0.79139424  0.52206339
   0.43868459  0.45772240  0.47775536
   0.43617422  0.96060251  0.74417910
   0.43750130  0.62466581  0.56656946
   0.06208966  0.53686375  0.12476158
   0.31167099  0.03655821  0.12478787
   0.68773363  0.95602096  0.34462505
   0.68666010  0.78504239  0.12457609
   0.06026544  0.37532473  0.30017358
   0.68654062  0.46167871  0.87561397
   0.43577564  0.45729454  0.21155608
   0.81225991  0.37495369  0.43336767
   0.81740529  0.37552824  0.69964438
   0.56155398  0.54307057  0.65528480
   0.93717372  0.12503085  0.43340377
   0.56270588  0.54135239  0.25589999
   0.68764600  0.45637383  0.34457163
   0.18748055  0.61762922  0.16674177
   0.18894138  0.79241924  0.78814960
   0.44279996  0.12537683  0.69980816
   0.93542221  0.62529959  0.30003723
   0.31314121  0.21494305  0.87548853
   0.31243694  0.87430925  0.56652403
   0.81347915  0.21359084  0.87592697
   0.81166313  0.54281056  0.65535276
   0.56213191  0.53685721  0.12480113
   0.56230276  0.86739754  0.16675510
   0.18729761  0.29114438  0.25594712
   0.81187699  0.87488838  0.43331472
   0.56733638  0.37575324  0.69978448
   0.06172909  0.03652554  0.12477280
   0.31156541  0.54325298  0.65518932
   0.56327568  0.20621640  0.34460568
   0.18811672  0.95827577  0.61098789
   0.31029597  0.37527020  0.30019579
   0.43686204  0.79346020  0.65529460
   0.68576615  0.46023401  0.74411822
   0.06250620  0.36762035  0.16670331
   0.69248069  0.62563208  0.69973411
   0.31257698  0.54139344  0.38886492
   0.06503136  0.71482017  0.87554612
   0.93577125  0.63303769  0.83382646
   0.31480369  0.54347789  0.78836341
   0.31114376  0.20762600  0.21173595
   0.06381417  0.70762251  0.47776898
   0.56108308  0.20783274  0.21170529
   0.31087931  0.21040015  0.74409136
   0.06689826  0.37534349  0.69988844
   0.18635600  0.63134043  0.83310237
   0.06453280  0.04289223  0.78832177
   0.43751711  0.12447600  0.56650771
   0.93645933  0.29316196  0.65523086
   0.81115445  0.20785451  0.21175144
   0.93588988  0.95734910  0.21153664
   0.93761032  0.62442994  0.56658330
   0.81103127  0.38289474  0.83379590
   0.19254194  0.62547809  0.69962206
   0.56779110  0.87506385  0.69987789
   0.68606155  0.29329463  0.65529098
   0.31272064  0.20852427  0.61107506
   0.43582470  0.46080360  0.74412231
   0.43748710  0.79147752  0.38883177
   0.68631990  0.96048782  0.74430534
   0.81141455  0.70806075  0.21167632
   0.81330328  0.70844769  0.61106823
   0.43660811  0.78493612  0.12455259
   0.31071533  0.71072189  0.74399501
   0.31564214  0.04306359  0.78843929
   0.81260825  0.54126274  0.38884268
   0.68651948  0.29113870  0.52209112
   0.68879915  0.79233309  0.78842385
   0.18758843  0.79122160  0.25593628
   0.68722395  0.11770238  0.16672209
   0.68873200  0.95796140  0.47773870
   0.93769921  0.95609605  0.34457129
   0.81201610  0.04094103  0.52200262
   0.68723204  0.62485970  0.43333282
   0.43768399  0.45617396  0.34460587
   0.81016158  0.21004055  0.74432358
   0.43699226  0.96302532  0.87543043
   0.56253545  0.87453544  0.56657051
   0.81181346  0.03677048  0.12474051
   0.43547633  0.62513334  0.30012102
   0.56124875  0.21027693  0.74438414
   0.68772600  0.45852018  0.61105948
   0.56022960  0.38201602  0.83330627
   0.81031920  0.37544924  0.30015979
   0.18760645  0.29148856  0.38886400
   0.81487974  0.54360518  0.78867969
   0.18683548  0.79109518  0.52205055
   0.31018657  0.87516968  0.30016151
   0.18575547  0.95729994  0.21154794
   0.18519686  0.46009914  0.74411166
   0.43642736  0.29120582  0.52205120
   0.06292879  0.70618739  0.34455770
   0.18687170  0.79382289  0.65538286
   0.43952077  0.79256454  0.78827395
   0.68718700  0.12519602  0.43336509
   0.93685639  0.79098957  0.52210591
   0.68732215  0.61756319  0.16674653
   0.81302771  0.70610849  0.34454438
   0.93540302  0.45994414  0.74405457
   0.18766730  0.45613843  0.34458767
   0.56422651  0.54335410  0.78841409
   0.56241973  0.36763167  0.16668643
   0.56287150  0.70616850  0.34455966
   0.56018410  0.37526901  0.30020470
   0.18769364  0.46281987  0.87542168
   0.18730161  0.11773427  0.16674418
   0.43867735  0.29283599  0.78834349
   0.68761625  0.79130157  0.25589308
   0.93607414  0.13253696  0.83375636
   0.43881921  0.95790061  0.47773412
   0.56167481  0.71466284  0.87567985
   0.18869528  0.45791566  0.47778036
   0.93659057  0.28496568  0.12460639
   0.31242955  0.04142625  0.38886160
   0.06145340  0.04335041  0.65527459
   0.56219717  0.37507338  0.43339304
   0.93725967  0.62497291  0.43332343
   0.31248885  0.36737026  0.16673853
   0.94213789  0.12500918  0.69957580
   0.56152479  0.04347060  0.65532435
   0.56158264  0.54151362  0.52209718
   0.18560211  0.12512739  0.30012159
   0.43725634  0.11772119  0.16673764
   0.68546395  0.62545096  0.30002782
   0.93551673  0.12526572  0.30005171
   0.81241351  0.37428121  0.56653962
   0.06013080  0.87523626  0.30016580
   0.18742653  0.62448128  0.56660576
   0.93859276  0.79180856  0.78830245
   0.31082434  0.38166305  0.83353518
   0.93782267  0.46213053  0.87555799
   0.43594617  0.63168508  0.83331252
   0.06328309  0.20606250  0.34461921
   0.18810791  0.96274725  0.87532171
   0.93663398  0.78497765  0.12458081
   0.68754594  0.79126536  0.38886388
   0.93620694  0.79335597  0.65528747
   0.93728405  0.11772040  0.16672422
   0.43614656  0.29365082  0.65531374
   0.06115061  0.20787860  0.21173937
   0.68565229  0.95740067  0.21152128
   0.56306366  0.70846646  0.61104760
   0.81778042  0.87521825  0.69976583
   0.94258811  0.62516788  0.69967312
   0.19244304  0.12527256  0.69973605
   0.93862465  0.45793442  0.47779252
   0.81307238  0.20831783  0.61106744
   0.18713312  0.62493927  0.43332597
   0.43552655  0.12520929  0.30009192
   0.68545481  0.12517218  0.30008245
   0.56243718  0.54137088  0.38887488
   0.81322169  0.20630815  0.34459587
   0.43727497  0.46346063  0.87528055
   0.56149861  0.88179759  0.83380891
   0.31383676  0.20780755  0.47775710
   0.18880885  0.95797614  0.47777504
   0.06077370  0.88165105  0.83354890
   0.06165316  0.54105525  0.52214628
   0.93870743  0.95803953  0.47782659
   0.06282883  0.70845385  0.61104876
   0.56191187  0.04116912  0.52208080
   0.68846134  0.29261909  0.78836458
   0.81242176  0.36752418  0.16671791
   0.43722494  0.12506571  0.43331442
   0.06375117  0.20795881  0.47779368
   0.31185933  0.04375106  0.65528491
   0.43684498  0.79128289  0.52200240
   0.18618092  0.13336576  0.83317872
   0.18647267  0.28479316  0.12459586
   0.93770436  0.45605217  0.34455118
   0.31224892  0.86750496  0.16673349
   0.31153675  0.70796201  0.21175448
   0.93744254  0.61767010  0.16671133
   0.18803460  0.45889467  0.61105683
   0.06822608  0.87541433  0.69967865
   0.06160483  0.54352775  0.65528212
   0.31213377  0.53645363  0.12478237
   0.93746986  0.79149987  0.38884638
   0.93892618  0.29364137  0.78836966
   0.18600074  0.29343992  0.65528212
   0.93801347  0.95800001  0.61104403
   0.81097084  0.71016664  0.74421451
   0.68728552  0.29124570  0.25595283
   0.06074483  0.70993631  0.74408516
   0.68585604  0.45723182  0.21155370
   0.81366903  0.20775641  0.47775056