<?xml version="1.0" encoding="ISO-8859-1"?>
<modeling>
 <generator>
  <i name="program" type="string">vasp </i>
  <i name="version" type="string">5.4.4.18Apr17-6-g9f103f2a35  </i>
  <i name="subversion" type="string">(build May 29 2019 08:40:53) complex            parallel </i>
  <i name="platform" type="string">LinuxPGI </i>
  <i name="date" type="string">2021 11 22 </i>
  <i name="time" type="string">13:57:45 </i>
 </generator>
 <incar>
  <i type="int" name="ISTART">     2</i>
  <i type="string" name="PREC">accurate</i>
  <i type="string" name="ALGO"> Fast</i>
  <i type="int" name="ICHARG">     2</i>
  <i type="int" name="INIWAV">     1</i>
  <i type="int" name="NELM">   100</i>
  <i type="int" name="NELMIN">     4</i>
  <i type="int" name="IBRION">     2</i>
  <i name="EDIFF">      0.00001000</i>
  <i type="int" name="NSW">   500</i>
  <i type="int" name="ISIF">     2</i>
  <i type="int" name="ISYM">     2</i>
  <i name="ENCUT">    500.00000000</i>
  <i name="POTIM">      0.25000000</i>
  <i type="string" name="LREAL"> Auto</i>
  <i type="int" name="ISMEAR">     0</i>
  <i name="SIGMA">      0.15000000</i>
  <i type="logical" name="LWAVE"> F  </i>
  <i type="logical" name="LCHARG"> F  </i>
  <v type="int" name="KPOINT_BSE">    -1     0     0     0</v>
  <i type="int" name="NELM">   100</i>
 </incar>
 <structure name="primitive_cell" >
  <crystal>
   <varray name="basis" >
    <v>       9.72667800       0.00000000       0.00000000 </v>
    <v>       0.00000000       8.42355000       0.00000000 </v>
    <v>       0.00000000       0.00000000      45.00000000 </v>
   </varray>
   <i name="volume">   3686.99213101 </i>
   <varray name="rec_basis" >
    <v>       0.10281002       0.00000000       0.00000000 </v>
    <v>       0.00000000       0.11871479       0.00000000 </v>
    <v>       0.00000000       0.00000000       0.02222222 </v>
   </varray>
  </crystal>
  <varray name="positions" >
   <v>      -0.18497689       0.20239497       0.34534800 </v>
   <v>       0.06094316       0.20334471       0.34501259 </v>
   <v>      -0.06264078       0.28678776       0.38899424 </v>
   <v>      -0.06149876       0.45020538       0.34515245 </v>
   <v>      -0.06223717      -0.04663840       0.34501332 </v>
   <v>      -0.18694949       0.03853515       0.38947180 </v>
   <v>      -0.31086321       0.45133176       0.34520494 </v>
   <v>      -0.31035474       0.28631262       0.38947465 </v>
   <v>      -0.31131067      -0.04890858       0.34520249 </v>
   <v>      -0.43677010       0.20101309       0.34511341 </v>
   <v>      -0.18597500       0.36686101       0.29951273 </v>
   <v>      -0.06087805       0.11712932       0.29943144 </v>
   <v>      -0.31123185       0.11679698       0.29907478 </v>
   <v>       0.06154747       0.03916187       0.38911005 </v>
   <v>      -0.18613743      -0.46468830       0.38908231 </v>
   <v>      -0.43521524       0.03782235       0.38949070 </v>
   <v>       0.06339718       0.36649472       0.29962984 </v>
   <v>      -0.18560668      -0.13129196       0.29933880 </v>
   <v>      -0.43827365       0.36673080       0.29896911 </v>
   <v>       0.18490772       0.45118678       0.34487921 </v>
   <v>       0.18661095       0.28681822       0.38897994 </v>
   <v>      -0.06282027      -0.21131319       0.38930770 </v>
   <v>       0.18611268      -0.04799747       0.34486092 </v>
   <v>       0.06224143      -0.46441230       0.38895680 </v>
   <v>      -0.31073810      -0.21142749       0.38931060 </v>
   <v>      -0.18657985      -0.29878482       0.34517608 </v>
   <v>      -0.06465060       0.12103534       0.43388393 </v>
   <v>      -0.43666251      -0.46374717       0.38917109 </v>
   <v>      -0.18767071       0.36883347       0.43378408 </v>
   <v>      -0.31051392       0.12101055       0.43403594 </v>
   <v>      -0.06125745      -0.38309722       0.29943581 </v>
   <v>       0.18638208       0.11798986       0.29895348 </v>
   <v>       0.43705711       0.28772168       0.38954316 </v>
   <v>       0.43667255       0.45279022       0.34499185 </v>
   <v>       0.43646824      -0.04929292       0.34497990 </v>
   <v>      -0.31187294      -0.38200923       0.29930052 </v>
   <v>       0.06317626      -0.13192314       0.29912880 </v>
   <v>      -0.43818155      -0.13176764       0.29927378 </v>
   <v>       0.43655629       0.11727049       0.29871126 </v>
   <v>      -0.06166901       0.28124944       0.25473959 </v>
   <v>      -0.31307952       0.28144358       0.25493750 </v>
   <v>      -0.18731732       0.03259759       0.25479186 </v>
   <v>       0.31045945       0.20122544       0.34502167 </v>
   <v>       0.06216427      -0.29935767       0.34490540 </v>
   <v>       0.06149308       0.36930786       0.43367086 </v>
   <v>      -0.18797404      -0.12703443       0.43405198 </v>
   <v>      -0.43727915      -0.29716762       0.34504853 </v>
   <v>      -0.43518210       0.36911218       0.43385660 </v>
   <v>       0.06396614       0.03305262       0.25504810 </v>
   <v>      -0.18719619      -0.46701584       0.25455461 </v>
   <v>      -0.43866122       0.03350529       0.25476169 </v>
   <v>       0.31084452       0.03879308       0.38898996 </v>
   <v>       0.18587905      -0.21276029       0.38899361 </v>
   <v>       0.18612388       0.12222628       0.43384211 </v>
   <v>       0.06092197      -0.12774056       0.43396602 </v>
   <v>       0.43833879      -0.21212566       0.38893227 </v>
   <v>      -0.43422308      -0.12616277       0.43414008 </v>
   <v>       0.31132108       0.36798947       0.29862754 </v>
   <v>      -0.06394860      -0.37777137       0.43369289 </v>
   <v>       0.18790090      -0.38235324       0.29909301 </v>
   <v>       0.43866123       0.12228879       0.43397007 </v>
   <v>      -0.31076750      -0.37819164       0.43396863 </v>
   <v>       0.06382295      -0.46739406       0.25507150 </v>
   <v>       0.43583333      -0.38181401       0.29916953 </v>
   <v>       0.18975015       0.28118560       0.25501059 </v>
   <v>      -0.43889508      -0.46825514       0.25489980 </v>
   <v>      -0.06221996      -0.21631709       0.25505253 </v>
   <v>      -0.31214444      -0.21533691       0.25444667 </v>
   <v>       0.43442540       0.28147557       0.25479302 </v>
   <v>       0.31062256      -0.46387540       0.38908227 </v>
   <v>       0.31139857      -0.13216339       0.29897671 </v>
   <v>      -0.18724683       0.20500610       0.47803840 </v>
   <v>      -0.18786000       0.19800920       0.21079358 </v>
   <v>       0.31140625      -0.29776337       0.34473391 </v>
   <v>       0.31225342       0.36995571       0.43376560 </v>
   <v>       0.18596489      -0.37858069       0.43358265 </v>
   <v>      -0.06405930      -0.04325658       0.47805886 </v>
   <v>       0.06165744       0.20404576       0.47838350 </v>
   <v>      -0.31113105      -0.04287884       0.47842309 </v>
   <v>      -0.06408854       0.45527888       0.47822770 </v>
   <v>      -0.31196794       0.45527615       0.47820334 </v>
   <v>       0.43715772      -0.37984401       0.43407213 </v>
   <v>      -0.43681939       0.20516935       0.47839971 </v>
   <v>       0.31139603       0.03390543       0.25476572 </v>
   <v>       0.18878160      -0.21631357       0.25486907 </v>
   <v>      -0.06211437       0.44843571       0.21068094 </v>
   <v>       0.06425343       0.19822305       0.21093838 </v>
   <v>      -0.31224257       0.44823108       0.21065944 </v>
   <v>      -0.06214520      -0.05135069       0.21092180 </v>
   <v>      -0.43837771       0.19881515       0.21088476 </v>
   <v>       0.43497116      -0.21654374       0.25486969 </v>
   <v>      -0.31251088      -0.05144505       0.21091264 </v>
   <v>       0.31191236      -0.12760278       0.43394054 </v>
   <v>       0.31165102      -0.46866593       0.25479528 </v>
   <v>       0.18655160      -0.04201157       0.47827876 </v>
   <v>      -0.18766108      -0.29102250       0.47832982 </v>
   <v>       0.43893967      -0.04278508       0.47851011 </v>
   <v>       0.18883946       0.45515999       0.47843617 </v>
   <v>       0.43775271       0.45323746       0.47864700 </v>
   <v>       0.18887266       0.44752751       0.21092240 </v>
   <v>      -0.18663383      -0.30164241       0.21084622 </v>
   <v>       0.18846060      -0.05148588       0.21127081 </v>
   <v>       0.43616354       0.44776526       0.21087398 </v>
   <v>       0.43683994      -0.05114581       0.21107892 </v>
   <v>       0.06140821      -0.29253666       0.47807593 </v>
   <v>      -0.43620278      -0.29213561       0.47843158 </v>
   <v>       0.31246673       0.20660448       0.47852618 </v>
   <v>       0.31283630       0.19854556       0.21134998 </v>
   <v>       0.06384641      -0.30083276       0.21080599 </v>
   <v>      -0.43811553      -0.30116795       0.21063091 </v>
   <v>      -0.06477126       0.12182208      -0.47839052 </v>
   <v>      -0.18846985       0.36972853      -0.47812766 </v>
   <v>      -0.31249175       0.12036837      -0.47792714 </v>
   <v>      -0.18771014       0.35951307       0.16664980 </v>
   <v>      -0.06330835       0.10984089       0.16674442 </v>
   <v>      -0.31317635       0.10981253       0.16658166 </v>
   <v>      -0.18945713      -0.12672821      -0.47834261 </v>
   <v>       0.06283011       0.37115281      -0.47797659 </v>
   <v>      -0.43780937       0.37026919      -0.47794269 </v>
   <v>       0.06233231       0.35999816       0.16671015 </v>
   <v>      -0.43798956       0.35976146       0.16674197 </v>
   <v>      -0.18822622      -0.14042266       0.16645363 </v>
   <v>       0.06120528      -0.12744988      -0.47833244 </v>
   <v>       0.31241049      -0.29338565       0.47831528 </v>
   <v>       0.18871167       0.12329192      -0.47812960 </v>
   <v>      -0.06311567      -0.37776918      -0.47837609 </v>
   <v>      -0.43589862      -0.12611031      -0.47776311 </v>
   <v>       0.43847361       0.12202613      -0.47787771 </v>
   <v>      -0.31261108      -0.37799063      -0.47805512 </v>
   <v>       0.31179066      -0.30211187       0.21116492 </v>
   <v>      -0.06239544      -0.39015171       0.16650338 </v>
   <v>      -0.31289691      -0.39023832       0.16663046 </v>
   <v>       0.18765643       0.11020158       0.16687682 </v>
   <v>       0.43753239       0.11022091       0.16679342 </v>
   <v>       0.06207792      -0.14036994       0.16671731 </v>
   <v>      -0.43770239      -0.14038393       0.16649582 </v>
   <v>       0.31366947       0.37011334      -0.47798772 </v>
   <v>       0.18765048      -0.37871039      -0.47771002 </v>
   <v>       0.43813051      -0.37903988      -0.47789738 </v>
   <v>       0.18707087      -0.39095514       0.16670772 </v>
   <v>       0.31220766       0.35973531       0.16683971 </v>
   <v>       0.43694109      -0.39051190       0.16663458 </v>
   <v>       0.31403314      -0.12751255      -0.47763125 </v>
   <v>       0.31247106      -0.14069026       0.16665164 </v>
   <v>      -0.19054557       0.20461901      -0.43409733 </v>
   <v>      -0.06229161       0.27770681       0.12353189 </v>
   <v>      -0.31266845       0.27722497       0.12357112 </v>
   <v>      -0.18772382       0.02738023       0.12358597 </v>
   <v>      -0.06463168      -0.04285260      -0.43416094 </v>
   <v>       0.06301533       0.20653486      -0.43409972 </v>
   <v>      -0.06342571       0.45585217      -0.43409565 </v>
   <v>      -0.31568385      -0.04147910      -0.43378408 </v>
   <v>      -0.43782182       0.20428994      -0.43378545 </v>
   <v>      -0.31422343       0.45481217      -0.43383772 </v>
   <v>      -0.18753895      -0.47179027       0.12354828 </v>
   <v>       0.06260217       0.02744191       0.12357860 </v>
   <v>      -0.43761541       0.02738066       0.12364963 </v>
   <v>       0.06261649      -0.47184492       0.12360357 </v>
   <v>       0.18758245       0.27774683       0.12366676 </v>
   <v>      -0.43814880      -0.47140119       0.12362891 </v>
   <v>       0.43724498       0.27776928       0.12360462 </v>
   <v>      -0.06248407      -0.22284146       0.12357051 </v>
   <v>      -0.31303179      -0.22223803       0.12351149 </v>
   <v>      -0.19003727      -0.29173929      -0.43409932 </v>
   <v>       0.19073016      -0.04345893      -0.43379186 </v>
   <v>       0.43904888      -0.04348355      -0.43379459 </v>
   <v>       0.43783603       0.45503344      -0.43415169 </v>
   <v>       0.18997515       0.45607610      -0.43400815 </v>
   <v>       0.06371314      -0.29363477      -0.43397723 </v>
   <v>      -0.43869131      -0.29119678      -0.43367795 </v>
   <v>       0.31497353       0.20627195      -0.43369204 </v>
   <v>       0.31259302       0.02728723       0.12360318 </v>
   <v>       0.18818202      -0.22287318       0.12349914 </v>
   <v>       0.43763946      -0.22269814       0.12358948 </v>
   <v>       0.31286094      -0.47132855       0.12371458 </v>
   <v>       0.31520299      -0.29234949      -0.43348940 </v>
   <v>      -0.18995973       0.04081388      -0.38905402 </v>
   <v>      -0.06378364       0.28986834      -0.38910718 </v>
   <v>      -0.31499691       0.28913241      -0.38929079 </v>
   <v>      -0.43812004       0.04181076      -0.38944990 </v>
   <v>       0.06198484       0.04033345      -0.38915379 </v>
   <v>      -0.19036511      -0.45892379      -0.38896270 </v>
   <v>      -0.31458922      -0.20735727      -0.38908314 </v>
   <v>       0.19003251       0.29133442      -0.38927424 </v>
   <v>      -0.06342497      -0.20885153      -0.38882996 </v>
   <v>       0.06315144      -0.45914456      -0.38916640 </v>
   <v>       0.43834258       0.29003416      -0.38912622 </v>
   <v>      -0.43764164      -0.45865778      -0.38899775 </v>
   <v>       0.43759770      -0.20838856      -0.38945438 </v>
   <v>       0.31569070       0.04102927      -0.38935663 </v>
   <v>       0.19033700      -0.20970076      -0.38907008 </v>
   <v>       0.31447450      -0.45838069      -0.38900658 </v>
   <v>      -0.31314256       0.12488930      -0.34530739 </v>
   <v>      -0.06480582       0.12569780      -0.34488088 </v>
   <v>      -0.18851496       0.37558865      -0.34481945 </v>
   <v>      -0.18912479      -0.12324612      -0.34497538 </v>
   <v>       0.06214032       0.37649052      -0.34526041 </v>
   <v>      -0.43861119       0.37527518      -0.34502116 </v>
   <v>      -0.43637620      -0.12263742      -0.34541517 </v>
   <v>       0.06192290      -0.12453157      -0.34518493 </v>
   <v>       0.18907120       0.12601474      -0.34531523 </v>
   <v>       0.43857160       0.12666056      -0.34506046 </v>
   <v>      -0.31235265      -0.37391807      -0.34521366 </v>
   <v>      -0.06354051      -0.37289960      -0.34509805 </v>
   <v>       0.43792078      -0.37417404      -0.34543637 </v>
   <v>       0.31508468       0.37559630      -0.34509549 </v>
   <v>       0.18838829      -0.37350447      -0.34513464 </v>
   <v>       0.31423176      -0.12392426      -0.34537022 </v>
   <v>      -0.18802439       0.21045152      -0.30149961 </v>
   <v>      -0.31260312      -0.04035508      -0.30153693 </v>
   <v>      -0.06387688      -0.04060548      -0.30142860 </v>
   <v>      -0.43792424       0.21006311      -0.30171058 </v>
   <v>       0.06209529       0.21033504      -0.30148661 </v>
   <v>      -0.31277241       0.46057175      -0.30160009 </v>
   <v>      -0.06304910       0.46027454      -0.30115289 </v>
   <v>       0.43797809      -0.03977955      -0.30158480 </v>
   <v>      -0.18853042      -0.28880161      -0.30121021 </v>
   <v>       0.18828554      -0.04147776      -0.30121828 </v>
   <v>       0.43710923       0.46026769      -0.30152440 </v>
   <v>       0.18840992       0.46095709      -0.30109187 </v>
   <v>       0.31395836       0.21021264      -0.30164831 </v>
   <v>      -0.43659200      -0.28970136      -0.30116443 </v>
   <v>       0.06146594      -0.28969043      -0.30098736 </v>
   <v>       0.31253070      -0.28958941      -0.30126478 </v>
   <v>      -0.06262608       0.29687080      -0.25628543 </v>
   <v>      -0.18698059       0.04434290      -0.25586030 </v>
   <v>      -0.31123928       0.29659709      -0.25601051 </v>
   <v>       0.06216125       0.04295152      -0.25578113 </v>
   <v>      -0.43705705       0.04458567      -0.25589066 </v>
   <v>      -0.18611724      -0.45343572      -0.25556633 </v>
   <v>       0.18619764       0.29686075      -0.25591564 </v>
   <v>      -0.06137278      -0.20589928      -0.25544520 </v>
   <v>      -0.31169104      -0.20600915      -0.25539849 </v>
   <v>       0.43765560       0.29607332      -0.25576156 </v>
   <v>      -0.43633040      -0.45358235      -0.25560015 </v>
   <v>       0.06222172      -0.45344135      -0.25547893 </v>
   <v>       0.18626162      -0.20575807      -0.25585842 </v>
   <v>       0.43766520      -0.20496295      -0.25595691 </v>
   <v>       0.31222370       0.04400900      -0.25584119 </v>
   <v>       0.31100744      -0.45369862      -0.25575228 </v>
   <v>      -0.18831189       0.38135320      -0.21075066 </v>
   <v>      -0.06205881       0.12696613      -0.21039029 </v>
   <v>      -0.31463986       0.12705715      -0.20989758 </v>
   <v>       0.06421030       0.38090535      -0.21046080 </v>
   <v>      -0.18841126      -0.12271178      -0.20978849 </v>
   <v>      -0.44026735       0.37947628      -0.20980828 </v>
   <v>       0.06161148      -0.12274871      -0.20993407 </v>
   <v>       0.18914759       0.12920071      -0.20989498 </v>
   <v>      -0.06341567      -0.36769629      -0.21036320 </v>
   <v>      -0.43628516      -0.12161476      -0.20969039 </v>
   <v>      -0.31283931      -0.36783319      -0.21001570 </v>
   <v>       0.43728149       0.12941168      -0.20938354 </v>
   <v>       0.18731380      -0.36996264      -0.21014312 </v>
   <v>       0.31387447       0.37939175      -0.20974639 </v>
   <v>       0.43831928      -0.37122815      -0.20976518 </v>
   <v>       0.31238516      -0.12131575      -0.20992588 </v>
   <v>      -0.18833078       0.04797261      -0.12343581 </v>
   <v>      -0.06508053       0.30290975      -0.12326343 </v>
   <v>      -0.31311223       0.30325883      -0.12352687 </v>
   <v>       0.06290837       0.04594516      -0.12307953 </v>
   <v>      -0.18907954      -0.44888593      -0.12276551 </v>
   <v>      -0.43872188       0.04759917      -0.12343706 </v>
   <v>      -0.06247545      -0.20217990      -0.12246004 </v>
   <v>      -0.31473171      -0.20314496      -0.12305839 </v>
   <v>       0.06353249      -0.44700563      -0.12246463 </v>
   <v>       0.44006484       0.30334014      -0.12347829 </v>
   <v>       0.18830027       0.30184672      -0.12356158 </v>
   <v>      -0.43836096      -0.44741039      -0.12335926 </v>
   <v>       0.18839794      -0.20188930      -0.12258590 </v>
   <v>       0.43918814      -0.20080894      -0.12317155 </v>
   <v>       0.31448666       0.04634834      -0.12345247 </v>
   <v>       0.31352426      -0.44827515      -0.12304222 </v>
   <v>      -0.18976105       0.21893980      -0.16491003 </v>
   <v>      -0.31387202      -0.03319796      -0.16555090 </v>
   <v>      -0.06266446      -0.03463995      -0.16537401 </v>
   <v>       0.06331430       0.21843343      -0.16547806 </v>
   <v>      -0.43832620       0.21830902      -0.16530755 </v>
   <v>      -0.06376732       0.47073715      -0.16487384 </v>
   <v>      -0.31425457       0.46960717      -0.16452663 </v>
   <v>       0.18881810      -0.03417678      -0.16527386 </v>
   <v>      -0.18887455      -0.28253891      -0.16487706 </v>
   <v>       0.43888963      -0.03301990      -0.16515245 </v>
   <v>       0.43917547       0.46854512      -0.16519454 </v>
   <v>       0.18973640       0.46976486      -0.16505050 </v>
   <v>       0.31580740       0.21820043      -0.16566682 </v>
   <v>       0.06317727      -0.28120887      -0.16480243 </v>
   <v>      -0.43717490      -0.28271874      -0.16467678 </v>
   <v>       0.31411420      -0.28142737      -0.16468568 </v>
  </varray>
 </structure>
 <varray name="primitive_index" >
  <v type="int" >        1 </v>
  <v type="int" >       20 </v>
  <v type="int" >       53 </v>
  <v type="int" >      105 </v>
  <v type="int" >      162 </v>
  <v type="int" >      267 </v>
  <v type="int" >      154 </v>
  <v type="int" >      117 </v>
  <v type="int" >       86 </v>
  <v type="int" >      125 </v>
  <v type="int" >      229 </v>
  <v type="int" >      104 </v>
  <v type="int" >      270 </v>
  <v type="int" >      247 </v>
  <v type="int" >      246 </v>
  <v type="int" >      206 </v>
  <v type="int" >      149 </v>
  <v type="int" >       54 </v>
  <v type="int" >       10 </v>
  <v type="int" >      170 </v>
  <v type="int" >      214 </v>
  <v type="int" >       58 </v>
  <v type="int" >      176 </v>
  <v type="int" >      251 </v>
  <v type="int" >      205 </v>
  <v type="int" >       83 </v>
  <v type="int" >       84 </v>
  <v type="int" >       50 </v>
  <v type="int" >       12 </v>
  <v type="int" >      113 </v>
  <v type="int" >      210 </v>
  <v type="int" >       69 </v>
  <v type="int" >      184 </v>
  <v type="int" >      139 </v>
  <v type="int" >       70 </v>
  <v type="int" >       75 </v>
  <v type="int" >       16 </v>
  <v type="int" >      202 </v>
  <v type="int" >      165 </v>
  <v type="int" >      280 </v>
  <v type="int" >      225 </v>
  <v type="int" >       78 </v>
  <v type="int" >      110 </v>
  <v type="int" >      136 </v>
  <v type="int" >      287 </v>
  <v type="int" >       44 </v>
  <v type="int" >      107 </v>
  <v type="int" >       23 </v>
  <v type="int" >      226 </v>
  <v type="int" >       60 </v>
  <v type="int" >      164 </v>
  <v type="int" >      189 </v>
  <v type="int" >      163 </v>
  <v type="int" >       77 </v>
  <v type="int" >       27 </v>
  <v type="int" >      190 </v>
  <v type="int" >       19 </v>
  <v type="int" >      264 </v>
  <v type="int" >      277 </v>
  <v type="int" >      266 </v>
  <v type="int" >      283 </v>
  <v type="int" >       81 </v>
  <v type="int" >      122 </v>
  <v type="int" >      261 </v>
  <v type="int" >      120 </v>
  <v type="int" >       42 </v>
  <v type="int" >      265 </v>
  <v type="int" >      282 </v>
  <v type="int" >      250 </v>
  <v type="int" >      180 </v>
  <v type="int" >       47 </v>
  <v type="int" >      230 </v>
  <v type="int" >      153 </v>
  <v type="int" >      204 </v>
  <v type="int" >       87 </v>
  <v type="int" >      115 </v>
  <v type="int" >      182 </v>
  <v type="int" >       14 </v>
  <v type="int" >      186 </v>
  <v type="int" >      273 </v>
  <v type="int" >       66 </v>
  <v type="int" >      219 </v>
  <v type="int" >      152 </v>
  <v type="int" >      244 </v>
  <v type="int" >      131 </v>
  <v type="int" >      123 </v>
  <v type="int" >      169 </v>
  <v type="int" >      223 </v>
  <v type="int" >      193 </v>
  <v type="int" >      158 </v>
  <v type="int" >       41 </v>
  <v type="int" >       31 </v>
  <v type="int" >      141 </v>
  <v type="int" >       25 </v>
  <v type="int" >       62 </v>
  <v type="int" >       46 </v>
  <v type="int" >       29 </v>
  <v type="int" >      106 </v>
  <v type="int" >      284 </v>
  <v type="int" >       59 </v>
  <v type="int" >       51 </v>
  <v type="int" >      156 </v>
  <v type="int" >      195 </v>
  <v type="int" >       68 </v>
  <v type="int" >      248 </v>
  <v type="int" >       73 </v>
  <v type="int" >      203 </v>
  <v type="int" >      187 </v>
  <v type="int" >        2 </v>
  <v type="int" >        3 </v>
  <v type="int" >        8 </v>
  <v type="int" >      175 </v>
  <v type="int" >       71 </v>
  <v type="int" >      243 </v>
  <v type="int" >       26 </v>
  <v type="int" >      234 </v>
  <v type="int" >      253 </v>
  <v type="int" >      288 </v>
  <v type="int" >      207 </v>
  <v type="int" >      128 </v>
  <v type="int" >      233 </v>
  <v type="int" >      102 </v>
  <v type="int" >      258 </v>
  <v type="int" >       32 </v>
  <v type="int" >      119 </v>
  <v type="int" >      155 </v>
  <v type="int" >      126 </v>
  <v type="int" >      114 </v>
  <v type="int" >        5 </v>
  <v type="int" >       74 </v>
  <v type="int" >       24 </v>
  <v type="int" >      179 </v>
  <v type="int" >      218 </v>
  <v type="int" >      130 </v>
  <v type="int" >      221 </v>
  <v type="int" >      254 </v>
  <v type="int" >       37 </v>
  <v type="int" >      262 </v>
  <v type="int" >      145 </v>
  <v type="int" >       82 </v>
  <v type="int" >      196 </v>
  <v type="int" >      151 </v>
  <v type="int" >      121 </v>
  <v type="int" >       52 </v>
  <v type="int" >      137 </v>
  <v type="int" >       35 </v>
  <v type="int" >      124 </v>
  <v type="int" >      100 </v>
  <v type="int" >       97 </v>
  <v type="int" >      129 </v>
  <v type="int" >      241 </v>
  <v type="int" >      275 </v>
  <v type="int" >        7 </v>
  <v type="int" >       90 </v>
  <v type="int" >      271 </v>
  <v type="int" >      118 </v>
  <v type="int" >      103 </v>
  <v type="int" >        9 </v>
  <v type="int" >      255 </v>
  <v type="int" >      134 </v>
  <v type="int" >      144 </v>
  <v type="int" >      263 </v>
  <v type="int" >       56 </v>
  <v type="int" >      257 </v>
  <v type="int" >       94 </v>
  <v type="int" >       96 </v>
  <v type="int" >      260 </v>
  <v type="int" >      157 </v>
  <v type="int" >       99 </v>
  <v type="int" >      269 </v>
  <v type="int" >       48 </v>
  <v type="int" >      200 </v>
  <v type="int" >      272 </v>
  <v type="int" >      160 </v>
  <v type="int" >      239 </v>
  <v type="int" >       34 </v>
  <v type="int" >      259 </v>
  <v type="int" >      173 </v>
  <v type="int" >      279 </v>
  <v type="int" >       33 </v>
  <v type="int" >      116 </v>
  <v type="int" >      111 </v>
  <v type="int" >      177 </v>
  <v type="int" >      217 </v>
  <v type="int" >       17 </v>
  <v type="int" >      237 </v>
  <v type="int" >      232 </v>
  <v type="int" >      167 </v>
  <v type="int" >      135 </v>
  <v type="int" >       61 </v>
  <v type="int" >      101 </v>
  <v type="int" >      285 </v>
  <v type="int" >      276 </v>
  <v type="int" >       85 </v>
  <v type="int" >      211 </v>
  <v type="int" >       95 </v>
  <v type="int" >      208 </v>
  <v type="int" >      181 </v>
  <v type="int" >      174 </v>
  <v type="int" >      220 </v>
  <v type="int" >      138 </v>
  <v type="int" >      215 </v>
  <v type="int" >      185 </v>
  <v type="int" >      147 </v>
  <v type="int" >       11 </v>
  <v type="int" >      146 </v>
  <v type="int" >      194 </v>
  <v type="int" >      238 </v>
  <v type="int" >      140 </v>
  <v type="int" >      212 </v>
  <v type="int" >      192 </v>
  <v type="int" >      132 </v>
  <v type="int" >       64 </v>
  <v type="int" >      183 </v>
  <v type="int" >      213 </v>
  <v type="int" >       55 </v>
  <v type="int" >      268 </v>
  <v type="int" >       40 </v>
  <v type="int" >       80 </v>
  <v type="int" >       43 </v>
  <v type="int" >       76 </v>
  <v type="int" >       93 </v>
  <v type="int" >       63 </v>
  <v type="int" >      227 </v>
  <v type="int" >      286 </v>
  <v type="int" >       67 </v>
  <v type="int" >      143 </v>
  <v type="int" >      112 </v>
  <v type="int" >      197 </v>
  <v type="int" >      222 </v>
  <v type="int" >      142 </v>
  <v type="int" >      209 </v>
  <v type="int" >      172 </v>
  <v type="int" >      216 </v>
  <v type="int" >       57 </v>
  <v type="int" >      224 </v>
  <v type="int" >      274 </v>
  <v type="int" >      188 </v>
  <v type="int" >       18 </v>
  <v type="int" >      109 </v>
  <v type="int" >       89 </v>
  <v type="int" >      166 </v>
  <v type="int" >       49 </v>
  <v type="int" >      171 </v>
  <v type="int" >       39 </v>
  <v type="int" >       21 </v>
  <v type="int" >       98 </v>
  <v type="int" >      235 </v>
  <v type="int" >      148 </v>
  <v type="int" >       38 </v>
  <v type="int" >      242 </v>
  <v type="int" >       79 </v>
  <v type="int" >      249 </v>
  <v type="int" >      150 </v>
  <v type="int" >      256 </v>
  <v type="int" >      252 </v>
  <v type="int" >       22 </v>
  <v type="int" >       65 </v>
  <v type="int" >      168 </v>
  <v type="int" >      127 </v>
  <v type="int" >      278 </v>
  <v type="int" >      133 </v>
  <v type="int" >      228 </v>
  <v type="int" >       92 </v>
  <v type="int" >       72 </v>
  <v type="int" >      199 </v>
  <v type="int" >        6 </v>
  <v type="int" >      245 </v>
  <v type="int" >      281 </v>
  <v type="int" >        4 </v>
  <v type="int" >       36 </v>
  <v type="int" >      108 </v>
  <v type="int" >      159 </v>
  <v type="int" >      191 </v>
  <v type="int" >       15 </v>
  <v type="int" >       91 </v>
  <v type="int" >      231 </v>
  <v type="int" >       88 </v>
  <v type="int" >      198 </v>
  <v type="int" >       30 </v>
  <v type="int" >      236 </v>
  <v type="int" >      201 </v>
  <v type="int" >       45 </v>
  <v type="int" >       28 </v>
  <v type="int" >      240 </v>
  <v type="int" >       13 </v>
  <v type="int" >      178 </v>
  <v type="int" >      161 </v>
 </varray>
 <kpoints>
  <generation param="Gamma">
   <v type="int" name="divisions">       4        4        1 </v>
   <v name="usershift">      0.00000000       0.00000000       0.00000000 </v>
   <v name="genvec1">      0.25000000       0.00000000       0.00000000 </v>
   <v name="genvec2">      0.00000000       0.25000000       0.00000000 </v>
   <v name="genvec3">      0.00000000       0.00000000       1.00000000 </v>
   <v name="shift">      0.00000000       0.00000000       0.00000000 </v>
  </generation>
  <varray name="kpointlist" >
   <v>       0.00000000       0.00000000       0.00000000 </v>
   <v>       0.25000000       0.00000000       0.00000000 </v>
   <v>       0.50000000       0.00000000       0.00000000 </v>
   <v>       0.00000000       0.25000000       0.00000000 </v>
   <v>       0.25000000       0.25000000       0.00000000 </v>
   <v>       0.50000000       0.25000000       0.00000000 </v>
   <v>      -0.25000000       0.25000000       0.00000000 </v>
   <v>       0.00000000       0.50000000       0.00000000 </v>
   <v>       0.25000000       0.50000000       0.00000000 </v>
   <v>       0.50000000       0.50000000       0.00000000 </v>
  </varray>
  <varray name="weights" >
   <v>       0.06250000 </v>
   <v>       0.12500000 </v>
   <v>       0.06250000 </v>
   <v>       0.12500000 </v>
   <v>       0.12500000 </v>
   <v>       0.12500000 </v>
   <v>       0.12500000 </v>
   <v>       0.06250000 </v>
   <v>       0.12500000 </v>
   <v>       0.06250000 </v>
  </varray>
 </kpoints>
 <parameters>
  <separator name="general" >
   <i type="string" name="SYSTEM">unknown system</i>
   <i type="logical" name="LCOMPAT"> F  </i>
  </separator>
  <separator name="electronic" >
   <i type="string" name="PREC">accura</i>
   <i name="ENMAX">    500.00000000</i>
   <i name="ENAUG">    838.43500000</i>
   <i name="EDIFF">      0.00001000</i>
   <i type="int" name="IALGO">    68</i>
   <i type="int" name="IWAVPR">    11</i>
   <i type="int" name="NBANDS">  1380</i>
   <i name="NELECT">   2289.00000000</i>
   <i type="int" name="TURBO">     0</i>
   <i type="int" name="IRESTART">     0</i>
   <i type="int" name="NREBOOT">     0</i>
   <i type="int" name="NMIN">     0</i>
   <i name="EREF">      0.00000000</i>
   <separator name="electronic smearing" >
    <i type="int" name="ISMEAR">     0</i>
    <i name="SIGMA">      0.15000000</i>
    <i name="KSPACING">      0.50000000</i>
    <i type="logical" name="KGAMMA"> T  </i>
   </separator>
   <separator name="electronic projectors" >
    <i type="logical" name="LREAL"> T  </i>
    <v name="ROPT">     -0.00025000     -0.00025000</v>
    <i type="int" name="LMAXPAW">  -100</i>
    <i type="int" name="LMAXMIX">     2</i>
    <i type="logical" name="NLSPLINE"> F  </i>
   </separator>
   <separator name="electronic startup" >
    <i type="int" name="ISTART">     0</i>
    <i type="int" name="ICHARG">     2</i>
    <i type="int" name="INIWAV">     1</i>
   </separator>
   <separator name="electronic spin" >
    <i type="int" name="ISPIN">     1</i>
    <i type="logical" name="LNONCOLLINEAR"> F  </i>
    <v name="MAGMOM">      1.00000000      1.00000000      1.00000000      1.00000000      1.00000000      1.00000000      1.00000000      1.00000000      1.00000000      1.00000000      1.00000000      1.00000000      1.00000000      1.00000000      1.00000000      1.00000000      1.00000000      1.00000000      1.00000000      1.00000000
      1.00000000      1.00000000      1.00000000      1.00000000      1.00000000      1.00000000      1.00000000      1.00000000      1.00000000      1.00000000      1.00000000      1.00000000      1.00000000      1.00000000      1.00000000      1.00000000      1.00000000      1.00000000      1.00000000      1.00000000
      1.00000000      1.00000000      1.00000000      1.00000000      1.00000000      1.00000000      1.00000000      1.00000000      1.00000000      1.00000000      1.00000000      1.00000000      1.00000000      1.00000000      1.00000000      1.00000000      1.00000000      1.00000000      1.00000000      1.00000000
      1.00000000      1.00000000      1.00000000      1.00000000      1.00000000      1.00000000      1.00000000      1.00000000      1.00000000      1.00000000      1.00000000      1.00000000      1.00000000      1.00000000      1.00000000      1.00000000      1.00000000      1.00000000      1.00000000      1.00000000
      1.00000000      1.00000000      1.00000000      1.00000000      1.00000000      1.00000000      1.00000000      1.00000000      1.00000000      1.00000000      1.00000000      1.00000000      1.00000000      1.00000000      1.00000000      1.00000000      1.00000000      1.00000000      1.00000000      1.00000000
      1.00000000      1.00000000      1.00000000      1.00000000      1.00000000      1.00000000      1.00000000      1.00000000      1.00000000      1.00000000      1.00000000      1.00000000      1.00000000      1.00000000      1.00000000      1.00000000      1.00000000      1.00000000      1.00000000      1.00000000
      1.00000000      1.00000000      1.00000000      1.00000000      1.00000000      1.00000000      1.00000000      1.00000000      1.00000000      1.00000000      1.00000000      1.00000000      1.00000000      1.00000000      1.00000000      1.00000000      1.00000000      1.00000000      1.00000000      1.00000000
      1.00000000      1.00000000      1.00000000      1.00000000      1.00000000      1.00000000      1.00000000      1.00000000      1.00000000      1.00000000      1.00000000      1.00000000      1.00000000      1.00000000      1.00000000      1.00000000      1.00000000      1.00000000      1.00000000      1.00000000
      1.00000000      1.00000000      1.00000000      1.00000000      1.00000000      1.00000000      1.00000000      1.00000000      1.00000000      1.00000000      1.00000000      1.00000000      1.00000000      1.00000000      1.00000000      1.00000000      1.00000000      1.00000000      1.00000000      1.00000000
      1.00000000      1.00000000      1.00000000      1.00000000      1.00000000      1.00000000      1.00000000      1.00000000      1.00000000      1.00000000      1.00000000      1.00000000      1.00000000      1.00000000      1.00000000      1.00000000      1.00000000      1.00000000      1.00000000      1.00000000
      1.00000000      1.00000000      1.00000000      1.00000000      1.00000000      1.00000000      1.00000000      1.00000000      1.00000000      1.00000000      1.00000000      1.00000000      1.00000000      1.00000000      1.00000000      1.00000000      1.00000000      1.00000000      1.00000000      1.00000000
      1.00000000      1.00000000      1.00000000      1.00000000      1.00000000      1.00000000      1.00000000      1.00000000      1.00000000      1.00000000      1.00000000      1.00000000      1.00000000      1.00000000      1.00000000      1.00000000      1.00000000      1.00000000      1.00000000      1.00000000
      1.00000000      1.00000000      1.00000000      1.00000000      1.00000000      1.00000000      1.00000000      1.00000000      1.00000000      1.00000000      1.00000000      1.00000000      1.00000000      1.00000000      1.00000000      1.00000000      1.00000000      1.00000000      1.00000000      1.00000000
      1.00000000      1.00000000      1.00000000      1.00000000      1.00000000      1.00000000      1.00000000      1.00000000      1.00000000      1.00000000      1.00000000      1.00000000      1.00000000      1.00000000      1.00000000      1.00000000      1.00000000      1.00000000      1.00000000      1.00000000
      1.00000000      1.00000000      1.00000000      1.00000000      1.00000000      1.00000000      1.00000000      1.00000000</v>
    <i name="NUPDOWN">     -1.00000000</i>
    <i type="logical" name="LSORBIT"> F  </i>
    <v name="SAXIS">      0.00000000      0.00000000      1.00000000</v>
    <i type="logical" name="LSPIRAL"> F  </i>
    <v name="QSPIRAL">      0.00000000      0.00000000      0.00000000</v>
    <i type="logical" name="LZEROZ"> F  </i>
   </separator>
   <separator name="electronic exchange-correlation" >
    <i type="logical" name="LASPH"> F  </i>
    <i type="logical" name="LMETAGGA"> F  </i>
   </separator>
   <separator name="electronic convergence" >
    <i type="int" name="NELM">   100</i>
    <i type="int" name="NELMDL">     0</i>
    <i type="int" name="NELMIN">     4</i>
    <i name="ENINI">    500.00000000</i>
    <separator name="electronic convergence detail" >
     <i type="logical" name="LDIAG"> T  </i>
     <i type="logical" name="LSUBROT"> F  </i>
     <i name="WEIMIN">      0.00100000</i>
     <i name="EBREAK">      0.00000000</i>
     <i name="DEPER">      0.30000000</i>
     <i type="int" name="NRMM">     4</i>
     <i name="TIME">      0.40000000</i>
    </separator>
   </separator>
   <separator name="electronic mixer" >
    <i name="AMIX">      0.40000000</i>
    <i name="BMIX">      1.00000000</i>
    <i name="AMIN">      0.10000000</i>
    <i name="AMIX_MAG">      1.60000000</i>
    <i name="BMIX_MAG">      1.00000000</i>
    <separator name="electronic mixer details" >
     <i type="int" name="IMIX">     4</i>
     <i type="logical" name="MIXFIRST"> F  </i>
     <i type="int" name="MAXMIX">   -45</i>
     <i name="WC">    100.00000000</i>
     <i type="int" name="INIMIX">     1</i>
     <i type="int" name="MIXPRE">     1</i>
     <i type="int" name="MREMOVE">     5</i>
    </separator>
   </separator>
   <separator name="electronic dipolcorrection" >
    <i type="logical" name="LDIPOL"> F  </i>
    <i type="logical" name="LMONO"> F  </i>
    <i type="int" name="IDIPOL">     0</i>
    <i name="EPSILON">      1.00000000</i>
    <v name="DIPOL">   -100.00000000   -100.00000000   -100.00000000</v>
    <i name="EFIELD">      0.00000000</i>
   </separator>
  </separator>
  <separator name="grids" >
   <i type="int" name="NGX">    72</i>
   <i type="int" name="NGY">    64</i>
   <i type="int" name="NGZ">   336</i>
   <i type="int" name="NGXF">   144</i>
   <i type="int" name="NGYF">   128</i>
   <i type="int" name="NGZF">   672</i>
   <i type="logical" name="ADDGRID"> F  </i>
  </separator>
  <separator name="ionic" >
   <i type="int" name="NSW">   500</i>
   <i type="int" name="IBRION">     2</i>
   <i type="int" name="MDALGO">     0</i>
   <i type="int" name="ISIF">     2</i>
   <i name="PSTRESS">      0.00000000</i>
   <i name="EDIFFG">      0.00010000</i>
   <i type="int" name="NFREE">     1</i>
   <i name="POTIM">      0.25000000</i>
   <i name="SMASS">     -3.00000000</i>
   <i name="SCALEE">      1.00000000</i>
  </separator>
  <separator name="ionic md" >
   <i name="TEBEG">      0.00010000</i>
   <i name="TEEND">      0.00010000</i>
   <i type="int" name="NBLOCK">     1</i>
   <i type="int" name="KBLOCK">   500</i>
   <i type="int" name="NPACO">   256</i>
   <i name="APACO">     16.00000000</i>
  </separator>
  <separator name="symmetry" >
   <i type="int" name="ISYM">     2</i>
   <i name="SYMPREC">      0.00001000</i>
  </separator>
  <separator name="dos" >
   <i type="int" name="LORBIT">     0</i>
   <v name="RWIGS">     -1.00000000     -1.00000000</v>
   <i type="int" name="NEDOS">   301</i>
   <i name="EMIN">     10.00000000</i>
   <i name="EMAX">    -10.00000000</i>
   <i name="EFERMI">      0.00000000</i>
  </separator>
  <separator name="writing" >
   <i type="int" name="NWRITE">     2</i>
   <i type="logical" name="LWAVE"> F  </i>
   <i type="logical" name="LDOWNSAMPLE"> F  </i>
   <i type="logical" name="LCHARG"> F  </i>
   <i type="logical" name="LPARD"> F  </i>
   <i type="logical" name="LVTOT"> F  </i>
   <i type="logical" name="LVHAR"> F  </i>
   <i type="logical" name="LELF"> F  </i>
   <i type="logical" name="LOPTICS"> F  </i>
   <v name="STM">      0.00000000      0.00000000      0.00000000      0.00000000      0.00000000      0.00000000      0.00000000</v>
  </separator>
  <separator name="performance" >
   <i type="int" name="NPAR">    10</i>
   <i type="int" name="NSIM">     4</i>
   <i type="int" name="NBLK">    -1</i>
   <i type="logical" name="LPLANE"> T  </i>
   <i type="logical" name="LSCALAPACK"> F  </i>
   <i type="logical" name="LSCAAWARE"> F  </i>
   <i type="logical" name="LSCALU"> F  </i>
   <i type="logical" name="LASYNC"> F  </i>
   <i type="logical" name="LORBITALREAL"> F  </i>
  </separator>
  <separator name="miscellaneous" >
   <i type="int" name="IDIOT">     3</i>
   <i type="int" name="ISPECIAL">     0</i>
   <i type="logical" name="LMUSIC"> F  </i>
   <v name="POMASS">     55.84700000     54.93800000</v>
   <v name="DARWINR">      0.00000000      0.00000000</v>
   <v name="DARWINV">      1.00000000      1.00000000</v>
   <i type="logical" name="LCORR"> T  </i>
  </separator>
  <i type="logical" name="GGA_COMPAT"> T  </i>
  <i type="logical" name="LBERRY"> F  </i>
  <i type="int" name="ICORELEVEL">     0</i>
  <i type="logical" name="LDAU"> F  </i>
  <i type="int" name="I_CONSTRAINED_M">     0</i>
  <separator name="electronic exchange-correlation" >
   <i type="string" name="GGA">--</i>
   <i type="int" name="VOSKOWN">     0</i>
   <i type="logical" name="LHFCALC"> F  </i>
   <i type="string" name="PRECFOCK"></i>
   <i type="logical" name="LSYMGRAD"> F  </i>
   <i type="logical" name="LHFONE"> F  </i>
   <i type="logical" name="LRHFCALC"> F  </i>
   <i type="logical" name="LTHOMAS"> F  </i>
   <i type="logical" name="LMODELHF"> F  </i>
   <i name="ENCUT4O">     -1.00000000</i>
   <i type="int" name="EXXOEP">     0</i>
   <i type="int" name="FOURORBIT">     0</i>
   <i name="AEXX">      0.00000000</i>
   <i name="HFALPHA">      0.00000000</i>
   <i name="MCALPHA">      0.00000000</i>
   <i name="ALDAX">      1.00000000</i>
   <i name="AGGAX">      1.00000000</i>
   <i name="ALDAC">      1.00000000</i>
   <i name="AGGAC">      1.00000000</i>
   <i type="int" name="NKREDX">     1</i>
   <i type="int" name="NKREDY">     1</i>
   <i type="int" name="NKREDZ">     1</i>
   <i type="logical" name="SHIFTRED"> F  </i>
   <i type="logical" name="ODDONLY"> F  </i>
   <i type="logical" name="EVENONLY"> F  </i>
   <i type="int" name="LMAXFOCK">     0</i>
   <i type="int" name="NMAXFOCKAE">     0</i>
   <i type="logical" name="LFOCKAEDFT"> F  </i>
   <i name="HFSCREEN">      0.00000000</i>
   <i name="HFSCREENC">      0.00000000</i>
   <i type="int" name="NBANDSGWLOW">     0</i>
  </separator>
  <separator name="vdW DFT" >
   <i type="logical" name="LUSE_VDW"> F  </i>
   <i name="Zab_VDW">     -0.84910000</i>
   <i name="PARAM1">      0.12340000</i>
   <i name="PARAM2">      1.00000000</i>
   <i name="PARAM3">      0.00000000</i>
  </separator>
  <separator name="model GW" >
   <i type="int" name="MODEL_GW">     0</i>
   <i name="MODEL_EPS0">      7.68123361</i>
   <i name="MODEL_ALPHA">      1.00000000</i>
  </separator>
  <separator name="linear response parameters" >
   <i type="logical" name="LEPSILON"> F  </i>
   <i type="logical" name="LRPA"> F  </i>
   <i type="logical" name="LNABLA"> F  </i>
   <i type="logical" name="LVEL"> F  </i>
   <i type="int" name="KINTER">     0</i>
   <i name="CSHIFT">      0.10000000</i>
   <i name="OMEGAMAX">     -1.00000000</i>
   <i name="DEG_THRESHOLD">      0.00200000</i>
   <i name="RTIME">     -0.10000000</i>
   <i name="WPLASMAI">      0.00000000</i>
   <v name="DFIELD">      0.00000000      0.00000000      0.00000000</v>
   <v name="WPLASMA">      0.00000000      0.00000000      0.00000000      0.00000000      0.00000000      0.00000000      0.00000000      0.00000000      0.00000000</v>
  </separator>
  <separator name="orbital magnetization" >
   <i type="logical" name="NUCIND"> F  </i>
   <v name="MAGPOS">      0.00000000      0.00000000      0.00000000</v>
   <i type="logical" name="LNICSALL"> T  </i>
   <i type="logical" name="ORBITALMAG"> F  </i>
   <i type="logical" name="LMAGBLOCH"> F  </i>
   <i type="logical" name="LCHIMAG"> F  </i>
   <i type="logical" name="LGAUGE"> T  </i>
   <i type="int" name="MAGATOM">     0</i>
   <v name="MAGDIPOL">      0.00000000      0.00000000      0.00000000</v>
   <v name="AVECCONST">      0.00000000      0.00000000      0.00000000</v>
  </separator>
  <separator name="response functions" >
   <i type="logical" name="LADDER"> F  </i>
   <i type="logical" name="LRPAFORCE"> F  </i>
   <i type="logical" name="LFXC"> F  </i>
   <i type="logical" name="LHARTREE"> T  </i>
   <i type="int" name="IBSE">     0</i>
   <v type="int" name="KPOINT">    -1     0     0     0</v>
   <i type="logical" name="LTCTE"> F  </i>
   <i type="logical" name="LTETE"> F  </i>
   <i type="logical" name="LTRIPLET"> F  </i>
   <i type="logical" name="LFXCEPS"> F  </i>
   <i type="logical" name="LFXHEG"> F  </i>
   <i type="int" name="NATURALO">     2</i>
   <i type="logical" name="L2ORDER"> F  </i>
   <i type="logical" name="LMP2LT"> F  </i>
   <i type="logical" name="LUSEW"> F  </i>
   <i name="ENCUTGW">     -2.00000000</i>
   <i name="ENCUTGWSOFT">     -2.00000000</i>
   <i name="ENCUTLF">     -1.00000000</i>
   <i type="int" name="LMAXMP2">    -1</i>
   <i name="SCISSOR">      0.00000000</i>
   <i type="int" name="NOMEGA">     0</i>
   <i type="int" name="NOMEGAR">     0</i>
   <i type="int" name="NBANDSGW">    -1</i>
   <i type="int" name="NBANDSO">    -1</i>
   <i type="int" name="NBANDSV">    -1</i>
   <i type="int" name="NELM">   100</i>
   <i type="int" name="NELMHF">     1</i>
   <i type="int" name="DIM">     3</i>
   <i type="int" name="ANTIRES">     0</i>
   <i name="OMEGAMAX">    -30.00000000</i>
   <i name="OMEGAMIN">    -30.00000000</i>
   <i name="OMEGATL">   -200.00000000</i>
   <i type="int" name="OMEGAGRID">   140</i>
   <i name="CSHIFT">     -0.10000000</i>
   <i type="logical" name="SELFENERGY"> F  </i>
   <i type="logical" name="LSPECTRAL"> F  </i>
   <i type="logical" name="LSPECTRALGW"> F  </i>
   <i type="logical" name="LSINGLES"> F  </i>
   <i type="logical" name="LFERMIGW"> F  </i>
   <i type="logical" name="ODDONLYGW"> F  </i>
   <i type="logical" name="EVENONLYGW"> F  </i>
   <i type="int" name="NKREDLFX">     1</i>
   <i type="int" name="NKREDLFY">     1</i>
   <i type="int" name="NKREDLFZ">     1</i>
   <i type="int" name="MAXMEM">  2800</i>
   <i type="int" name="TELESCOPE">     0</i>
   <i type="int" name="TAUPAR">     1</i>
   <i type="int" name="OMEGAPAR">    -1</i>
   <i name="LAMBDA">      1.00000000</i>
  </separator>
  <separator name="External order field" >
   <i name="OFIELD_KAPPA">      0.00000000</i>
   <v name="OFIELD_K">      0.00000000      0.00000000      0.00000000</v>
   <i name="OFIELD_Q6_NEAR">      0.00000000</i>
   <i name="OFIELD_Q6_FAR">      0.00000000</i>
   <i name="OFIELD_A">      0.00000000</i>
  </separator>
 </parameters>
 <atominfo>
  <atoms>     288 </atoms>
  <types>       2 </types>
  <array name="atoms" >
   <dimension dim="1">ion</dimension>
   <field type="string">element</field>
   <field type="int">atomtype</field>
   <set>
    <rc><c>Fe</c><c>   1</c></rc>
    <rc><c>Fe</c><c>   1</c></rc>
    <rc><c>Fe</c><c>   1</c></rc>
    <rc><c>Fe</c><c>   1</c></rc>
    <rc><c>Fe</c><c>   1</c></rc>
    <rc><c>Fe</c><c>   1</c></rc>
    <rc><c>Fe</c><c>   1</c></rc>
    <rc><c>Fe</c><c>   1</c></rc>
    <rc><c>Fe</c><c>   1</c></rc>
    <rc><c>Fe</c><c>   1</c></rc>
    <rc><c>Fe</c><c>   1</c></rc>
    <rc><c>Fe</c><c>   1</c></rc>
    <rc><c>Fe</c><c>   1</c></rc>
    <rc><c>Fe</c><c>   1</c></rc>
    <rc><c>Fe</c><c>   1</c></rc>
    <rc><c>Fe</c><c>   1</c></rc>
    <rc><c>Fe</c><c>   1</c></rc>
    <rc><c>Fe</c><c>   1</c></rc>
    <rc><c>Fe</c><c>   1</c></rc>
    <rc><c>Fe</c><c>   1</c></rc>
    <rc><c>Fe</c><c>   1</c></rc>
    <rc><c>Fe</c><c>   1</c></rc>
    <rc><c>Fe</c><c>   1</c></rc>
    <rc><c>Fe</c><c>   1</c></rc>
    <rc><c>Fe</c><c>   1</c></rc>
    <rc><c>Fe</c><c>   1</c></rc>
    <rc><c>Fe</c><c>   1</c></rc>
    <rc><c>Fe</c><c>   1</c></rc>
    <rc><c>Fe</c><c>   1</c></rc>
    <rc><c>Fe</c><c>   1</c></rc>
    <rc><c>Fe</c><c>   1</c></rc>
    <rc><c>Fe</c><c>   1</c></rc>
    <rc><c>Fe</c><c>   1</c></rc>
    <rc><c>Fe</c><c>   1</c></rc>
    <rc><c>Fe</c><c>   1</c></rc>
    <rc><c>Fe</c><c>   1</c></rc>
    <rc><c>Fe</c><c>   1</c></rc>
    <rc><c>Fe</c><c>   1</c></rc>
    <rc><c>Fe</c><c>   1</c></rc>
    <rc><c>Fe</c><c>   1</c></rc>
    <rc><c>Fe</c><c>   1</c></rc>
    <rc><c>Fe</c><c>   1</c></rc>
    <rc><c>Fe</c><c>   1</c></rc>
    <rc><c>Fe</c><c>   1</c></rc>
    <rc><c>Fe</c><c>   1</c></rc>
    <rc><c>Fe</c><c>   1</c></rc>
    <rc><c>Fe</c><c>   1</c></rc>
    <rc><c>Fe</c><c>   1</c></rc>
    <rc><c>Fe</c><c>   1</c></rc>
    <rc><c>Fe</c><c>   1</c></rc>
    <rc><c>Fe</c><c>   1</c></rc>
    <rc><c>Fe</c><c>   1</c></rc>
    <rc><c>Fe</c><c>   1</c></rc>
    <rc><c>Fe</c><c>   1</c></rc>
    <rc><c>Fe</c><c>   1</c></rc>
    <rc><c>Fe</c><c>   1</c></rc>
    <rc><c>Fe</c><c>   1</c></rc>
    <rc><c>Fe</c><c>   1</c></rc>
    <rc><c>Fe</c><c>   1</c></rc>
    <rc><c>Fe</c><c>   1</c></rc>
    <rc><c>Fe</c><c>   1</c></rc>
    <rc><c>Fe</c><c>   1</c></rc>
    <rc><c>Fe</c><c>   1</c></rc>
    <rc><c>Fe</c><c>   1</c></rc>
    <rc><c>Fe</c><c>   1</c></rc>
    <rc><c>Fe</c><c>   1</c></rc>
    <rc><c>Fe</c><c>   1</c></rc>
    <rc><c>Fe</c><c>   1</c></rc>
    <rc><c>Fe</c><c>   1</c></rc>
    <rc><c>Fe</c><c>   1</c></rc>
    <rc><c>Fe</c><c>   1</c></rc>
    <rc><c>Fe</c><c>   1</c></rc>
    <rc><c>Fe</c><c>   1</c></rc>
    <rc><c>Fe</c><c>   1</c></rc>
    <rc><c>Fe</c><c>   1</c></rc>
    <rc><c>Fe</c><c>   1</c></rc>
    <rc><c>Fe</c><c>   1</c></rc>
    <rc><c>Fe</c><c>   1</c></rc>
    <rc><c>Fe</c><c>   1</c></rc>
    <rc><c>Fe</c><c>   1</c></rc>
    <rc><c>Fe</c><c>   1</c></rc>
    <rc><c>Fe</c><c>   1</c></rc>
    <rc><c>Fe</c><c>   1</c></rc>
    <rc><c>Fe</c><c>   1</c></rc>
    <rc><c>Fe</c><c>   1</c></rc>
    <rc><c>Fe</c><c>   1</c></rc>
    <rc><c>Fe</c><c>   1</c></rc>
    <rc><c>Fe</c><c>   1</c></rc>
    <rc><c>Fe</c><c>   1</c></rc>
    <rc><c>Fe</c><c>   1</c></rc>
    <rc><c>Fe</c><c>   1</c></rc>
    <rc><c>Fe</c><c>   1</c></rc>
    <rc><c>Fe</c><c>   1</c></rc>
    <rc><c>Fe</c><c>   1</c></rc>
    <rc><c>Fe</c><c>   1</c></rc>
    <rc><c>Fe</c><c>   1</c></rc>
    <rc><c>Fe</c><c>   1</c></rc>
    <rc><c>Fe</c><c>   1</c></rc>
    <rc><c>Fe</c><c>   1</c></rc>
    <rc><c>Fe</c><c>   1</c></rc>
    <rc><c>Fe</c><c>   1</c></rc>
    <rc><c>Fe</c><c>   1</c></rc>
    <rc><c>Fe</c><c>   1</c></rc>
    <rc><c>Fe</c><c>   1</c></rc>
    <rc><c>Fe</c><c>   1</c></rc>
    <rc><c>Fe</c><c>   1</c></rc>
    <rc><c>Fe</c><c>   1</c></rc>
    <rc><c>Fe</c><c>   1</c></rc>
    <rc><c>Fe</c><c>   1</c></rc>
    <rc><c>Fe</c><c>   1</c></rc>
    <rc><c>Fe</c><c>   1</c></rc>
    <rc><c>Fe</c><c>   1</c></rc>
    <rc><c>Fe</c><c>   1</c></rc>
    <rc><c>Fe</c><c>   1</c></rc>
    <rc><c>Fe</c><c>   1</c></rc>
    <rc><c>Fe</c><c>   1</c></rc>
    <rc><c>Fe</c><c>   1</c></rc>
    <rc><c>Fe</c><c>   1</c></rc>
    <rc><c>Fe</c><c>   1</c></rc>
    <rc><c>Fe</c><c>   1</c></rc>
    <rc><c>Fe</c><c>   1</c></rc>
    <rc><c>Fe</c><c>   1</c></rc>
    <rc><c>Fe</c><c>   1</c></rc>
    <rc><c>Fe</c><c>   1</c></rc>
    <rc><c>Fe</c><c>   1</c></rc>
    <rc><c>Fe</c><c>   1</c></rc>
    <rc><c>Fe</c><c>   1</c></rc>
    <rc><c>Fe</c><c>   1</c></rc>
    <rc><c>Fe</c><c>   1</c></rc>
    <rc><c>Fe</c><c>   1</c></rc>
    <rc><c>Fe</c><c>   1</c></rc>
    <rc><c>Fe</c><c>   1</c></rc>
    <rc><c>Fe</c><c>   1</c></rc>
    <rc><c>Fe</c><c>   1</c></rc>
    <rc><c>Fe</c><c>   1</c></rc>
    <rc><c>Fe</c><c>   1</c></rc>
    <rc><c>Fe</c><c>   1</c></rc>
    <rc><c>Fe</c><c>   1</c></rc>
    <rc><c>Fe</c><c>   1</c></rc>
    <rc><c>Fe</c><c>   1</c></rc>
    <rc><c>Fe</c><c>   1</c></rc>
    <rc><c>Fe</c><c>   1</c></rc>
    <rc><c>Fe</c><c>   1</c></rc>
    <rc><c>Fe</c><c>   1</c></rc>
    <rc><c>Fe</c><c>   1</c></rc>
    <rc><c>Fe</c><c>   1</c></rc>
    <rc><c>Fe</c><c>   1</c></rc>
    <rc><c>Fe</c><c>   1</c></rc>
    <rc><c>Fe</c><c>   1</c></rc>
    <rc><c>Fe</c><c>   1</c></rc>
    <rc><c>Fe</c><c>   1</c></rc>
    <rc><c>Fe</c><c>   1</c></rc>
    <rc><c>Fe</c><c>   1</c></rc>
    <rc><c>Fe</c><c>   1</c></rc>
    <rc><c>Fe</c><c>   1</c></rc>
    <rc><c>Fe</c><c>   1</c></rc>
    <rc><c>Fe</c><c>   1</c></rc>
    <rc><c>Fe</c><c>   1</c></rc>
    <rc><c>Fe</c><c>   1</c></rc>
    <rc><c>Fe</c><c>   1</c></rc>
    <rc><c>Fe</c><c>   1</c></rc>
    <rc><c>Fe</c><c>   1</c></rc>
    <rc><c>Fe</c><c>   1</c></rc>
    <rc><c>Fe</c><c>   1</c></rc>
    <rc><c>Fe</c><c>   1</c></rc>
    <rc><c>Fe</c><c>   1</c></rc>
    <rc><c>Fe</c><c>   1</c></rc>
    <rc><c>Fe</c><c>   1</c></rc>
    <rc><c>Fe</c><c>   1</c></rc>
    <rc><c>Fe</c><c>   1</c></rc>
    <rc><c>Fe</c><c>   1</c></rc>
    <rc><c>Fe</c><c>   1</c></rc>
    <rc><c>Fe</c><c>   1</c></rc>
    <rc><c>Fe</c><c>   1</c></rc>
    <rc><c>Fe</c><c>   1</c></rc>
    <rc><c>Fe</c><c>   1</c></rc>
    <rc><c>Fe</c><c>   1</c></rc>
    <rc><c>Fe</c><c>   1</c></rc>
    <rc><c>Fe</c><c>   1</c></rc>
    <rc><c>Fe</c><c>   1</c></rc>
    <rc><c>Fe</c><c>   1</c></rc>
    <rc><c>Fe</c><c>   1</c></rc>
    <rc><c>Fe</c><c>   1</c></rc>
    <rc><c>Fe</c><c>   1</c></rc>
    <rc><c>Fe</c><c>   1</c></rc>
    <rc><c>Fe</c><c>   1</c></rc>
    <rc><c>Fe</c><c>   1</c></rc>
    <rc><c>Fe</c><c>   1</c></rc>
    <rc><c>Fe</c><c>   1</c></rc>
    <rc><c>Fe</c><c>   1</c></rc>
    <rc><c>Fe</c><c>   1</c></rc>
    <rc><c>Fe</c><c>   1</c></rc>
    <rc><c>Fe</c><c>   1</c></rc>
    <rc><c>Fe</c><c>   1</c></rc>
    <rc><c>Fe</c><c>   1</c></rc>
    <rc><c>Fe</c><c>   1</c></rc>
    <rc><c>Fe</c><c>   1</c></rc>
    <rc><c>Fe</c><c>   1</c></rc>
    <rc><c>Fe</c><c>   1</c></rc>
    <rc><c>Fe</c><c>   1</c></rc>
    <rc><c>Fe</c><c>   1</c></rc>
    <rc><c>Fe</c><c>   1</c></rc>
    <rc><c>Fe</c><c>   1</c></rc>
    <rc><c>Fe</c><c>   1</c></rc>
    <rc><c>Fe</c><c>   1</c></rc>
    <rc><c>Fe</c><c>   1</c></rc>
    <rc><c>Fe</c><c>   1</c></rc>
    <rc><c>Fe</c><c>   1</c></rc>
    <rc><c>Fe</c><c>   1</c></rc>
    <rc><c>Fe</c><c>   1</c></rc>
    <rc><c>Fe</c><c>   1</c></rc>
    <rc><c>Fe</c><c>   1</c></rc>
    <rc><c>Fe</c><c>   1</c></rc>
    <rc><c>Fe</c><c>   1</c></rc>
    <rc><c>Fe</c><c>   1</c></rc>
    <rc><c>Fe</c><c>   1</c></rc>
    <rc><c>Fe</c><c>   1</c></rc>
    <rc><c>Fe</c><c>   1</c></rc>
    <rc><c>Fe</c><c>   1</c></rc>
    <rc><c>Fe</c><c>   1</c></rc>
    <rc><c>Fe</c><c>   1</c></rc>
    <rc><c>Fe</c><c>   1</c></rc>
    <rc><c>Fe</c><c>   1</c></rc>
    <rc><c>Fe</c><c>   1</c></rc>
    <rc><c>Fe</c><c>   1</c></rc>
    <rc><c>Fe</c><c>   1</c></rc>
    <rc><c>Fe</c><c>   1</c></rc>
    <rc><c>Fe</c><c>   1</c></rc>
    <rc><c>Fe</c><c>   1</c></rc>
    <rc><c>Fe</c><c>   1</c></rc>
    <rc><c>Fe</c><c>   1</c></rc>
    <rc><c>Fe</c><c>   1</c></rc>
    <rc><c>Fe</c><c>   1</c></rc>
    <rc><c>Fe</c><c>   1</c></rc>
    <rc><c>Fe</c><c>   1</c></rc>
    <rc><c>Fe</c><c>   1</c></rc>
    <rc><c>Fe</c><c>   1</c></rc>
    <rc><c>Fe</c><c>   1</c></rc>
    <rc><c>Fe</c><c>   1</c></rc>
    <rc><c>Fe</c><c>   1</c></rc>
    <rc><c>Fe</c><c>   1</c></rc>
    <rc><c>Fe</c><c>   1</c></rc>
    <rc><c>Fe</c><c>   1</c></rc>
    <rc><c>Fe</c><c>   1</c></rc>
    <rc><c>Fe</c><c>   1</c></rc>
    <rc><c>Fe</c><c>   1</c></rc>
    <rc><c>Fe</c><c>   1</c></rc>
    <rc><c>Fe</c><c>   1</c></rc>
    <rc><c>Fe</c><c>   1</c></rc>
    <rc><c>Fe</c><c>   1</c></rc>
    <rc><c>Fe</c><c>   1</c></rc>
    <rc><c>Fe</c><c>   1</c></rc>
    <rc><c>Fe</c><c>   1</c></rc>
    <rc><c>Fe</c><c>   1</c></rc>
    <rc><c>Fe</c><c>   1</c></rc>
    <rc><c>Fe</c><c>   1</c></rc>
    <rc><c>Fe</c><c>   1</c></rc>
    <rc><c>Fe</c><c>   1</c></rc>
    <rc><c>Fe</c><c>   1</c></rc>
    <rc><c>Fe</c><c>   1</c></rc>
    <rc><c>Fe</c><c>   1</c></rc>
    <rc><c>Fe</c><c>   1</c></rc>
    <rc><c>Fe</c><c>   1</c></rc>
    <rc><c>Fe</c><c>   1</c></rc>
    <rc><c>Fe</c><c>   1</c></rc>
    <rc><c>Fe</c><c>   1</c></rc>
    <rc><c>Fe</c><c>   1</c></rc>
    <rc><c>Fe</c><c>   1</c></rc>
    <rc><c>Fe</c><c>   1</c></rc>
    <rc><c>Fe</c><c>   1</c></rc>
    <rc><c>Fe</c><c>   1</c></rc>
    <rc><c>Fe</c><c>   1</c></rc>
    <rc><c>Fe</c><c>   1</c></rc>
    <rc><c>Mn</c><c>   2</c></rc>
    <rc><c>Mn</c><c>   2</c></rc>
    <rc><c>Mn</c><c>   2</c></rc>
    <rc><c>Mn</c><c>   2</c></rc>
    <rc><c>Mn</c><c>   2</c></rc>
    <rc><c>Mn</c><c>   2</c></rc>
    <rc><c>Mn</c><c>   2</c></rc>
    <rc><c>Mn</c><c>   2</c></rc>
    <rc><c>Mn</c><c>   2</c></rc>
    <rc><c>Mn</c><c>   2</c></rc>
    <rc><c>Mn</c><c>   2</c></rc>
    <rc><c>Mn</c><c>   2</c></rc>
    <rc><c>Mn</c><c>   2</c></rc>
    <rc><c>Mn</c><c>   2</c></rc>
    <rc><c>Mn</c><c>   2</c></rc>
   </set>
  </array>
  <array name="atomtypes" >
   <dimension dim="1">type</dimension>
   <field type="int">atomspertype</field>
   <field type="string">element</field>
   <field>mass</field>
   <field>valence</field>
   <field type="string">pseudopotential</field>
   <set>
    <rc><c> 273</c><c>Fe</c><c>     55.84700000</c><c>      8.00000000</c><c>  PAW_PBE Fe_GW 31Mar2010               </c></rc>
    <rc><c>  15</c><c>Mn</c><c>     54.93800000</c><c>      7.00000000</c><c>  PAW_PBE Mn_GW 31Mar2010               </c></rc>
   </set>
  </array>
 </atominfo>
 <structure name="initialpos" >
  <crystal>
   <varray name="basis" >
    <v>       9.72667800       0.00000000       0.00000000 </v>
    <v>       0.00000000       8.42355000       0.00000000 </v>
    <v>       0.00000000       0.00000000      45.00000000 </v>
   </varray>
   <i name="volume">   3686.99213101 </i>
   <varray name="rec_basis" >
    <v>       0.10281002       0.00000000       0.00000000 </v>
    <v>       0.00000000       0.11871479       0.00000000 </v>
    <v>       0.00000000       0.00000000       0.02222222 </v>
   </varray>
  </crystal>
  <varray name="positions" >
   <v>       0.81502311       0.20239497       0.34534800 </v>
   <v>       0.06384641       0.69916724       0.21080599 </v>
   <v>       0.56188447       0.69883205       0.21063091 </v>
   <v>       0.43918814       0.79919106       0.87682845 </v>
   <v>       0.68738892       0.62200937       0.52194488 </v>
   <v>       0.18830027       0.30184672       0.87643842 </v>
   <v>       0.56217818       0.20428994       0.56621455 </v>
   <v>       0.93522874       0.12182208       0.52160948 </v>
   <v>       0.06261649       0.52815508       0.12360357 </v>
   <v>       0.56172635       0.36673080       0.29896911 </v>
   <v>       0.43792078       0.62582596       0.65456363 </v>
   <v>       0.81232929       0.36883347       0.43378408 </v>
   <v>       0.06317727       0.71879113       0.83519757 </v>
   <v>       0.06165744       0.20404576       0.47838350 </v>
   <v>       0.93733554       0.96536005       0.83462599 </v>
   <v>       0.06317626       0.86807686       0.29912880 </v>
   <v>       0.93657503       0.79114847       0.61117004 </v>
   <v>       0.31222370       0.04400900       0.74415881 </v>
   <v>       0.56577692       0.87383723       0.43414008 </v>
   <v>       0.06094316       0.20334471       0.34501259 </v>
   <v>       0.55973265       0.37947628       0.79019172 </v>
   <v>       0.81166922       0.04797261       0.87656419 </v>
   <v>       0.56481790       0.36911218       0.43385660 </v>
   <v>       0.93760456       0.60984829       0.16650338 </v>
   <v>       0.31165102       0.53133407       0.25479528 </v>
   <v>       0.93669165       0.10984089       0.16674442 </v>
   <v>       0.06092197       0.87225944       0.43396602 </v>
   <v>       0.18973640       0.46976486       0.83494950 </v>
   <v>       0.43893967       0.95721492       0.47851011 </v>
   <v>       0.18881810       0.96582322       0.83472614 </v>
   <v>       0.68748912       0.94855495       0.21091264 </v>
   <v>       0.31241049       0.70661435       0.47831528 </v>
   <v>       0.56187996       0.04181076       0.61055010 </v>
   <v>       0.31520299       0.70765051       0.56651060 </v>
   <v>       0.93770839       0.27770681       0.12353189 </v>
   <v>       0.31448666       0.04634834       0.87654753 </v>
   <v>       0.31366947       0.37011334       0.52201228 </v>
   <v>       0.56371484       0.87838524       0.79030961 </v>
   <v>       0.81158874       0.87728822       0.79021151 </v>
   <v>       0.18828554       0.95852224       0.69878172 </v>
   <v>       0.43497116       0.78345626       0.25486969 </v>
   <v>       0.56110492       0.53174486       0.25489980 </v>
   <v>       0.18840992       0.46095709       0.69890813 </v>
   <v>       0.81202596       0.87296557       0.43405198 </v>
   <v>       0.43917547       0.46854512       0.83480546 </v>
   <v>       0.81233892       0.70897750       0.47832982 </v>
   <v>       0.31139857       0.86783661       0.29897671 </v>
   <v>       0.31497353       0.20627195       0.56630796 </v>
   <v>       0.68536014       0.12705715       0.79010242 </v>
   <v>       0.56333749       0.53625283       0.38917109 </v>
   <v>       0.81336617       0.69835759       0.21084622 </v>
   <v>       0.31247106       0.85930974       0.16665164 </v>
   <v>       0.93735922       0.28678776       0.38899424 </v>
   <v>       0.81439332       0.86870804       0.29933880 </v>
   <v>       0.43797809       0.96022045       0.69841520 </v>
   <v>       0.68696821       0.77776197       0.12351149 </v>
   <v>       0.56366960       0.54641765       0.74439985 </v>
   <v>       0.93717973       0.78868681       0.38930770 </v>
   <v>       0.18887266       0.44752751       0.21092240 </v>
   <v>       0.81280381       0.53298416       0.25455461 </v>
   <v>       0.31569070       0.04102927       0.61064337 </v>
   <v>       0.18655160       0.95798843       0.47827876 </v>
   <v>       0.06146594       0.71030957       0.69901264 </v>
   <v>       0.06209529       0.21033504       0.69851339 </v>
   <v>       0.93491947       0.30290975       0.87673657 </v>
   <v>       0.68803206       0.45527615       0.47820334 </v>
   <v>       0.81301941       0.04434290       0.74413970 </v>
   <v>       0.43683994       0.94885419       0.21107892 </v>
   <v>       0.18638208       0.11798986       0.29895348 </v>
   <v>       0.43646824       0.95070708       0.34497990 </v>
   <v>       0.68750825       0.12036837       0.52207286 </v>
   <v>       0.06353249       0.55299437       0.87753537 </v>
   <v>       0.56379722       0.70786439       0.47843158 </v>
   <v>       0.31179066       0.69788813       0.21116492 </v>
   <v>       0.68812706       0.61799077       0.29930052 </v>
   <v>       0.31395836       0.21021264       0.69835169 </v>
   <v>       0.18612388       0.12222628       0.43384211 </v>
   <v>       0.81268268       0.03259759       0.25479186 </v>
   <v>       0.43728149       0.12941168       0.79061646 </v>
   <v>       0.43710923       0.46026769       0.69847560 </v>
   <v>       0.68923250       0.62180836       0.43396863 </v>
   <v>       0.18707087       0.60904486       0.16670772 </v>
   <v>       0.81342015       0.70121518       0.34517608 </v>
   <v>       0.93534940       0.12103534       0.43388393 </v>
   <v>       0.93519418       0.12569780       0.65511912 </v>
   <v>       0.68868933       0.95109142       0.34520249 </v>
   <v>       0.31225342       0.36995571       0.43376560 </v>
   <v>       0.93623268       0.47073715       0.83512616 </v>
   <v>       0.81168811       0.38135320       0.78924934 </v>
   <v>       0.68577657       0.45481217       0.56616228 </v>
   <v>       0.06331430       0.21843343       0.83452194 </v>
   <v>       0.68526829       0.79685504       0.87694161 </v>
   <v>       0.56340800       0.71029864       0.69883557 </v>
   <v>       0.19073016       0.95654107       0.56620814 </v>
   <v>       0.81087521       0.87675388       0.65502462 </v>
   <v>       0.43904888       0.95651645       0.56620541 </v>
   <v>       0.93536832       0.95714740       0.56583906 </v>
   <v>       0.06161148       0.87725129       0.79006593 </v>
   <v>       0.06371314       0.70636523       0.56602277 </v>
   <v>       0.81227618       0.02738023       0.12358597 </v>
   <v>       0.19033700       0.79029924       0.61092992 </v>
   <v>       0.81177378       0.85957734       0.16645363 </v>
   <v>       0.56238459       0.02738066       0.12364963 </v>
   <v>       0.93912195       0.11712932       0.29943144 </v>
   <v>       0.93850124       0.45020538       0.34515245 </v>
   <v>       0.18883946       0.45515999       0.47843617 </v>
   <v>       0.56272085       0.70283238       0.34504853 </v>
   <v>       0.31352426       0.55172485       0.87695778 </v>
   <v>       0.31100744       0.54630138       0.74424772 </v>
   <v>       0.31045945       0.20122544       0.34502167 </v>
   <v>       0.80963489       0.54107621       0.61103730 </v>
   <v>       0.06216125       0.04295152       0.74421887 </v>
   <v>       0.68948608       0.12101055       0.43403594 </v>
   <v>       0.43847361       0.12202613       0.52212229 </v>
   <v>       0.18596489       0.62141931       0.43358265 </v>
   <v>       0.06198484       0.04033345       0.61084621 </v>
   <v>       0.68964526       0.28631262       0.38947465 </v>
   <v>       0.06260217       0.02744191       0.12357860 </v>
   <v>       0.18871167       0.12329192       0.52187040 </v>
   <v>       0.18975015       0.28118560       0.25501059 </v>
   <v>       0.31403314       0.87248745       0.52236875 </v>
   <v>       0.06382295       0.53260594       0.25507150 </v>
   <v>       0.93788563       0.44843571       0.21068094 </v>
   <v>       0.68733155       0.27722497       0.12357112 </v>
   <v>       0.56322990       0.20101309       0.34511341 </v>
   <v>       0.56410138       0.87388969       0.52223689 </v>
   <v>       0.06290837       0.04594516       0.87692047 </v>
   <v>       0.06233231       0.35999816       0.16671015 </v>
   <v>       0.06301533       0.20653486       0.56590028 </v>
   <v>       0.43753239       0.11022091       0.16679342 </v>
   <v>       0.18878160       0.78368643       0.25486907 </v>
   <v>       0.56207576       0.21006311       0.69828942 </v>
   <v>       0.56127812       0.04759917       0.87656294 </v>
   <v>       0.56185120       0.52859881       0.12362891 </v>
   <v>       0.43759770       0.79161144       0.61054562 </v>
   <v>       0.06216427       0.70064233       0.34490540 </v>
   <v>       0.80945443       0.20461901       0.56590267 </v>
   <v>       0.18907120       0.12601474       0.65468477 </v>
   <v>       0.43667255       0.45279022       0.34499185 </v>
   <v>       0.81197561       0.21045152       0.69850039 </v>
   <v>       0.31191236       0.87239722       0.43394054 </v>
   <v>       0.18619764       0.29686075       0.74408436 </v>
   <v>       0.68876072       0.29659709       0.74398949 </v>
   <v>       0.43724498       0.27776928       0.12360462 </v>
   <v>       0.43813051       0.62096012       0.52210262 </v>
   <v>       0.31508468       0.37559630       0.65490451 </v>
   <v>       0.93645949       0.62710040       0.65490195 </v>
   <v>       0.93658433       0.63230371       0.78963680 </v>
   <v>       0.06339718       0.36649472       0.29962984 </v>
   <v>       0.31387447       0.37939175       0.79025361 </v>
   <v>       0.43694109       0.60948810       0.16663458 </v>
   <v>       0.56318061       0.20516935       0.47839971 </v>
   <v>       0.81214000       0.19800920       0.21079358 </v>
   <v>       0.68913679       0.45133176       0.34520494 </v>
   <v>       0.93688433       0.62223082       0.52162391 </v>
   <v>       0.18846060       0.94851412       0.21127081 </v>
   <v>       0.18997515       0.45607610       0.56599185 </v>
   <v>       0.56162229       0.19881515       0.21088476 </v>
   <v>       0.81023895       0.21893980       0.83508997 </v>
   <v>       0.43763946       0.77730186       0.12358948 </v>
   <v>       0.31411420       0.71857263       0.83531432 </v>
   <v>       0.93776283       0.95336160       0.34501332 </v>
   <v>       0.18587905       0.78723971       0.38899361 </v>
   <v>       0.56133878       0.03350529       0.25476169 </v>
   <v>       0.43655629       0.11727049       0.29871126 </v>
   <v>       0.93794119       0.12696613       0.78960971 </v>
   <v>       0.56235836       0.54134222       0.61100225 </v>
   <v>       0.68688777       0.30325883       0.87647313 </v>
   <v>       0.06425343       0.19822305       0.21093838 </v>
   <v>       0.18490772       0.45118678       0.34487921 </v>
   <v>       0.06421030       0.38090535       0.78953920 </v>
   <v>       0.68830896       0.79399085       0.74460151 </v>
   <v>       0.93621636       0.28986834       0.61089282 </v>
   <v>       0.56362380       0.87736258       0.65458483 </v>
   <v>       0.81153015       0.36972853       0.52187234 </v>
   <v>       0.18611268       0.95200253       0.34486092 </v>
   <v>       0.68541078       0.79264273       0.61091686 </v>
   <v>       0.56282510       0.71728126       0.83532322 </v>
   <v>       0.68710309       0.60976168       0.16663046 </v>
   <v>       0.31062256       0.53612460       0.38908227 </v>
   <v>       0.56138881       0.37527518       0.65497884 </v>
   <v>       0.93594070       0.95674342       0.47805886 </v>
   <v>       0.68722759       0.46057175       0.69839991 </v>
   <v>       0.43705711       0.28772168       0.38954316 </v>
   <v>       0.68764735       0.62608193       0.65478634 </v>
   <v>       0.68886895       0.95712116       0.47842309 </v>
   <v>       0.31283630       0.19854556       0.21134998 </v>
   <v>       0.43766520       0.79503705       0.74404309 </v>
   <v>       0.31084452       0.03879308       0.38898996 </v>
   <v>       0.43833879       0.78787434       0.38893227 </v>
   <v>       0.68612798       0.96680204       0.83444910 </v>
   <v>       0.93612312       0.95939452       0.69857140 </v>
   <v>       0.93785480       0.94864931       0.21092180 </v>
   <v>       0.18838829       0.62649553       0.65486536 </v>
   <v>       0.43616354       0.44776526       0.21087398 </v>
   <v>       0.31220766       0.35973531       0.16683971 </v>
   <v>       0.56294295       0.04458567       0.74410934 </v>
   <v>       0.68574543       0.46960717       0.83547337 </v>
   <v>       0.44006484       0.30334014       0.87652171 </v>
   <v>       0.31259302       0.02728723       0.12360318 </v>
   <v>       0.43888963       0.96698010       0.83484755 </v>
   <v>       0.56181845       0.86823236       0.29927378 </v>
   <v>       0.31246673       0.20660448       0.47852618 </v>
   <v>       0.31140625       0.70223663       0.34473391 </v>
   <v>       0.68926190       0.78857251       0.38931060 </v>
   <v>       0.56478476       0.03782235       0.38949070 </v>
   <v>       0.56219063       0.37026919       0.52205731 </v>
   <v>       0.06214032       0.37649052       0.65473959 </v>
   <v>       0.93862722       0.79410072       0.74455480 </v>
   <v>       0.93874255       0.61690278       0.29943581 </v>
   <v>       0.81148504       0.37558865       0.65518055 </v>
   <v>       0.68739688       0.95964492       0.69846307 </v>
   <v>       0.93695090       0.46027454       0.69884711 </v>
   <v>       0.18661095       0.28681822       0.38897994 </v>
   <v>       0.43857160       0.12666056       0.65493954 </v>
   <v>       0.43765560       0.29607332       0.74423844 </v>
   <v>       0.19003251       0.29133442       0.61072576 </v>
   <v>       0.18765643       0.11020158       0.16687682 </v>
   <v>       0.43715772       0.62015599       0.43407213 </v>
   <v>       0.06192290       0.87546843       0.65481507 </v>
   <v>       0.06207792       0.85963006       0.16671731 </v>
   <v>       0.81388276       0.54656428       0.74443367 </v>
   <v>       0.68775743       0.44823108       0.21065944 </v>
   <v>       0.06222172       0.54655865       0.74452107 </v>
   <v>       0.68692048       0.28144358       0.25493750 </v>
   <v>       0.06396614       0.03305262       0.25504810 </v>
   <v>       0.31253070       0.71041059       0.69873522 </v>
   <v>       0.93752455       0.79782010       0.87753996 </v>
   <v>       0.81402500       0.36686101       0.29951273 </v>
   <v>       0.81275317       0.20500610       0.47803840 </v>
   <v>       0.56167380       0.21830902       0.83469245 </v>
   <v>       0.43834258       0.29003416       0.61087378 </v>
   <v>       0.56201044       0.35976146       0.16674197 </v>
   <v>       0.68682365       0.10981253       0.16658166 </v>
   <v>       0.18914759       0.12920071       0.79010502 </v>
   <v>       0.81112545       0.71746109       0.83512294 </v>
   <v>       0.06315144       0.54085544       0.61083360 </v>
   <v>       0.31423176       0.87607574       0.65462978 </v>
   <v>       0.31286094       0.52867145       0.12371458 </v>
   <v>       0.31580740       0.21820043       0.83433318 </v>
   <v>       0.93657429       0.45585217       0.56590435 </v>
   <v>       0.68716069       0.63216681       0.78998430 </v>
   <v>       0.81228986       0.35951307       0.16664980 </v>
   <v>       0.31139603       0.03390543       0.25476572 </v>
   <v>       0.56163904       0.55258961       0.87664074 </v>
   <v>       0.81386257       0.53531170       0.38908231 </v>
   <v>       0.06154747       0.03916187       0.38911005 </v>
   <v>       0.06140821       0.70746334       0.47807593 </v>
   <v>       0.18731380       0.63003736       0.78985688 </v>
   <v>       0.43442540       0.28147557       0.25479302 </v>
   <v>       0.06224143       0.53558770       0.38895680 </v>
   <v>       0.31238516       0.87868425       0.79007412 </v>
   <v>       0.81054287       0.87327179       0.52165739 </v>
   <v>       0.56229761       0.85961607       0.16649582 </v>
   <v>       0.18758245       0.27774683       0.12366676 </v>
   <v>       0.43831928       0.62877185       0.79023482 </v>
   <v>       0.80996273       0.70826071       0.56590068 </v>
   <v>       0.06120528       0.87255012       0.52166756 </v>
   <v>       0.81004027       0.04081388       0.61094598 </v>
   <v>       0.43783603       0.45503344       0.56584831 </v>
   <v>       0.43583333       0.61818599       0.29916953 </v>
   <v>       0.18765048       0.62128961       0.52228998 </v>
   <v>       0.93751593       0.77715854       0.12357051 </v>
   <v>       0.31132108       0.36798947       0.29862754 </v>
   <v>       0.93778004       0.78368291       0.25505253 </v>
   <v>       0.18790090       0.61764676       0.29909301 </v>
   <v>       0.81305051       0.03853515       0.38947180 </v>
   <v>       0.81146958       0.71119839       0.69878979 </v>
   <v>       0.56130869       0.70880322       0.56632205 </v>
   <v>       0.68876815       0.11679698       0.29907478 </v>
   <v>       0.81246105       0.52820973       0.12354828 </v>
   <v>       0.18818202       0.77712682       0.12349914 </v>
   <v>       0.93591146       0.45527888       0.47822770 </v>
   <v>       0.18626162       0.79424193       0.74414158 </v>
   <v>       0.68431615       0.95852090       0.56621592 </v>
   <v>       0.68685744       0.12488930       0.65469261 </v>
   <v>       0.93605140       0.62222863       0.43369289 </v>
   <v>       0.81092046       0.55111407       0.87723449 </v>
   <v>       0.68500309       0.28913241       0.61070921 </v>
   <v>       0.93833099       0.28124944       0.25473959 </v>
   <v>       0.18839794       0.79811070       0.87741410 </v>
   <v>       0.68785556       0.78466309       0.25444667 </v>
   <v>       0.43866123       0.12228879       0.43397007 </v>
   <v>       0.43775271       0.45323746       0.47864700 </v>
   <v>       0.31447450       0.54161931       0.61099342 </v>
   <v>       0.93737392       0.29687080       0.74371457 </v>
   <v>       0.06149308       0.36930786       0.43367086 </v>
   <v>       0.06283011       0.37115281       0.52202341 </v>
  </varray>
 </structure>
 <calculation>
  <scstep>
   <time name="dav">  145.38  145.38</time>
   <time name="total">  145.83  145.83</time>
   <energy>
    <i name="alphaZ">  16277.55763135 </i>
    <i name="ewald"> 700970.83156484 </i>
    <i name="hartreedc">-891352.83559201 </i>
    <i name="XCdc">  -6531.87634210 </i>
    <i name="pawpsdc"> 162148.49262465 </i>
    <i name="pawaedc">-159453.03229289 </i>
    <i name="eentropy">     -0.95749251 </i>
    <i name="bandstr">  39777.29918820 </i>
    <i name="atom"> 168497.18126305 </i>
    <i name="e_fr_energy">  30332.66055258 </i>
    <i name="e_wo_entrp">  30333.61804510 </i>
    <i name="e_0_energy">  30333.13929884 </i>
   </energy>
  </scstep>
  <scstep>
   <time name="dav">  142.82  142.81</time>
   <time name="total">  142.82  142.82</time>
   <energy>
    <i name="e_fr_energy">   1513.06494874 </i>
    <i name="e_wo_entrp">   1514.45029325 </i>
    <i name="e_0_energy">   1513.75762099 </i>
   </energy>
  </scstep>
  <scstep>
   <time name="dav">  177.18  177.17</time>
   <time name="total">  177.18  177.18</time>
   <energy>
    <i name="e_fr_energy">  -1898.96839506 </i>
    <i name="e_wo_entrp">  -1895.38306724 </i>
    <i name="e_0_energy">  -1897.17573115 </i>
   </energy>
  </scstep>
  <scstep>
   <time name="dav">  218.91  218.91</time>
   <time name="total">  218.92  218.91</time>
   <energy>
    <i name="e_fr_energy">  -2609.45431035 </i>
    <i name="e_wo_entrp">  -2605.93976311 </i>
    <i name="e_0_energy">  -2607.69703673 </i>
   </energy>
  </scstep>
  <scstep>
   <time name="dav">  209.08  209.08</time>
   <time name="total">  214.12  214.11</time>
   <energy>
    <i name="e_fr_energy">  -2738.94864798 </i>
    <i name="e_wo_entrp">  -2735.30694098 </i>
    <i name="e_0_energy">  -2737.12779448 </i>
   </energy>
  </scstep>
  <scstep>
   <time name="diag">   30.20   30.20</time>
   <time name="diis">   75.42   75.42</time>
   <time name="orth">    9.66    9.66</time>
   <time name="total">  120.35  120.35</time>
   <energy>
    <i name="e_fr_energy">  -7328.79401893 </i>
    <i name="e_wo_entrp">  -7325.51935095 </i>
    <i name="e_0_energy">  -7327.15668494 </i>
   </energy>
  </scstep>
  <scstep>
   <time name="diag">   29.98   29.98</time>
   <time name="diis">   77.74   77.73</time>
   <time name="orth">    8.65    8.65</time>
   <time name="total">  121.27  121.26</time>
   <energy>
    <i name="e_fr_energy">  -7986.63849137 </i>
    <i name="e_wo_entrp">  -7982.94414631 </i>
    <i name="e_0_energy">  -7984.79131884 </i>
   </energy>
  </scstep>
  <scstep>
[...]
   <v>      -0.00583551      -0.00535724       0.02886362 </v>
   <v>       0.01057197      -0.01215717       0.01562018 </v>
   <v>      -0.01726068       0.00516620      -0.04221601 </v>
   <v>      -0.00992437      -0.00382667       0.02962474 </v>
   <v>       0.00301378       0.01404849       0.02386723 </v>
   <v>       0.01475297      -0.01680796      -0.04817430 </v>
   <v>       0.02017611      -0.01821420      -0.07888501 </v>
   <v>       0.00262131       0.02086224       0.05782172 </v>
   <v>      -0.01583378      -0.01630109      -0.04496902 </v>
   <v>       0.01656806      -0.02889746       0.00268324 </v>
   <v>       0.01200249       0.01501731      -0.02355721 </v>
   <v>      -0.01668861      -0.01944110       0.06060897 </v>
   <v>      -0.01950987      -0.01567095      -0.03989494 </v>
   <v>       0.01891579      -0.02139847       0.03190745 </v>
   <v>      -0.00934644      -0.01578714       0.06489201 </v>
   <v>       0.00430543       0.01657843      -0.02997943 </v>
   <v>      -0.02620223      -0.00213412       0.04971163 </v>
   <v>       0.01068760       0.00600024      -0.00943229 </v>
   <v>      -0.01752499      -0.00506698      -0.00339907 </v>
   <v>       0.00739161       0.01141467       0.05188839 </v>
   <v>       0.00838727       0.00894590      -0.00579150 </v>
   <v>       0.00311745       0.00231899       0.06011397 </v>
   <v>       0.00187063       0.00466422       0.01503836 </v>
   <v>       0.08585515      -0.06329431       0.03179533 </v>
   <v>      -0.00654043      -0.00835971       0.03007857 </v>
   <v>      -0.01680848      -0.01243328       0.01372937 </v>
   <v>       0.00929094      -0.00769520      -0.07069097 </v>
   <v>       0.01985340       0.00637624       0.02092184 </v>
   <v>      -0.00973806       0.00894731       0.00253868 </v>
   <v>      -0.00539259       0.02233753      -0.05197807 </v>
   <v>      -0.01812506      -0.00476549      -0.00980441 </v>
   <v>       0.01716858       0.01489675      -0.00047730 </v>
   <v>       0.00873570       0.00211155      -0.01939915 </v>
   <v>      -0.01687651      -0.00204310      -0.00584899 </v>
   <v>      -0.02147148       0.00854963       0.00361756 </v>
   <v>      -0.00812218       0.01483561       0.00159131 </v>
   <v>       0.02006557       0.07754637      -0.03050682 </v>
   <v>      -0.02416087       0.00197750       0.01623492 </v>
   <v>       0.04803155      -0.00040916       0.03455360 </v>
   <v>      -0.01580463      -0.00761229       0.01854725 </v>
   <v>       0.01018538      -0.00227022       0.02010764 </v>
   <v>       0.01651334       0.01831701       0.00042046 </v>
   <v>      -0.01342497       0.00060733       0.02373413 </v>
   <v>       0.03751523      -0.00030454       0.01919992 </v>
   <v>      -0.01057042      -0.02790383      -0.03788595 </v>
   <v>      -0.00225289       0.01351272       0.04634336 </v>
   <v>      -0.02583040       0.01199775       0.04217771 </v>
   <v>      -0.00243982       0.01275813       0.04193204 </v>
   <v>      -0.00755352      -0.01384042       0.02259881 </v>
   <v>       0.01757873      -0.01054171      -0.02238585 </v>
   <v>       0.00097149      -0.03081363      -0.02320218 </v>
   <v>       0.01616788       0.02896243      -0.00135938 </v>
   <v>       0.02866299      -0.01402095      -0.00556321 </v>
   <v>       0.00363847      -0.01039922       0.02783240 </v>
   <v>       0.00679045       0.01738234       0.05028215 </v>
   <v>       0.00451612      -0.00464848      -0.01329664 </v>
   <v>       0.00882758       0.00185932       0.03146157 </v>
   <v>      -0.01631798      -0.00541067       0.00289464 </v>
   <v>       0.01351911      -0.01843142      -0.02147690 </v>
   <v>      -0.00358980      -0.01531528      -0.07548283 </v>
   <v>       0.01516053      -0.01057911      -0.06472225 </v>
   <v>      -0.00151401       0.01866446       0.00164467 </v>
   <v>      -0.00511523      -0.06404350       0.02236203 </v>
   <v>       0.01000599       0.00568503      -0.02976755 </v>
   <v>      -0.02692860      -0.00479405      -0.04119949 </v>
   <v>       0.01152761      -0.01163831      -0.05516170 </v>
   <v>      -0.00622538      -0.00275465       0.05234401 </v>
   <v>      -0.01892533      -0.00167594      -0.03104957 </v>
   <v>      -0.00058376       0.01306874       0.04607822 </v>
   <v>      -0.03463305       0.04235466       0.01733528 </v>
   <v>       0.01431167       0.00462578       0.02195041 </v>
   <v>      -0.02354578      -0.00062589       0.02788199 </v>
   <v>       0.01122455      -0.04638133       0.03385254 </v>
   <v>      -0.01061252      -0.00125626       0.00104130 </v>
   <v>      -0.01568191       0.03906420       0.00787960 </v>
   <v>       0.00180327       0.00738070       0.01347592 </v>
   <v>       0.02437072      -0.01294479      -0.04280701 </v>
   <v>       0.00321233       0.01847652      -0.00050586 </v>
   <v>      -0.01630169      -0.01080361      -0.06350361 </v>
   <v>       0.00192000      -0.01625662       0.02612275 </v>
   <v>       0.01792261      -0.00404630       0.00134459 </v>
   <v>       0.01160424       0.00056433       0.03742098 </v>
   <v>       0.00555618       0.00058812       0.08063583 </v>
   <v>       0.00825457       0.00503281      -0.04766082 </v>
   <v>       0.01621098       0.01926845       0.00748028 </v>
   <v>       0.01286951       0.00346200      -0.01845763 </v>
   <v>      -0.00564404       0.00272122       0.01098524 </v>
   <v>       0.01496954       0.00542727       0.01990110 </v>
   <v>      -0.00713320      -0.01249673      -0.02798570 </v>
   <v>       0.00283094       0.02151578      -0.06777541 </v>
   <v>      -0.00971281       0.01621881      -0.01979307 </v>
   <v>      -0.00058221       0.01022745      -0.03578685 </v>
   <v>       0.06051037       0.01641409       0.01051366 </v>
   <v>       0.00604977      -0.00846470       0.03185264 </v>
   <v>      -0.00481004      -0.02780206      -0.00327092 </v>
   <v>      -0.00460780      -0.01451200      -0.06400650 </v>
   <v>       0.00590774       0.01056623       0.05096395 </v>
   <v>       0.01276817       0.01803127      -0.00665771 </v>
   <v>       0.01829935       0.02531444      -0.03343582 </v>
   <v>       0.01531287       0.01248687       0.01423828 </v>
   <v>       0.00046472      -0.00609736      -0.01731412 </v>
   <v>       0.01398093      -0.00313559       0.00611206 </v>
   <v>      -0.01519350       0.00354115      -0.05170249 </v>
   <v>       0.06034850       0.00463104       0.06010493 </v>
   <v>      -0.01441079       0.01233217       0.00242428 </v>
   <v>       0.00552102       0.01075278      -0.06443387 </v>
   <v>       0.00817583      -0.01809006       0.01156290 </v>
   <v>      -0.00805005      -0.01150885      -0.00538607 </v>
   <v>       0.01383566      -0.00157705      -0.03704980 </v>
   <v>       0.00346665       0.01488879      -0.00397602 </v>
   <v>       0.01176186      -0.00889593       0.00888847 </v>
   <v>       0.00296754       0.00407559      -0.03177193 </v>
   <v>      -0.00757180       0.00659156       0.01305113 </v>
   <v>      -0.00489747       0.01774628       0.03786658 </v>
   <v>       0.01074144      -0.00242153      -0.06073982 </v>
   <v>       0.02365604      -0.02607066      -0.06094814 </v>
   <v>      -0.00701835       0.00357480      -0.00993810 </v>
   <v>      -0.00912719       0.01305966       0.00398468 </v>
   <v>      -0.02001100      -0.01105642      -0.04470258 </v>
   <v>       0.00315106      -0.00856330       0.06909879 </v>
   <v>      -0.00580614       0.03630995       0.02624440 </v>
   <v>       0.01159379      -0.00169863       0.03707229 </v>
   <v>      -0.01905272      -0.01513251       0.00037729 </v>
   <v>      -0.01628340      -0.01137228       0.00143289 </v>
   <v>      -0.05620213      -0.00192831      -0.00878877 </v>
   <v>      -0.01886888       0.01021810      -0.03716476 </v>
   <v>      -0.00830062       0.02670172      -0.04548360 </v>
   <v>      -0.00638698      -0.01044862       0.05814876 </v>
   <v>      -0.00933290       0.01124437      -0.04038257 </v>
   <v>      -0.01052381       0.02044157      -0.01196041 </v>
   <v>      -0.01957851      -0.00837383      -0.01678302 </v>
   <v>       0.01516940       0.00445587       0.01062074 </v>
   <v>       0.01559669      -0.00618674      -0.02740645 </v>
   <v>      -0.00042320      -0.00582695      -0.07639003 </v>
   <v>      -0.00847064       0.01161090      -0.00527419 </v>
   <v>      -0.00161038       0.01333272       0.04001494 </v>
   <v>       0.00048198      -0.00152915      -0.00068378 </v>
   <v>       0.01482816      -0.00653246      -0.03696607 </v>
   <v>       0.00243569       0.00879630       0.04985642 </v>
   <v>      -0.00701407      -0.00900304      -0.06154722 </v>
   <v>       0.00973663       0.00153602       0.02062499 </v>
   <v>       0.00614142      -0.01134755      -0.04938471 </v>
   <v>       0.02040396       0.00400339       0.03069685 </v>
   <v>      -0.00857480       0.00205149       0.01957238 </v>
   <v>       0.00767748       0.01282738      -0.01050475 </v>
   <v>      -0.00316788      -0.04287929      -0.00345642 </v>
   <v>      -0.00202294      -0.00393319       0.04815291 </v>
   <v>       0.01811410      -0.03457753       0.02848187 </v>
   <v>       0.01743796      -0.02535391      -0.04389044 </v>
   <v>       0.00806643       0.02439492      -0.00294737 </v>
   <v>       0.00049027       0.01313566       0.04376483 </v>
   <v>      -0.00039423       0.01506011       0.05348812 </v>
   <v>      -0.01922560       0.01640857      -0.03823051 </v>
   <v>       0.02683492      -0.01557420      -0.04438284 </v>
   <v>      -0.03006022       0.02293614      -0.01131630 </v>
   <v>       0.00994287       0.00632029      -0.02059262 </v>
   <v>      -0.00632490       0.02722205       0.00215109 </v>
   <v>      -0.02800436      -0.02784916      -0.04678967 </v>
   <v>      -0.02595133       0.01986219       0.03155287 </v>
   <v>       0.00805171      -0.01647565      -0.07096403 </v>
   <v>       0.01038914       0.01884491       0.04391116 </v>
   <v>      -0.00906725      -0.00464740       0.02867093 </v>
   <v>      -0.01707518      -0.01220599       0.02215326 </v>
   <v>      -0.01369466       0.00984110       0.01277660 </v>
   <v>       0.01968679      -0.02386623       0.00330191 </v>
   <v>      -0.06233448       0.08927018      -0.01010512 </v>
   <v>      -0.00530542      -0.00247367      -0.04264075 </v>
   <v>       0.00820963       0.01547236       0.02687139 </v>
   <v>       0.00609500       0.01032260       0.01249507 </v>
   <v>      -0.01080569      -0.00141716      -0.05455275 </v>
   <v>      -0.07587540       0.01128435      -0.03196572 </v>
   <v>      -0.00294351       0.00621093       0.05257702 </v>
   <v>      -0.01408677       0.01961317       0.00521114 </v>
   <v>      -0.01653094      -0.00679749      -0.06172030 </v>
   <v>       0.00263882      -0.01213687       0.03901447 </v>
   <v>      -0.00738247      -0.03698278      -0.01870020 </v>
   <v>       0.00725747       0.00174583      -0.00452632 </v>
   <v>       0.03974796       0.03505554       0.04536480 </v>
   <v>       0.01037222      -0.00791404       0.07604513 </v>
   <v>       0.01832017      -0.06328023       0.04989142 </v>
   <v>      -0.00702229       0.01681652      -0.01135253 </v>
   <v>       0.01084059      -0.00187712       0.07567038 </v>
   <v>       0.00013113      -0.01636609       0.02524986 </v>
   <v>      -0.00037881      -0.00741306       0.07086201 </v>
   <v>      -0.01127952      -0.01651466      -0.00659968 </v>
   <v>      -0.01820376      -0.00082600      -0.01624576 </v>
   <v>       0.01660721      -0.01902990       0.04210725 </v>
   <v>      -0.01067200      -0.00011059       0.07018880 </v>
   <v>       0.00913574       0.02758014      -0.00944169 </v>
   <v>      -0.01138313       0.02081317       0.00496656 </v>
   <v>      -0.04763015      -0.01548053       0.02040809 </v>
   <v>       0.00202604       0.01578366      -0.05568137 </v>
   <v>       0.00530472      -0.00275414       0.03251400 </v>
   <v>      -0.00468681       0.00064060      -0.00937045 </v>
   <v>      -0.00987068      -0.00512834      -0.00651017 </v>
   <v>       0.02195106      -0.01085452      -0.01849537 </v>
   <v>       0.01123595       0.01953180      -0.00350165 </v>
   <v>      -0.00138824       0.00727368       0.02116834 </v>
   <v>      -0.01820708      -0.03826905      -0.01997220 </v>
   <v>       0.00470604      -0.00946852       0.03720124 </v>
   <v>       0.00326752      -0.01837368      -0.02414424 </v>
   <v>       0.00037896      -0.04239887       0.01392801 </v>
   <v>       0.02678014      -0.00058712      -0.00403018 </v>
   <v>      -0.01258467      -0.00931592      -0.06970247 </v>
   <v>       0.00454702       0.00828130      -0.03360618 </v>
   <v>       0.01278315       0.01767881       0.03413780 </v>
  </varray>
  <varray name="stress" >
   <v>      -9.70087966       0.00831117      -0.07776974 </v>
   <v>       0.00831167      -5.50583350      -5.81772931 </v>
   <v>      -0.07776948      -5.81772923     -36.27843396 </v>
  </varray>
  <energy>
   <i name="e_fr_energy">  -2325.51364122 </i>
   <i name="e_wo_entrp">  -2322.72134842 </i>
   <i name="e_0_energy">     -5.58458560 </i>
  </energy>
  <time name="totalsc"> 2005.77 2005.74</time>
 </calculation>
 <calculation>
  <scstep>
   <time name="dav">  135.57  135.57</time>
   <time name="total">  140.96  140.96</time>
   <energy>
    <i name="alphaZ">  16277.55763135 </i>
    <i name="ewald"> 707344.21152288 </i>
    <i name="hartreedc">-894515.40640930 </i>
    <i name="XCdc">  -6678.24706592 </i>
    <i name="pawpsdc"> 200587.97541455 </i>
    <i name="pawaedc">-198136.88995181 </i>
    <i name="eentropy">     -5.57620034 </i>
    <i name="bandstr">   4303.67604999 </i>
    <i name="atom"> 168497.18126305 </i>
    <i name="e_fr_energy">  -2325.51774555 </i>
    <i name="e_wo_entrp">  -2319.94154520 </i>
    <i name="e_0_energy">  -2322.72964538 </i>
   </energy>
  </scstep>
  <scstep>
   <time name="diag">   30.27   30.27</time>
   <time name="diis">   48.42   48.41</time>
   <time name="orth">    8.92    8.92</time>
   <time name="total">   92.98   92.98</time>
   <energy>
    <i name="e_fr_energy">  -2338.58841267 </i>
    <i name="e_wo_entrp">  -2332.90352491 </i>
    <i name="e_0_energy">  -2335.74596879 </i>
   </energy>
  </scstep>
  <scstep>
   <time name="diag">   31.26   31.26</time>
   <time name="diis">   50.47   50.47</time>
   <time name="orth">    8.88    8.88</time>
   <time name="total">   95.95   95.95</time>
   <energy>
    <i name="e_fr_energy">  -2327.88983524 </i>
    <i name="e_wo_entrp">  -2322.30314374 </i>
    <i name="e_0_energy">  -2325.09648949 </i>
   </energy>
  </scstep>
  <scstep>
   <time name="diag">   30.33   30.33</time>
   <time name="diis">   48.98   48.98</time>
   <time name="orth">    9.12    9.12</time>
   <time name="total">   94.02   94.02</time>
   <energy>
    <i name="e_fr_energy">  -2329.96820941 </i>
    <i name="e_wo_entrp">  -2324.34857374 </i>
    <i name="e_0_energy">  -2327.15839157 </i>
   </energy>
  </scstep>
  <scstep>
   <time name="diag">   29.63   29.63</time>
   <time name="diis">   44.68   44.67</time>
   <time name="orth">    8.72    8.72</time>
   <time name="total">   88.53   88.53</time>
   <energy>
    <i name="e_fr_energy">  -2325.79888857 </i>
    <i name="e_wo_entrp">  -2320.24353507 </i>
    <i name="e_0_energy">  -2323.02121182 </i>
   </energy>
  </scstep>
  <scstep>
   <time name="diag">   29.26   29.26</time>
   <time name="diis">   48.14   48.14</time>
   <time name="orth">    9.63    9.63</time>
   <time name="total">   92.39   92.39</time>
   <energy>
    <i name="e_fr_energy">  -2326.31313210 </i>
    <i name="e_wo_entrp">  -2320.67106094 </i>
    <i name="e_0_energy">  -2323.49209652 </i>
   </energy>
  </scstep>
  <scstep>
   <time name="diag">   30.39   30.39</time>
   <time name="diis">   48.60   48.60</time>
   <time name="orth">    8.65    8.65</time>
   <time name="total">   93.14   93.14</time>
   <energy>
    <i name="e_fr_energy">  -2326.70720645 </i>
    <i name="e_wo_entrp">  -2321.13080500 </i>
    <i name="e_0_energy">  -2323.91900573 </i>
   </energy>
  </scstep>
  <scstep>
   <time name="diag">   30.71   30.71</time>
   <time name="diis">   44.63   44.63</time>
   <time name="orth">    8.73    8.73</time>
   <time name="total">   89.42   89.42</time>
   <energy>
    <i name="e_fr_energy">  -2326.24361901 </i>
    <i name="e_wo_entrp">  -2320.70791079 </i>
    <i name="e_0_energy">  -2323.47576490 </i>
   </energy>
  </scstep>
  <scstep>
   <time name="diag">   29.50   29.50</time>
   <time name="diis">   44.64   44.64</time>
   <time name="orth">    9.39    9.38</time>
   <time name="total">   88.89   88.89</time>
   <energy>
    <i name="e_fr_energy">  -2325.65759498 </i>
    <i name="e_wo_entrp">  -2320.07021063 </i>
    <i name="e_0_energy">  -2322.86390280 </i>
   </energy>
  </scstep>
  <scstep>
   <time name="diag">   29.99   29.99</time>
   <time name="diis">   47.28   47.28</time>
   <time name="orth">    9.46    9.46</time>
   <time name="total">   92.11   92.11</time>
   <energy>
    <i name="e_fr_energy">  -2325.60440468 </i>
    <i name="e_wo_entrp">  -2320.02288689 </i>
    <i name="e_0_energy">  -2322.81364578 </i>
   </energy>
  </scstep>
  <scstep>
   <time name="diag">   29.05   29.05</time>
   <time name="diis">   52.37   52.37</time>
   <time name="orth">    8.76    8.76</time>
   <time name="total">   95.58   95.57</time>
   <energy>
    <i name="e_fr_energy">  -2325.58468733 </i>
    <i name="e_wo_entrp">  -2320.01348999 </i>
    <i name="e_0_energy">  -2322.79908866 </i>
   </energy>
  </scstep>
  <scstep>
   <time name="diag">   28.88   28.88</time>
   <time name="diis">   45.93   45.93</time>
   <time name="orth">    9.17    9.17</time>
   <time name="total">   89.38   89.38</time>
   <energy>
    <i name="e_fr_energy">  -2325.55794936 </i>
    <i name="e_wo_entrp">  -2319.98008790 </i>
    <i name="e_0_energy">  -2322.76901863 </i>
   </energy>
  </scstep>
  <scstep>
   <time name="diag">   29.68   29.68</time>
   <time name="diis">   49.45   49.45</time>
   <time name="orth">    8.74    8.74</time>
   <time name="total">   93.49   93.48</time>
   <energy>
    <i name="e_fr_energy">  -2325.55529783 </i>
    <i name="e_wo_entrp">  -2319.98231390 </i>
    <i name="e_0_energy">  -2322.76880587 </i>
   </energy>
  </scstep>
  <scstep>
   <time name="diag">   30.95   30.95</time>
   <time name="diis">   57.74   57.74</time>
   <time name="orth">    8.69    8.69</time>
   <time name="total">  103.00  103.00</time>
   <energy>
    <i name="e_fr_energy">  -2325.55395362 </i>
    <i name="e_wo_entrp">  -2319.97875837 </i>
    <i name="e_0_energy">  -2322.76635600 </i>
   </energy>
  </scstep>
  <scstep>
   <time name="diag">   30.75   30.75</time>
   <time name="diis">   48.56   48.55</time>
   <time name="orth">    8.69    8.69</time>
   <time name="total">   93.55   93.55</time>
   <energy>
    <i name="e_fr_energy">  -2325.55042519 </i>
    <i name="e_wo_entrp">  -2319.97170597 </i>
    <i name="e_0_energy">  -2322.76106558 </i>
   </energy>
  </scstep>
  <scstep>
   <time name="diag">   29.28   29.28</time>
   <time name="diis">   47.90   47.90</time>
   <time name="orth">    8.77    8.77</time>
   <time name="total">   91.39   91.39</time>
   <energy>
    <i name="e_fr_energy">  -2325.54908735 </i>
    <i name="e_wo_entrp">  -2319.97110178 </i>
    <i name="e_0_energy">  -2322.76009457 </i>
   </energy>
  </scstep>
  <scstep>
   <time name="diag">   30.41   30.41</time>
   <time name="diis">   56.69   56.69</time>
   <time name="orth">    8.78    8.78</time>
   <time name="total">  101.30  101.30</time>
   <energy>
    <i name="e_fr_energy">  -2325.54853716 </i>
    <i name="e_wo_entr