unknown system                          
            1
     9.726678    0.000000    0.000000
     0.000000    8.423550    0.000000
     0.000000    0.000000   45.000000
   Fe   Mn
 273  15
Direct configuration=     1
   0.81502311  0.20239497  0.34534800
   0.06384641  0.69916724  0.21080599
   0.56188447  0.69883205  0.21063091
   0.43918814  0.79919106  0.87682845
   0.68738892  0.62200937  0.52194488
   0.18830027  0.30184672  0.87643842
   0.56217818  0.20428994  0.56621455
   0.93522874  0.12182208  0.52160948
   0.06261649  0.52815508  0.12360357
   0.56172635  0.36673080  0.29896911
   0.43792078  0.62582596  0.65456363
   0.81232929  0.36883347  0.43378408
   0.06317727  0.71879113  0.83519757
   0.06165744  0.20404576  0.47838350
   0.93733554  0.96536005  0.83462599
   0.06317626  0.86807686  0.29912880
   0.93657503  0.79114847  0.61117004
   0.31222370  0.04400900  0.74415881
   0.56577692  0.87383723  0.43414008
   0.06094316  0.20334471  0.34501259
   0.55973265  0.37947628  0.79019172
   0.81166922  0.04797261  0.87656419
   0.56481790  0.36911218  0.43385660
   0.93760456  0.60984829  0.16650338
   0.31165102  0.53133407  0.25479528
   0.93669165  0.10984089  0.16674442
   0.06092197  0.87225944  0.43396602
   0.18973640  0.46976486  0.83494950
   0.43893967  0.95721492  0.47851011
   0.18881810  0.96582322  0.83472614
   0.68748912  0.94855495  0.21091264
   0.31241049  0.70661435  0.47831528
   0.56187996  0.04181076  0.61055010
   0.31520299  0.70765051  0.56651060
   0.93770839  0.27770681  0.12353189
   0.31448666  0.04634834  0.87654753
   0.31366947  0.37011334  0.52201228
   0.56371484  0.87838524  0.79030961
   0.81158874  0.87728822  0.79021151
   0.18828554  0.95852224  0.69878172
   0.43497116  0.78345626  0.25486969
   0.56110492  0.53174486  0.25489980
   0.18840992  0.46095709  0.69890813
   0.81202596  0.87296557  0.43405198
   0.43917547  0.46854512  0.83480546
   0.81233892  0.70897750  0.47832982
   0.31139857  0.86783661  0.29897671
   0.31497353  0.20627195  0.56630796
   0.68536014  0.12705715  0.79010242
   0.56333749  0.53625283  0.38917109
   0.81336617  0.69835759  0.21084622
   0.31247106  0.85930974  0.16665164
   0.93735922  0.28678776  0.38899424
   0.81439332  0.86870804  0.29933880
   0.43797809  0.96022045  0.69841520
   0.68696821  0.77776197  0.12351149
   0.56366960  0.54641765  0.74439985
   0.93717973  0.78868681  0.38930770
   0.18887266  0.44752751  0.21092240
   0.81280381  0.53298416  0.25455461
   0.31569070  0.04102927  0.61064337
   0.18655160  0.95798843  0.47827876
   0.06146594  0.71030957  0.69901264
   0.06209529  0.21033504  0.69851339
   0.93491947  0.30290975  0.87673657
   0.68803206  0.45527615  0.47820334
   0.81301941  0.04434290  0.74413970
   0.43683994  0.94885419  0.21107892
   0.18638208  0.11798986  0.29895348
   0.43646824  0.95070708  0.34497990
   0.68750825  0.12036837  0.52207286
   0.06353249  0.55299437  0.87753537
   0.56379722  0.70786439  0.47843158
   0.31179066  0.69788813  0.21116492
   0.68812706  0.61799077  0.29930052
   0.31395836  0.21021264  0.69835169
   0.18612388  0.12222628  0.43384211
   0.81268268  0.03259759  0.25479186
   0.43728149  0.12941168  0.79061646
   0.43710923  0.46026769  0.69847560
   0.68923250  0.62180836  0.43396863
   0.18707087  0.60904486  0.16670772
   0.81342015  0.70121518  0.34517608
   0.93534940  0.12103534  0.43388393
   0.93519418  0.12569780  0.65511912
   0.68868933  0.95109142  0.34520249
   0.31225342  0.36995571  0.43376560
   0.93623268  0.47073715  0.83512616
   0.81168811  0.38135320  0.78924934
   0.68577657  0.45481217  0.56616228
   0.06331430  0.21843343  0.83452194
   0.68526829  0.79685504  0.87694161
   0.56340800  0.71029864  0.69883557
   0.19073016  0.95654107  0.56620814
   0.81087521  0.87675388  0.65502462
   0.43904888  0.95651645  0.56620541
   0.93536832  0.95714740  0.56583906
   0.06161148  0.87725129  0.79006593
   0.06371314  0.70636523  0.56602277
   0.81227618  0.02738023  0.12358597
   0.19033700  0.79029924  0.61092992
   0.81177378  0.85957734  0.16645363
   0.56238459  0.02738066  0.12364963
   0.93912195  0.11712932  0.29943144
   0.93850124  0.45020538  0.34515245
   0.18883946  0.45515999  0.47843617
   0.56272085  0.70283238  0.34504853
   0.31352426  0.55172485  0.87695778
   0.31100744  0.54630138  0.74424772
   0.31045945  0.20122544  0.34502167
   0.80963489  0.54107621  0.61103730
   0.06216125  0.04295152  0.74421887
   0.68948608  0.12101055  0.43403594
   0.43847361  0.12202613  0.52212229
   0.18596489  0.62141931  0.43358265
   0.06198484  0.04033345  0.61084621
   0.68964526  0.28631262  0.38947465
   0.06260217  0.02744191  0.12357860
   0.18871167  0.12329192  0.52187040
   0.18975015  0.28118560  0.25501059
   0.31403314  0.87248745  0.52236875
   0.06382295  0.53260594  0.25507150
   0.93788563  0.44843571  0.21068094
   0.68733155  0.27722497  0.12357112
   0.56322990  0.20101309  0.34511341
   0.56410138  0.87388969  0.52223689
   0.06290837  0.04594516  0.87692047
   0.06233231  0.35999816  0.16671015
   0.06301533  0.20653486  0.56590028
   0.43753239  0.11022091  0.16679342
   0.18878160  0.78368643  0.25486907
   0.56207576  0.21006311  0.69828942
   0.56127812  0.04759917  0.87656294
   0.56185120  0.52859881  0.12362891
   0.43759770  0.79161144  0.61054562
   0.06216427  0.70064233  0.34490540
   0.80945443  0.20461901  0.56590267
   0.18907120  0.12601474  0.65468477
   0.43667255  0.45279022  0.34499185
   0.81197561  0.21045152  0.69850039
   0.31191236  0.87239722  0.43394054
   0.18619764  0.29686075  0.74408436
   0.68876072  0.29659709  0.74398949
   0.43724498  0.27776928  0.12360462
   0.43813051  0.62096012  0.52210262
   0.31508468  0.37559630  0.65490451
   0.93645949  0.62710040  0.65490195
   0.93658433  0.63230371  0.78963680
   0.06339718  0.36649472  0.29962984
   0.31387447  0.37939175  0.79025361
   0.43694109  0.60948810  0.16663458
   0.56318061  0.20516935  0.47839971
   0.81214000  0.19800920  0.21079358
   0.68913679  0.45133176  0.34520494
   0.93688433  0.62223082  0.52162391
   0.18846060  0.94851412  0.21127081
   0.18997515  0.45607610  0.56599185
   0.56162229  0.19881515  0.21088476
   0.81023895  0.21893980  0.83508997
   0.43763946  0.77730186  0.12358948
   0.31411420  0.71857263  0.83531432
   0.93776283  0.95336160  0.34501332
   0.18587905  0.78723971  0.38899361
   0.56133878  0.03350529  0.25476169
   0.43655629  0.11727049  0.29871126
   0.93794119  0.12696613  0.78960971
   0.56235836  0.54134222  0.61100225
   0.68688777  0.30325883  0.87647313
   0.06425343  0.19822305  0.21093838
   0.18490772  0.45118678  0.34487921
   0.06421030  0.38090535  0.78953920
   0.68830896  0.79399085  0.74460151
   0.93621636  0.28986834  0.61089282
   0.56362380  0.87736258  0.65458483
   0.81153015  0.36972853  0.52187234
   0.18611268  0.95200253  0.34486092
   0.68541078  0.79264273  0.61091686
   0.56282510  0.71728126  0.83532322
   0.68710309  0.60976168  0.16663046
   0.31062256  0.53612460  0.38908227
   0.56138881  0.37527518  0.65497884
   0.93594070  0.95674342  0.47805886
   0.68722759  0.46057175  0.69839991
   0.43705711  0.28772168  0.38954316
   0.68764735  0.62608193  0.65478634
   0.68886895  0.95712116  0.47842309
   0.31283630  0.19854556  0.21134998
   0.43766520  0.79503705  0.74404309
   0.31084452  0.03879308  0.38898996
   0.43833879  0.78787434  0.38893227
   0.68612798  0.96680204  0.83444910
   0.93612312  0.95939452  0.69857140
   0.93785480  0.94864931  0.21092180
   0.18838829  0.62649553  0.65486536
   0.43616354  0.44776526  0.21087398
   0.31220766  0.35973531  0.16683971
   0.56294295  0.04458567  0.74410934
   0.68574543  0.46960717  0.83547337
   0.44006484  0.30334014  0.87652171
   0.31259302  0.02728723  0.12360318
   0.43888963  0.96698010  0.83484755
   0.56181845  0.86823236  0.29927378
   0.31246673  0.20660448  0.47852618
   0.31140625  0.70223663  0.34473391
   0.68926190  0.78857251  0.38931060
   0.56478476  0.03782235  0.38949070
   0.56219063  0.37026919  0.52205731
   0.06214032  0.37649052  0.65473959
   0.93862722  0.79410072  0.74455480
   0.93874255  0.61690278  0.29943581
   0.81148504  0.37558865  0.65518055
   0.68739688  0.95964492  0.69846307
   0.93695090  0.46027454  0.69884711
   0.18661095  0.28681822  0.38897994
   0.43857160  0.12666056  0.65493954
   0.43765560  0.29607332  0.74423844
   0.19003251  0.29133442  0.61072576
   0.18765643  0.11020158  0.16687682
   0.43715772  0.62015599  0.43407213
   0.06192290  0.87546843  0.65481507
   0.06207792  0.85963006  0.16671731
   0.81388276  0.54656428  0.74443367
   0.68775743  0.44823108  0.21065944
   0.06222172  0.54655865  0.74452107
   0.68692048  0.28144358  0.25493750
   0.06396614  0.03305262  0.25504810
   0.31253070  0.71041059  0.69873522
   0.93752455  0.79782010  0.87753996
   0.81402500  0.36686101  0.29951273
   0.81275317  0.20500610  0.47803840
   0.56167380  0.21830902  0.83469245
   0.43834258  0.29003416  0.61087378
   0.56201044  0.35976146  0.16674197
   0.68682365  0.10981253  0.16658166
   0.18914759  0.12920071  0.79010502
   0.81112545  0.71746109  0.83512294
   0.06315144  0.54085544  0.61083360
   0.31423176  0.87607574  0.65462978
   0.31286094  0.52867145  0.12371458
   0.31580740  0.21820043  0.83433318
   0.93657429  0.45585217  0.56590435
   0.68716069  0.63216681  0.78998430
   0.81228986  0.35951307  0.16664980
   0.31139603  0.03390543  0.25476572
   0.56163904  0.55258961  0.87664074
   0.81386257  0.53531170  0.38908231
   0.06154747  0.03916187  0.38911005
   0.06140821  0.70746334  0.47807593
   0.18731380  0.63003736  0.78985688
   0.43442540  0.28147557  0.25479302
   0.06224143  0.53558770  0.38895680
   0.31238516  0.87868425  0.79007412
   0.81054287  0.87327179  0.52165739
   0.56229761  0.85961607  0.16649582
   0.18758245  0.27774683  0.12366676
   0.43831928  0.62877185  0.79023482
   0.80996273  0.70826071  0.56590068
   0.06120528  0.87255012  0.52166756
   0.81004027  0.04081388  0.61094598
   0.43783603  0.45503344  0.56584831
   0.43583333  0.61818599  0.29916953
   0.18765048  0.62128961  0.52228998
   0.93751593  0.77715854  0.12357051
   0.31132108  0.36798947  0.29862754
   0.93778004  0.78368291  0.25505253
   0.18790090  0.61764676  0.29909301
   0.81305051  0.03853515  0.38947180
   0.81146958  0.71119839  0.69878979
   0.56130869  0.70880322  0.56632205
   0.68876815  0.11679698  0.29907478
   0.81246105  0.52820973  0.12354828
   0.18818202  0.77712682  0.12349914
   0.93591146  0.45527888  0.47822770
   0.18626162  0.79424193  0.74414158
   0.68431615  0.95852090  0.56621592
   0.68685744  0.12488930  0.65469261
   0.93605140  0.62222863  0.43369289
   0.81092046  0.55111407  0.87723449
   0.68500309  0.28913241  0.61070921
   0.93833099  0.28124944  0.25473959
   0.18839794  0.79811070  0.87741410
   0.68785556  0.78466309  0.25444667
   0.43866123  0.12228879  0.43397007
   0.43775271  0.45323746  0.47864700
   0.31447450  0.54161931  0.61099342
   0.93737392  0.29687080  0.74371457
   0.06149308  0.36930786  0.43367086
   0.06283011  0.37115281  0.52202341
Direct configuration=     2
   0.81392713  0.20180034  0.34496315
   0.06363144  0.69890238  0.21087043
   0.56193492  0.69863360  0.21071509
   0.43904630  0.79928082  0.87707281
   0.68736420  0.62186800  0.52174196
   0.18743595  0.30188102  0.87649324
   0.56274206  0.20541732  0.56647030
   0.93553819  0.12175526  0.52172485
   0.06185716  0.52827722  0.12379608
   0.56170066  0.36658662  0.29923123
   0.43878428  0.62451333  0.65497938
   0.81216597  0.36993550  0.43336911
   0.06312326  0.71825518  0.83532957
   0.06191455  0.20519100  0.47807388
   0.93801152  0.96579475  0.83478341
   0.06314685  0.86751691  0.29928905
   0.93669306  0.79095418  0.61114350
   0.31166883  0.04453776  0.74415314
   0.56482620  0.87331241  0.43365727
   0.06176869  0.20279222  0.34469325
   0.56023056  0.37971145  0.78998660
   0.81279982  0.04817282  0.87667966
   0.56412022  0.36958970  0.43340688
   0.93758017  0.61028643  0.16616605
   0.31160849  0.53185502  0.25514396
   0.93696612  0.10980421  0.16641101
   0.06160933  0.87200418  0.43357585
   0.18884416  0.46912945  0.83510026
   0.43849016  0.95634852  0.47815918
   0.18796903  0.96627629  0.83483464
   0.68771649  0.94811156  0.21089215
   0.31238162  0.70609277  0.47809310
   0.56230889  0.04319369  0.61101097
   0.31470526  0.70653271  0.56643317
   0.93748067  0.27781175  0.12372006
   0.31378971  0.04738295  0.87673270
   0.31348392  0.37125142  0.52190318
   0.56341867  0.87847972  0.79005455
   0.81247358  0.87811607  0.78999797
   0.18829900  0.95853742  0.69922202
   0.43550156  0.78313340  0.25524098
   0.56145468  0.53227789  0.25529000
   0.18850934  0.46082938  0.69929457
   0.81160343  0.87208014  0.43362199
   0.43799645  0.46822731  0.83483727
   0.81222702  0.70747956  0.47815150
   0.31176787  0.86789691  0.29920045
   0.31498044  0.20699227  0.56652154
   0.68650464  0.12770523  0.78990885
   0.56295855  0.53615263  0.38880764
   0.81363224  0.69837847  0.21085799
   0.31216201  0.85948428  0.16643849
   0.93744481  0.28649681  0.38863991
   0.81387467  0.86805489  0.29947235
   0.43778279  0.96006693  0.69875761
   0.68778617  0.77755164  0.12366448
   0.56365256  0.54639982  0.74430978
   0.93719074  0.78878919  0.38891426
   0.18823606  0.44793847  0.21096382
   0.81308820  0.53303540  0.25502099
   0.31599646  0.04220662  0.61085950
   0.18711581  0.95656381  0.47808536
   0.06182342  0.70929453  0.69940590
   0.06244268  0.21154174  0.69913687
   0.93586577  0.30227497  0.87691124
   0.68775232  0.45629932  0.47800991
   0.81317321  0.04503572  0.74418934
   0.43679322  0.94826801  0.21106349
   0.18707229  0.11778451  0.29925096
   0.43678255  0.95191015  0.34467694
   0.68751270  0.12097249  0.52203770
   0.06387906  0.55231413  0.87758637
   0.56362993  0.70677990  0.47814730
   0.31162064  0.69784403  0.21114426
   0.68800616  0.61782474  0.29933974
   0.31322892  0.21126090  0.69871453
   0.18678215  0.12225074  0.43334188
   0.81277222  0.03245271  0.25516556
   0.43677713  0.12958169  0.79041883
   0.43651603  0.46064654  0.69875661
   0.68863955  0.62179456  0.43364995
   0.18675314  0.60956565  0.16651111
   0.81307265  0.70162178  0.34472542
   0.93595533  0.12118197  0.43337671
   0.93429879  0.12703867  0.65524142
   0.68814742  0.95188951  0.34482504
   0.31253464  0.37023464  0.43329340
   0.93717729  0.46996027  0.83522284
   0.81275128  0.38097207  0.78915122
   0.68606482  0.45448938  0.56636062
   0.06336448  0.21825380  0.83459821
   0.68603970  0.79734298  0.87719899
   0.56354774  0.70971499  0.69906983
   0.18939502  0.95686298  0.56622543
   0.80969182  0.87640012  0.65528736
   0.43945245  0.95711827  0.56627401
   0.93562691  0.95744914  0.56595157
   0.06166741  0.87766386  0.79002223
   0.06297097  0.70571384  0.56598271
   0.81261355  0.02702595  0.12373733
   0.18918437  0.79022742  0.61102938
   0.81212127  0.85961728  0.16612809
   0.56288084  0.02724155  0.12383878
   0.93880328  0.11725655  0.29955881
   0.93834372  0.45027629  0.34467418
   0.18819275  0.45610169  0.47809641
   0.56249939  0.70283116  0.34468834
   0.31249748  0.55111148  0.87719490
   0.31096586  0.54610065  0.74415556
   0.31138310  0.20137497  0.34464842
   0.80960562  0.54000386  0.61124144
   0.06206599  0.04409599  0.74431310
   0.68829316  0.12091413  0.43348108
   0.43869717  0.12188509  0.52198974
   0.18649931  0.62120246  0.43333101
   0.06138205  0.04110401  0.61087009
   0.68857984  0.28592616  0.38897026
   0.06212611  0.02722245  0.12381972
   0.18817521  0.12270968  0.52180119
   0.18880799  0.28175253  0.25530027
   0.31354179  0.87190423  0.52197511
   0.06325457  0.53267901  0.25533532
   0.93827256  0.44860395  0.21077081
   0.68788539  0.27746456  0.12377873
   0.56262806  0.20087605  0.34476330
   0.56384203  0.87273440  0.52202323
   0.06236722  0.04678523  0.87696240
   0.06216249  0.36025531  0.16644087
   0.06183552  0.20708346  0.56614817
   0.43735764  0.11018115  0.16650080
   0.18834752  0.78312317  0.25518038
   0.56295861  0.21044708  0.69841082
   0.56135871  0.04781393  0.87677401
   0.56256061  0.52876239  0.12382998
   0.43853413  0.79121305  0.61081901
   0.06221096  0.70115005  0.34443224
   0.81011681  0.20566128  0.56616803
   0.18965792  0.12697200  0.65503406
   0.43691576  0.45190605  0.34462669
   0.81141018  0.21093680  0.69894116
   0.31250968  0.87238507  0.43354122
   0.18586757  0.29683898  0.74412831
   0.68969006  0.29667382  0.74390752
   0.43737991  0.27787329  0.12384612
   0.43822630  0.62141223  0.52178213
   0.31555692  0.37601170  0.65526541
   0.93599897  0.62591290  0.65528645
   0.93711628  0.63160388  0.78957740
   0.06320786  0.36711324  0.29965283
   0.31257974  0.37979261  0.79013985
   0.43704542  0.60979836  0.16638506
   0.56294503  0.20567301  0.47807450
   0.81272365  0.19811135  0.21083412
   0.68808397  0.45075307  0.34484622
   0.93720753  0.62255841  0.52151944
   0.18794089  0.94797442  0.21117630
   0.18898164  0.45627296  0.56612665
   0.56184353  0.19870348  0.21091567
   0.81178540  0.21868822  0.83515706
   0.43780028  0.77725606  0.12382495
   0.31285912  0.71798924  0.83530799
   0.93776481  0.95351373  0.34470333
   0.18655421  0.78783018  0.38865041
   0.56152719  0.03297780  0.25524462
   0.43695055  0.11751832  0.29908447
   0.93831128  0.12774155  0.78955115
   0.56264546  0.54018553  0.61129159
   0.68773428  0.30250111  0.87678439
   0.06383364  0.19810653  0.21095961
   0.18597834  0.45076840  0.34450092
   0.06395385  0.38032380  0.78951186
   0.68859858  0.79408175  0.74446965
   0.93571957  0.29028770  0.61089307
   0.56394774  0.87788269  0.65496691
   0.81153037  0.37074628  0.52188936
   0.18644069  0.95274608  0.34452478
   0.68550624  0.79177754  0.61117833
   0.56291849  0.71710801  0.83530029
   0.68743505  0.61015573  0.16627997
   0.31152271  0.53585749  0.38869888
   0.56165604  0.37535669  0.65509730
   0.93652575  0.95559821  0.47796285
   0.68767520  0.46064395  0.69871114
   0.43733179  0.28693974  0.38902205
   0.68687078  0.62490002  0.65508207
   0.68813776  0.95636705  0.47816873
   0.31232219  0.19838208  0.21126736
   0.43747526  0.79446619  0.74403609
   0.31164716  0.03894656  0.38859420
   0.43849685  0.78814532  0.38864773
   0.68716728  0.96694397  0.83455056
   0.93636190  0.95941513  0.69922472
   0.93816077  0.94811700  0.21091872
   0.18859572  0.62494702  0.65540687
   0.43616850  0.44813167  0.21091538
   0.31199749  0.35998603  0.16659305
   0.56348508  0.04450271  0.74413105
   0.68679407  0.46924942  0.83545955
   0.43912410  0.30280192  0.87674512
   0.31224249  0.02722866  0.12388001
   0.43793449  0.96703415  0.83493344
   0.56195251  0.86822773  0.29944031
   0.31268586  0.20645280  0.47810977
   0.31194811  0.70231753  0.34439815
   0.68832812  0.78870096  0.38891223
   0.56399625  0.03804150  0.38901842
   0.56280398  0.37106469  0.52196770
   0.06232282  0.37706714  0.65514632
   0.93817205  0.79399661  0.74452582
   0.93854882  0.61703253  0.29942692
   0.81054364  0.37556303  0.65541369
   0.68729833  0.96056359  0.69879853
   0.93696159  0.46015539  0.69932609
   0.18727900  0.28649698  0.38860284
   0.43983885  0.12795683  0.65504533
   0.43717828  0.29646949  0.74421141
   0.18964957  0.29165334  0.61091606
   0.18732800  0.11007460  0.16657814
   0.43738639  0.62043124  0.43374070
   0.06224785  0.87476970  0.65519107
   0.06195323  0.85975275  0.16644786
   0.81394836  0.54607869  0.74434355
   0.68799255  0.44857276  0.21075228
   0.06219084  0.54579915  0.74442196
   0.68719942  0.28194163  0.25538579
   0.06354300  0.03285854  0.25527994
   0.31222524  0.70927975  0.69912796
   0.93776283  0.79836134  0.87757499
   0.81358687  0.36718855  0.29952764
   0.81251108  0.20585534  0.47787857
   0.56177124  0.21806636  0.83473338
   0.43897545  0.29065608  0.61124277
   0.56218080  0.36016984  0.16640692
   0.68715695  0.10988266  0.16620294
   0.18811720  0.12993391  0.78999869
   0.81230119  0.71734283  0.83521774
   0.06234908  0.54019537  0.61089336
   0.31467672  0.87579489  0.65511543
   0.31262924  0.52864588  0.12395685
   0.31405399  0.21811833  0.83447579
   0.93627963  0.45548370  0.56612272
   0.68773807  0.63169462  0.78980854
   0.81255672  0.36009354  0.16627598
   0.31158648  0.03330064  0.25518087
   0.56118888  0.55244018  0.87698886
   0.81317320  0.53543175  0.38881091
   0.06203605  0.03902781  0.38864737
   0.06169018  0.70644799  0.47796024
   0.18704705  0.62972226  0.78985807
   0.43502229  0.28186637  0.25524766
   0.06240780  0.53544802  0.38867861
   0.31184810  0.87857237  0.78997542
   0.81122941  0.87250664  0.52154330
   0.56250684  0.85956722  0.16622739
   0.18709799  0.27767593  0.12389958
   0.43752106  0.62888263  0.78997702
   0.81070010  0.70725180  0.56594768
   0.06133371  0.87187821  0.52153614
   0.80994002  0.04239496  0.61103739
   0.43885037  0.45478247  0.56614019
   0.43633635  0.61789840  0.29933597
   0.18721972  0.62200004  0.52202561
   0.93720342  0.77698357  0.12370536
   0.31195704  0.36783366  0.29898260
   0.93796515  0.78296930  0.25535107
   0.18766213  0.61763785  0.29917955
   0.81248323  0.03840614  0.38892697
   0.81149065  0.70975773  0.69923398
   0.56187492  0.70727828  0.56636439
   0.68796660  0.11703463  0.29935395
   0.81272859  0.52857235  0.12367716
   0.18746839  0.77716925  0.12378773
   0.93645546  0.45611476  0.47800438
   0.18645650  0.79385605  0.74419204
   0.68507643  0.95949663  0.56638042
   0.68573253  0.12601470  0.65500863
   0.93596393  0.62183967  0.43338369
   0.81218267  0.55110896  0.87721846
   0.68527896  0.28925469  0.61102732
   0.93845153  0.28202283  0.25509423
   0.18734531  0.79795333  0.87725098
   0.68767891  0.78398764  0.25497720
   0.43867029  0.12192976  0.43329952
   0.43817351  0.45457599  0.47820823
   0.31527302  0.53961937  0.61135430
   0.93726478  0.29679833  0.74375359
   0.06202026  0.36988172  0.43327835
   0.06233006  0.37208209  0.52192394
Direct configuration=     3
   0.81381735  0.20174078  0.34492460
   0.06360991  0.69887585  0.21087688
   0.56193998  0.69861373  0.21072352
   0.43903209  0.79928981  0.87709728
   0.68736172  0.62185384  0.52172164
   0.18734938  0.30188446  0.87649873
   0.56279854  0.20553025  0.56649592
   0.93556918  0.12174857  0.52173640
   0.06178110  0.52828945  0.12381536
   0.56169808  0.36657218  0.29925748
   0.43887077  0.62438186  0.65502103
   0.81214961  0.37004588  0.43332755
   0.06311785  0.71820150  0.83534279
   0.06194030  0.20530572  0.47804286
   0.93807923  0.96583829  0.83479918
   0.06314391  0.86746082  0.29930510
   0.93670488  0.79093472  0.61114084
   0.31161325  0.04459072  0.74415258
   0.56473097  0.87325984  0.43360891
   0.06185138  0.20273688  0.34466127
   0.56028043  0.37973501  0.78996605
   0.81291307  0.04819288  0.87669123
   0.56405034  0.36963753  0.43336183
   0.93757773  0.61033032  0.16613226
   0.31160423  0.53190720  0.25517889
   0.93699361  0.10980054  0.16637762
   0.06167818  0.87197861  0.43353677
   0.18875479  0.46906580  0.83511536
   0.43844514  0.95626173  0.47812403
   0.18788398  0.96632168  0.83484551
   0.68773927  0.94806715  0.21089010
   0.31237873  0.70604053  0.47807084
   0.56235186  0.04333221  0.61105713
   0.31465541  0.70642075  0.56642541
   0.93745787  0.27782226  0.12373890
   0.31371990  0.04748658  0.87675125
   0.31346533  0.37136542  0.52189225
   0.56338900  0.87848918  0.79002900
   0.81256221  0.87819899  0.78997658
   0.18830035  0.95853895  0.69926612
   0.43555469  0.78310106  0.25527817
   0.56148971  0.53233128  0.25532908
   0.18851930  0.46081659  0.69933328
   0.81156111  0.87199145  0.43357892
   0.43787835  0.46819548  0.83484046
   0.81221581  0.70732952  0.47813364
   0.31180486  0.86790295  0.29922286
   0.31498113  0.20706442  0.56654294
   0.68661928  0.12777014  0.78988947
   0.56292060  0.53614259  0.38877124
   0.81365890  0.69838056  0.21085917
   0.31213106  0.85950176  0.16641714
   0.93745339  0.28646767  0.38860441
   0.81382272  0.86798947  0.29948573
   0.43776322  0.96005156  0.69879191
   0.68786810  0.77753058  0.12367981
   0.56365086  0.54639803  0.74430075
   0.93719184  0.78879944  0.38887485
   0.18817230  0.44797963  0.21096797
   0.81311668  0.53304053  0.25506770
   0.31602708  0.04232455  0.61088115
   0.18717232  0.95642111  0.47806599
   0.06185923  0.70919286  0.69944529
   0.06247748  0.21166261  0.69919932
   0.93596055  0.30221139  0.87692874
   0.68772430  0.45640180  0.47799053
   0.81318861  0.04510511  0.74419431
   0.43678854  0.94820930  0.21106194
   0.18714142  0.11776394  0.29928076
   0.43681403  0.95203065  0.34464660
   0.68751315  0.12103300  0.52203417
   0.06391378  0.55224600  0.87759148
   0.56361317  0.70667127  0.47811883
   0.31160361  0.69783961  0.21114219
   0.68799406  0.61780811  0.29934367
   0.31315586  0.21136590  0.69875087
   0.18684809  0.12225319  0.43329178
   0.81278119  0.03243820  0.25520299
   0.43672661  0.12959872  0.79039904
   0.43645661  0.46068448  0.69878476
   0.68858016  0.62179318  0.43361803
   0.18672131  0.60961781  0.16649142
   0.81303785  0.70166250  0.34468028
   0.93601603  0.12119666  0.43332590
   0.93420910  0.12717298  0.65525367
   0.68809314  0.95196945  0.34478723
   0.31256281  0.37026258  0.43324610
   0.93727191  0.46988245  0.83523252
   0.81285777  0.38093389  0.78914139
   0.68609370  0.45445705  0.56638049
   0.06336950  0.21823581  0.83460584
   0.68611696  0.79739185  0.87722477
   0.56356173  0.70965653  0.69909330
   0.18926129  0.95689522  0.56622716
   0.80957329  0.87636469  0.65531368
   0.43949287  0.95717855  0.56628088
   0.93565281  0.95747937  0.56596284
   0.06167301  0.87770518  0.79001785
   0.06289663  0.70564860  0.56597870
   0.81264734  0.02699046  0.12375249
   0.18906892  0.79022023  0.61103934
   0.81215607  0.85962128  0.16609549
   0.56293055  0.02722761  0.12385773
   0.93877136  0.11726930  0.29957156
   0.93832794  0.45028339  0.34462627
   0.18812798  0.45619601  0.47806238
   0.56247721  0.70283104  0.34465227
   0.31239464  0.55105004  0.87721865
   0.31096170  0.54608054  0.74414633
   0.31147562  0.20138995  0.34461103
   0.80960269  0.53989645  0.61126188
   0.06205645  0.04421063  0.74432254
   0.68817368  0.12090447  0.43342551
   0.43871957  0.12187096  0.52197647
   0.18655284  0.62118073  0.43330580
   0.06132167  0.04118119  0.61087248
   0.68847312  0.28588745  0.38891974
   0.06207843  0.02720047  0.12384387
   0.18812148  0.12265136  0.52179426
   0.18871363  0.28180931  0.25532928
   0.31349258  0.87184582  0.52193568
   0.06319764  0.53268633  0.25536175
   0.93831132  0.44862081  0.21077981
   0.68794087  0.27748856  0.12379953
   0.56256778  0.20086233  0.34472823
   0.56381605  0.87261868  0.52200183
   0.06231302  0.04686937  0.87696660
   0.06214548  0.36028106  0.16641390
   0.06171735  0.20713840  0.56617300
   0.43734014  0.11017716  0.16647149
   0.18830404  0.78306675  0.25521156
   0.56304704  0.21048554  0.69842298
   0.56136678  0.04783544  0.87679515
   0.56263167  0.52877877  0.12385012
   0.43862793  0.79117314  0.61084640
   0.06221563  0.70120091  0.34438485
   0.81018316  0.20576568  0.56619461
   0.18971669  0.12706789  0.65506905
   0.43694013  0.45181748  0.34459012
   0.81135354  0.21098540  0.69898531
   0.31256951  0.87238386  0.43350123
   0.18583451  0.29683680  0.74413271
   0.68978314  0.29668150  0.74389931
   0.43739343  0.27788371  0.12387031
   0.43823589  0.62145751  0.52175003
   0.31560422  0.37605330  0.65530156
   0.93595284  0.62579396  0.65532496
   0.93716956  0.63153379  0.78957145
   0.06318889  0.36717520  0.29965513
   0.31245005  0.37983276  0.79012845
   0.43705587  0.60982944  0.16636007
   0.56292143  0.20572346  0.47804192
   0.81278212  0.19812158  0.21083818
   0.68797851  0.45069511  0.34481029
   0.93723990  0.62259123  0.52150898
   0.18788884  0.94792036  0.21116683
   0.18888213  0.45629268  0.56614015
   0.56186569  0.19869229  0.21091877
   0.81194030  0.21866302  0.83516378
   0.43781639  0.77725147  0.12384854
   0.31273340  0.71793080  0.83530735
   0.93776501  0.95352897  0.34467228
   0.18662183  0.78788932  0.38861604
   0.56154606  0.03292497  0.25529299
   0.43699004  0.11754315  0.29912185
   0.93834835  0.12781922  0.78954528
   0.56267422  0.54006968  0.61132057
   0.68781907  0.30242522  0.87681557
   0.06379159  0.19809485  0.21096174
   0.18608558  0.45072650  0.34446303
   0.06392816  0.38026555  0.78950912
   0.68862759  0.79409085  0.74445644
   0.93566981  0.29032971  0.61089309
   0.56398019  0.87793479  0.65500518
   0.81153039  0.37084822  0.52189107
   0.18647354  0.95282055  0.34449111
   0.68551580  0.79169088  0.61120452
   0.56292785  0.71709066  0.83529799
   0.68746830  0.61019520  0.16624487
   0.31161287  0.53583073  0.38866048
   0.56168281  0.37536486  0.65510917
   0.93658435  0.95548350  0.47795323
   0.68772004  0.46065118  0.69874232
   0.43735930  0.28686142  0.38896985
   0.68679300  0.62478163  0.65511169
   0.68806452  0.95629151  0.47814325
   0.31227069  0.19836570  0.21125908
   0.43745623  0.79440901  0.74403538
   0.31172755  0.03896194  0.38855456
   0.43851268  0.78817246  0.38861923
   0.68727138  0.96695818  0.83456073
   0.93638582  0.95941719  0.69929016
   0.93819141  0.94806368  0.21091841
   0.18861650  0.62479192  0.65546111
   0.43616900  0.44816837  0.21091953
   0.31197644  0.36001115  0.16656834
   0.56353938  0.04449440  0.74413323
   0.68689911  0.46921358  0.83545817
   0.43902987  0.30274801  0.87676750
   0.31220738  0.02722280  0.12390774
   0.43783882  0.96703956  0.83494205
   0.56196594  0.86822727  0.29945699
   0.31270781  0.20643761  0.47806806
   0.31200238  0.70232563  0.34436452
   0.68823459  0.78871383  0.38887233
   0.56391727  0.03806345  0.38897112