 288 288   0   0
  0.1280206E+02  0.9726678E-09  0.8423550E-09  0.4500000E-08  0.2500000E-15
  1.000000000000000E-004
  CAR 
 unknown system                          
      6.79768654     -6.05762224  301      4.31298778      1.00000000
     -6.058  0.0000E+00  0.0000E+00
     -6.015  0.0000E+00  0.0000E+00
     -5.972  0.0000E+00  0.0000E+00
     -5.929  0.0000E+00  0.0000E+00
     -5.886  0.0000E+00  0.0000E+00
     -5.843  0.0000E+00  0.0000E+00
     -5.801  0.0000E+00  0.0000E+00
     -5.758  0.0000E+00  0.0000E+00
     -5.715  0.0000E+00  0.0000E+00
     -5.672  0.0000E+00  0.0000E+00
     -5.629  0.0000E+00  0.0000E+00
     -5.586  0.0000E+00  0.0000E+00
     -5.543  0.0000E+00  0.0000E+00
     -5.501  0.0000E+00  0.0000E+00
     -5.458  0.0000E+00  0.0000E+00
     -5.415  0.1943E-15  0.8327E-17
     -5.372  0.4502E-14  0.2012E-15
     -5.329  0.9713E-13  0.4363E-14
     -5.286  0.1772E-11  0.8028E-13
     -5.243  0.2751E-10  0.1259E-11
     -5.201  0.3634E-09  0.1683E-10
     -5.158  0.4087E-08  0.1919E-09
     -5.115  0.3913E-07  0.1869E-08
     -5.072  0.3191E-06  0.1554E-07
     -5.029  0.2217E-05  0.1106E-06
     -4.986  0.1315E-04  0.6738E-06
     -4.943  0.6657E-04  0.3526E-05
     -4.901  0.2885E-03  0.1589E-04
     -4.858  0.1074E-02  0.6191E-04
     -4.815  0.3449E-02  0.2097E-03
     -4.772  0.9622E-02  0.6220E-03
     -4.729  0.2353E-01  0.1630E-02
     -4.686  0.5107E-01  0.3819E-02
     -4.644  0.9965E-01  0.8089E-02
     -4.601  0.1772E+00  0.1568E-01
     -4.558  0.2903E+00  0.2812E-01
     -4.515  0.4420E+00  0.4706E-01
     -4.472  0.6289E+00  0.7401E-01
     -4.429  0.8406E+00  0.1100E+00
     -4.386  0.1061E+01  0.1555E+00
     -4.344  0.1270E+01  0.2099E+00
     -4.301  0.1451E+01  0.2721E+00
     -4.258  0.1592E+01  0.3403E+00
     -4.215  0.1697E+01  0.4130E+00
     -4.172  0.1780E+01  0.4893E+00
     -4.129  0.1865E+01  0.5692E+00
     -4.086  0.1976E+01  0.6538E+00
     -4.044  0.2129E+01  0.7451E+00
     -4.001  0.2326E+01  0.8447E+00
     -3.958  0.2549E+01  0.9540E+00
     -3.915  0.2768E+01  0.1073E+01
     -3.872  0.2949E+01  0.1199E+01
     -3.829  0.3068E+01  0.1330E+01
     -3.787  0.3116E+01  0.1464E+01
     -3.744  0.3110E+01  0.1597E+01
     -3.701  0.3082E+01  0.1729E+01
     -3.658  0.3075E+01  0.1861E+01
     -3.615  0.3118E+01  0.1995E+01
     -3.572  0.3227E+01  0.2133E+01
     -3.529  0.3393E+01  0.2278E+01
     -3.487  0.3594E+01  0.2432E+01
     -3.444  0.3797E+01  0.2595E+01
     -3.401  0.3972E+01  0.2765E+01
     -3.358  0.4098E+01  0.2941E+01
     -3.315  0.4166E+01  0.3119E+01
     -3.272  0.4186E+01  0.3299E+01
     -3.229  0.4182E+01  0.3478E+01
     -3.187  0.4192E+01  0.3658E+01
     -3.144  0.4252E+01  0.3840E+01
     -3.101  0.4385E+01  0.4028E+01
     -3.058  0.4587E+01  0.4224E+01
     -3.015  0.4832E+01  0.4431E+01
     -2.972  0.5075E+01  0.4649E+01
     -2.929  0.5267E+01  0.4874E+01
     -2.887  0.5370E+01  0.5105E+01
     -2.844  0.5385E+01  0.5335E+01
     -2.801  0.5352E+01  0.5565E+01
     -2.758  0.5335E+01  0.5793E+01
     -2.715  0.5382E+01  0.6024E+01
     -2.672  0.5492E+01  0.6259E+01
     -2.630  0.5612E+01  0.6500E+01
     -2.587  0.5677E+01  0.6743E+01
     -2.544  0.5663E+01  0.6986E+01
     -2.501  0.5614E+01  0.7226E+01
     -2.458  0.5624E+01  0.7467E+01
     -2.415  0.5792E+01  0.7715E+01
     -2.372  0.6159E+01  0.7979E+01
     -2.330  0.6668E+01  0.8265E+01
     -2.287  0.7171E+01  0.8572E+01
     -2.244  0.7487E+01  0.8893E+01
     -2.201  0.7515E+01  0.9215E+01
     -2.158  0.7294E+01  0.9528E+01
     -2.115  0.6999E+01  0.9828E+01
     -2.072  0.6839E+01  0.1012E+02
     -2.030  0.6953E+01  0.1042E+02
     -1.987  0.7349E+01  0.1073E+02
     -1.944  0.7905E+01  0.1107E+02
     -1.901  0.8435E+01  0.1143E+02
     -1.858  0.8775E+01  0.1181E+02
     -1.815  0.8872E+01  0.1219E+02
     -1.773  0.8799E+01  0.1257E+02
     -1.730  0.8702E+01  0.1294E+02
     -1.687  0.8696E+01  0.1331E+02
     -1.644  0.8818E+01  0.1369E+02
     -1.601  0.9031E+01  0.1408E+02
     -1.558  0.9288E+01  0.1448E+02
     -1.515  0.9560E+01  0.1488E+02
     -1.473  0.9843E+01  0.1531E+02
     -1.430  0.1013E+02  0.1574E+02
     -1.387  0.1039E+02  0.1619E+02
     -1.344  0.1059E+02  0.1664E+02
     -1.301  0.1076E+02  0.1710E+02
     -1.258  0.1102E+02  0.1757E+02
     -1.215  0.1154E+02  0.1807E+02
     -1.173  0.1239E+02  0.1860E+02
     -1.130  0.1348E+02  0.1918E+02
     -1.087  0.1453E+02  0.1980E+02
     -1.044  0.1525E+02  0.2045E+02
     -1.001  0.1554E+02  0.2112E+02
     -0.958  0.1559E+02  0.2179E+02
     -0.915  0.1579E+02  0.2246E+02
     -0.873  0.1651E+02  0.2317E+02
     -0.830  0.1792E+02  0.2394E+02
     -0.787  0.1995E+02  0.2479E+02
     -0.744  0.2244E+02  0.2575E+02
     -0.701  0.2537E+02  0.2684E+02
     -0.658  0.2882E+02  0.2808E+02
     -0.616  0.3284E+02  0.2948E+02
     -0.573  0.3725E+02  0.3108E+02
     -0.530  0.4164E+02  0.3286E+02
     -0.487  0.4553E+02  0.3481E+02
     -0.444  0.4863E+02  0.3690E+02
     -0.401  0.5095E+02  0.3908E+02
     -0.358  0.5272E+02  0.4134E+02
     -0.316  0.5420E+02  0.4366E+02
     -0.273  0.5550E+02  0.4604E+02
     -0.230  0.5658E+02  0.4847E+02
     -0.187  0.5728E+02  0.5092E+02
     -0.144  0.5757E+02  0.5339E+02
     -0.101  0.5760E+02  0.5585E+02
     -0.058  0.5764E+02  0.5832E+02
     -0.016  0.5797E+02  0.6081E+02
      0.027  0.5880E+02  0.6333E+02
      0.070  0.6028E+02  0.6591E+02
      0.113  0.6250E+02  0.6859E+02
      0.156  0.6543E+02  0.7139E+02
      0.199  0.6884E+02  0.7434E+02
      0.241  0.7237E+02  0.7744E+02
      0.284  0.7568E+02  0.8069E+02
      0.327  0.7854E+02  0.8405E+02
      0.370  0.8092E+02  0.8752E+02
      0.413  0.8286E+02  0.9107E+02
      0.456  0.8442E+02  0.9469E+02
      0.499  0.8555E+02  0.9835E+02
      0.541  0.8621E+02  0.1020E+03
      0.584  0.8635E+02  0.1057E+03
      0.627  0.8604E+02  0.1094E+03
      0.670  0.8535E+02  0.1131E+03
      0.713  0.8428E+02  0.1167E+03
      0.756  0.8281E+02  0.1203E+03
      0.799  0.8103E+02  0.1237E+03
      0.841  0.7920E+02  0.1271E+03
      0.884  0.7767E+02  0.1304E+03
      0.927  0.7668E+02  0.1337E+03
      0.970  0.7621E+02  0.1370E+03
      1.013  0.7598E+02  0.1403E+03
      1.056  0.7563E+02  0.1435E+03
      1.098  0.7491E+02  0.1467E+03
      1.141  0.7387E+02  0.1499E+03
      1.184  0.7289E+02  0.1530E+03
      1.227  0.7241E+02  0.1561E+03
      1.270  0.7263E+02  0.1592E+03
      1.313  0.7325E+02  0.1623E+03
      1.356  0.7360E+02  0.1655E+03
      1.398  0.7313E+02  0.1686E+03
      1.441  0.7172E+02  0.1717E+03
      1.484  0.6987E+02  0.1747E+03
      1.527  0.6830E+02  0.1776E+03
      1.570  0.6759E+02  0.1805E+03
      1.613  0.6798E+02  0.1834E+03
      1.656  0.6935E+02  0.1864E+03
      1.698  0.7142E+02  0.1895E+03
      1.741  0.7384E+02  0.1926E+03
      1.784  0.7632E+02  0.1959E+03
      1.827  0.7866E+02  0.1993E+03
      1.870  0.8075E+02  0.2027E+03
      1.913  0.8255E+02  0.2063E+03
      1.956  0.8413E+02  0.2099E+03
      1.998  0.8563E+02  0.2135E+03
      2.041  0.8715E+02  0.2173E+03
      2.084  0.8874E+02  0.2211E+03
      2.127  0.9037E+02  0.2250E+03
      2.170  0.9200E+02  0.2289E+03
      2.213  0.9364E+02  0.2329E+03
      2.255  0.9540E+02  0.2370E+03
      2.298  0.9752E+02  0.2412E+03
      2.341  0.1003E+03  0.2455E+03
      2.384  0.1037E+03  0.2499E+03
      2.427  0.1079E+03  0.2545E+03
      2.470  0.1124E+03  0.2594E+03
      2.513  0.1168E+03  0.2644E+03
      2.555  0.1207E+03  0.2695E+03
      2.598  0.1239E+03  0.2748E+03
      2.641  0.1262E+03  0.2803E+03
      2.684  0.1277E+03  0.2857E+03
      2.727  0.1287E+03  0.2912E+03
      2.770  0.1296E+03  0.2968E+03
      2.813  0.1310E+03  0.3024E+03
      2.855  0.1333E+03  0.3081E+03
      2.898  0.1365E+03  0.3140E+03
      2.941  0.1398E+03  0.3200E+03
      2.984  0.1419E+03  0.3260E+03
      3.027  0.1410E+03  0.3321E+03
      3.070  0.1365E+03  0.3379E+03
      3.112  0.1287E+03  0.3434E+03
      3.155  0.1191E+03  0.3485E+03
      3.198  0.1096E+03  0.3532E+03
      3.241  0.1016E+03  0.3576E+03
      3.284  0.9586E+02  0.3617E+03
      3.327  0.9232E+02  0.3657E+03
      3.370  0.9062E+02  0.3695E+03
      3.412  0.9011E+02  0.3734E+03
      3.455  0.9004E+02  0.3773E+03
      3.498  0.8965E+02  0.3811E+03
      3.541  0.8846E+02  0.3849E+03
      3.584  0.8657E+02  0.3886E+03
      3.627  0.8465E+02  0.3922E+03
      3.670  0.8362E+02  0.3958E+03
      3.712  0.8407E+02  0.3994E+03
      3.755  0.8600E+02  0.4031E+03
      3.798  0.8881E+02  0.4069E+03
      3.841  0.9179E+02  0.4108E+03
      3.884  0.9447E+02  0.4149E+03
      3.927  0.9671E+02  0.4190E+03
      3.970  0.9862E+02  0.4233E+03
      4.012  0.1003E+03  0.4276E+03
      4.055  0.1016E+03  0.4319E+03
      4.098  0.1026E+03  0.4363E+03
      4.141  0.1028E+03  0.4407E+03
      4.184  0.1023E+03  0.4451E+03
      4.227  0.1012E+03  0.4494E+03
      4.269  0.9981E+02  0.4537E+03
      4.312  0.9861E+02  0.4579E+03
      4.355  0.9793E+02  0.4621E+03
      4.398  0.9788E+02  0.4663E+03
      4.441  0.9832E+02  0.4705E+03
      4.484  0.9892E+02  0.4748E+03
      4.527  0.9929E+02  0.4790E+03
      4.569  0.9917E+02  0.4833E+03
      4.612  0.9855E+02  0.4875E+03
      4.655  0.9778E+02  0.4917E+03
      4.698  0.9738E+02  0.4959E+03
      4.741  0.9784E+02  0.5001E+03
      4.784  0.9942E+02  0.5043E+03
      4.827  0.1020E+03  0.5087E+03
      4.869  0.1051E+03  0.5132E+03
      4.912  0.1083E+03  0.5178E+03
      4.955  0.1111E+03  0.5226E+03
      4.998  0.1129E+03  0.5274E+03
      5.041  0.1128E+03  0.5323E+03
      5.084  0.1098E+03  0.5370E+03
      5.126  0.1025E+03  0.5414E+03
      5.169  0.9043E+02  0.5452E+03
      5.212  0.7420E+02  0.5484E+03
      5.255  0.5583E+02  0.5508E+03
      5.298  0.3804E+02  0.5524E+03
      5.341  0.2324E+02  0.5534E+03
      5.384  0.1263E+02  0.5540E+03
      5.426  0.6067E+01  0.5542E+03
      5.469  0.2564E+01  0.5543E+03
      5.512  0.9493E+00  0.5544E+03
      5.555  0.3072E+00  0.5544E+03
      5.598  0.8664E-01  0.5544E+03
      5.641  0.2126E-01  0.5544E+03
      5.684  0.4533E-02  0.5544E+03
      5.726  0.8384E-03  0.5544E+03
      5.769  0.1344E-03  0.5544E+03
      5.812  0.1865E-04  0.5544E+03
      5.855  0.2237E-05  0.5544E+03
      5.898  0.2319E-06  0.5544E+03
      5.941  0.2075E-07  0.5544E+03
      5.984  0.1601E-08  0.5544E+03
      6.026  0.1064E-09  0.5544E+03
      6.069  0.6086E-11  0.5544E+03
      6.112  0.2985E-12  0.5544E+03
      6.155  0.1179E-13  0.5544E+03
      6.198  0.2591E-15  0.5544E+03
      6.241  0.0000E+00  0.5544E+03
      6.283  0.0000E+00  0.5544E+03
      6.326  0.0000E+00  0.5544E+03
      6.369  0.0000E+00  0.5544E+03
      6.412  0.0000E+00  0.5544E+03
      6.455  0.0000E+00  0.5544E+03
      6.498  0.0000E+00  0.5544E+03
      6.541  0.0000E+00  0.5544E+03
      6.583  0.0000E+00  0.5544E+03
      6.626  0.0000E+00  0.5544E+03
      6.669  0.0000E+00  0.5544E+03
      6.712  0.0000E+00  0.5544E+03
      6.755  0.0000E+00  0.5544E+03
      6.798  0.0000E+00  0.5544E+03
