       N       E                     dE             d eps       ncg     rms          rms(c)
DAV:   1     0.291206776807E+05    0.29121E+05   -0.86203E+05 27930   0.196E+03
DAV:   2     0.119724432114E+04   -0.27923E+05   -0.27301E+05 27720   0.601E+02
DAV:   3    -0.195031428752E+04   -0.31476E+04   -0.27284E+04 38990   0.279E+02
DAV:   4    -0.262093799864E+04   -0.67062E+03   -0.61038E+03 50932   0.976E+01
DAV:   5    -0.274028868187E+04   -0.11935E+03   -0.11174E+03 48300   0.397E+01    0.205E+02
RMM:   6    -0.676691835487E+04   -0.40266E+04   -0.14218E+04 48416   0.264E+02    0.738E+02
RMM:   7    -0.526455118552E+04    0.15024E+04   -0.55214E+03 49733   0.111E+02    0.498E+02
RMM:   8    -0.108465411915E+05   -0.55820E+04   -0.29366E+04 46206   0.417E+02    0.141E+03
RMM:   9    -0.129019228695E+05   -0.20554E+04   -0.26809E+04 49219   0.228E+02    0.117E+03
RMM:  10    -0.120302858602E+05    0.87164E+03   -0.14861E+04 47533   0.218E+02    0.102E+03
RMM:  11    -0.171808396525E+05   -0.51506E+04   -0.18763E+04 47660   0.268E+02    0.981E+02
RMM:  12    -0.935372426542E+04    0.78271E+04   -0.79100E+03 35217   0.159E+02    0.652E+02
RMM:  13    -0.615444526580E+04    0.31993E+04   -0.70501E+03 30382   0.192E+02    0.504E+02
RMM:  14    -0.326569996106E+04    0.28887E+04   -0.29554E+03 30810   0.930E+01    0.369E+02
RMM:  15    -0.367079568623E+04   -0.40510E+03   -0.14194E+03 30760   0.691E+01    0.396E+02
RMM:  16    -0.249549698540E+04    0.11753E+04   -0.17514E+03 45692   0.926E+01    0.217E+02
RMM:  17    -0.256847226465E+04   -0.72975E+02   -0.15397E+03 49446   0.461E+01    0.204E+02
RMM:  18    -0.253729761591E+04    0.31175E+02   -0.78777E+02 42352   0.434E+01    0.185E+02
RMM:  19    -0.289580966586E+04   -0.35851E+03   -0.12587E+03 46656   0.322E+01    0.248E+02
RMM:  20    -0.259343315679E+04    0.30238E+03   -0.86595E+02 43975   0.223E+01    0.167E+02
RMM:  21    -0.254140537221E+04    0.52028E+02   -0.59020E+02 39531   0.185E+01    0.165E+02
RMM:  22    -0.248143166716E+04    0.59974E+02   -0.28882E+02 40664   0.133E+01    0.144E+02
RMM:  23    -0.236920622899E+04    0.11223E+03   -0.13334E+02 33955   0.149E+01    0.957E+01
RMM:  24    -0.235930203692E+04    0.99042E+01   -0.18969E+02 37151   0.146E+01    0.895E+01
RMM:  25    -0.234545254043E+04    0.13849E+02   -0.12436E+02 32521   0.156E+01    0.764E+01
RMM:  26    -0.234770152666E+04   -0.22490E+01   -0.12302E+02 41129   0.879E+00    0.687E+01
RMM:  27    -0.233759685983E+04    0.10105E+02   -0.37295E+01 36890   0.641E+00    0.526E+01
RMM:  28    -0.233932346428E+04   -0.17266E+01   -0.29086E+01 36870   0.533E+00    0.520E+01
RMM:  29    -0.233256618774E+04    0.67573E+01   -0.12078E+01 33866   0.389E+00    0.381E+01
RMM:  30    -0.233278654117E+04   -0.22035E+00   -0.89618E+00 35330   0.305E+00    0.367E+01
RMM:  31    -0.234039665559E+04   -0.76101E+01   -0.79297E+00 31265   0.411E+00    0.492E+01
RMM:  32    -0.233815955405E+04    0.22371E+01   -0.79733E+00 33533   0.383E+00    0.459E+01
RMM:  33    -0.233532450966E+04    0.28350E+01   -0.67729E+00 42303   0.209E+00    0.420E+01
RMM:  34    -0.233392167163E+04    0.14028E+01   -0.17936E+00 31112   0.209E+00    0.407E+01
RMM:  35    -0.233365538288E+04    0.26629E+00   -0.25638E+00 29062   0.317E+00    0.411E+01
RMM:  36    -0.233062875187E+04    0.30266E+01   -0.32271E+00 30435   0.312E+00    0.348E+01
RMM:  37    -0.232683705653E+04    0.37917E+01   -0.38418E+00 30405   0.329E+00    0.256E+01
RMM:  38    -0.232666811187E+04    0.16894E+00   -0.40020E+00 37490   0.228E+00    0.256E+01
RMM:  39    -0.232621091342E+04    0.45720E+00   -0.25506E+00 37067   0.167E+00    0.235E+01
RMM:  40    -0.232637018559E+04   -0.15927E+00   -0.15233E+00 35895   0.147E+00    0.245E+01
RMM:  41    -0.232587088278E+04    0.49930E+00   -0.63863E-01 32268   0.111E+00    0.227E+01
RMM:  42    -0.232595089422E+04   -0.80011E-01   -0.75473E-01 31793   0.131E+00    0.234E+01
RMM:  43    -0.232599934399E+04   -0.48450E-01   -0.11243E+00 36567   0.127E+00    0.240E+01
RMM:  44    -0.232595701641E+04    0.42328E-01   -0.54004E-01 33059   0.981E-01    0.246E+01
RMM:  45    -0.232591895189E+04    0.38065E-01   -0.45843E-01 42269   0.529E-01    0.246E+01
RMM:  46    -0.232606574265E+04   -0.14679E+00   -0.29221E-01 31525   0.810E-01    0.255E+01
RMM:  47    -0.232578023682E+04    0.28551E+00   -0.24418E-01 32093   0.746E-01    0.245E+01
RMM:  48    -0.232557671908E+04    0.20352E+00   -0.22802E-01 37746   0.576E-01    0.236E+01
RMM:  49    -0.232531326786E+04    0.26345E+00   -0.19936E-01 32979   0.637E-01    0.226E+01
RMM:  50    -0.232519435773E+04    0.11891E+00   -0.18838E-01 35810   0.549E-01    0.219E+01
RMM:  51    -0.235296775913E+04   -0.27773E+02   -0.24697E+01 29434   0.949E+00    0.663E+01
RMM:  52    -0.234614114428E+04    0.68266E+01   -0.20259E+01 36490   0.544E+00    0.574E+01
RMM:  53    -0.234444931769E+04    0.16918E+01   -0.98591E+00 33989   0.411E+00    0.570E+01
RMM:  54    -0.234393482043E+04    0.51450E+00   -0.58394E+00 29269   0.462E+00    0.576E+01
RMM:  55    -0.234128322316E+04    0.26516E+01   -0.98466E+00 28020   0.646E+00    0.581E+01
RMM:  56    -0.235923367404E+04   -0.17950E+02   -0.19007E+01 27944   0.955E+00    0.789E+01
RMM:  57    -0.233443425975E+04    0.24799E+02   -0.12588E+01 28159   0.680E+00    0.445E+01
RMM:  58    -0.233061452062E+04    0.38197E+01   -0.10342E+01 29227   0.602E+00    0.348E+01
RMM:  59    -0.233296286858E+04   -0.23483E+01   -0.71399E+00 27925   0.562E+00    0.414E+01
RMM:  60    -0.233476284375E+04   -0.18000E+01   -0.68019E+00 27961   0.545E+00    0.449E+01
RMM:  61    -0.234287341569E+04   -0.81106E+01   -0.14641E+01 29303   0.694E+00    0.563E+01
RMM:  62    -0.234127655208E+04    0.15969E+01   -0.87146E+00 30192   0.489E+00    0.542E+01
RMM:  63    -0.233565297208E+04    0.56236E+01   -0.28084E+00 28264   0.349E+00    0.450E+01
RMM:  64    -0.233681225733E+04   -0.11593E+01   -0.50392E+00 28945   0.443E+00    0.456E+01
RMM:  65    -0.233153677447E+04    0.52755E+01   -0.32788E+00 29335   0.356E+00    0.354E+01
RMM:  66    -0.233098171422E+04    0.55506E+00   -0.86262E+00 30524   0.474E+00    0.334E+01
RMM:  67    -0.232774109177E+04    0.32406E+01   -0.64058E+00 30693   0.415E+00    0.222E+01
RMM:  68    -0.232582963708E+04    0.19115E+01   -0.28339E+00 28850   0.342E+00    0.137E+01
RMM:  69    -0.232530755424E+04    0.52208E+00   -0.14063E+00 29049   0.244E+00    0.104E+01
RMM:  70    -0.232527211036E+04    0.35444E-01   -0.11003E+00 28733   0.198E+00    0.100E+01
RMM:  71    -0.232544855619E+04   -0.17645E+00   -0.74408E-01 27795   0.193E+00    0.115E+01
RMM:  72    -0.232532551477E+04    0.12304E+00   -0.54831E-01 27879   0.170E+00    0.105E+01
RMM:  73    -0.232500490865E+04    0.32061E+00   -0.84807E-01 32653   0.129E+00    0.685E+00
RMM:  74    -0.232491568506E+04    0.89224E-01   -0.36066E-01 28870   0.118E+00    0.563E+00
RMM:  75    -0.232487804646E+04    0.37639E-01   -0.33375E-01 30765   0.958E-01    0.479E+00
RMM:  76    -0.232511285012E+04   -0.23480E+00   -0.39205E-01 28473   0.132E+00    0.810E+00
RMM:  77    -0.232482690102E+04    0.28595E+00   -0.20607E-01 27832   0.111E+00    0.344E+00
RMM:  78    -0.232479469917E+04    0.32202E-01   -0.12512E-01 29346   0.712E-01    0.257E+00
RMM:  79    -0.232478986742E+04    0.48318E-02   -0.11150E-01 31729   0.474E-01    0.227E+00
RMM:  80    -0.232478538668E+04    0.44807E-02   -0.60155E-02 32052   0.354E-01    0.196E+00
RMM:  81    -0.232481293712E+04   -0.27550E-01   -0.62479E-02 30069   0.441E-01    0.286E+00
RMM:  82    -0.232478033604E+04    0.32601E-01   -0.26887E-02 28691   0.372E-01    0.151E+00
RMM:  83    -0.232477444854E+04    0.58875E-02   -0.27333E-02 34549   0.186E-01    0.964E-01
RMM:  84    -0.232477502896E+04   -0.58043E-03   -0.16705E-02 34171   0.165E-01    0.920E-01
RMM:  85    -0.232477418781E+04    0.84115E-03   -0.82237E-03 31003   0.144E-01    0.790E-01
RMM:  86    -0.232478553484E+04   -0.11347E-01   -0.27058E-02 29598   0.300E-01    0.162E+00
RMM:  87    -0.232477374943E+04    0.11785E-01   -0.95977E-03 27945   0.243E-01    0.656E-01
RMM:  88    -0.232477228041E+04    0.14690E-02   -0.35393E-03 29213   0.125E-01    0.468E-01
RMM:  89    -0.232477175181E+04    0.52860E-03   -0.29013E-03 32018   0.764E-02    0.282E-01
RMM:  90    -0.232477185862E+04   -0.10681E-03   -0.16184E-03 31550   0.619E-02    0.269E-01
RMM:  91    -0.232477286740E+04   -0.10088E-02   -0.25210E-03 29630   0.933E-02    0.498E-01
RMM:  92    -0.232477184946E+04    0.10179E-02   -0.85572E-04 28423   0.706E-02    0.194E-01
RMM:  93    -0.232477179694E+04    0.52524E-04   -0.10514E-03 40677   0.261E-02    0.122E-01
RMM:  94    -0.232477181711E+04   -0.20170E-04   -0.34542E-04 35345   0.203E-02    0.795E-02
RMM:  95    -0.232477185187E+04   -0.34756E-04   -0.21641E-04 35080   0.156E-02    0.685E-02
RMM:  96    -0.232477187388E+04   -0.22016E-04   -0.13117E-04 33975   0.135E-02    0.690E-02
RMM:  97    -0.232477188433E+04   -0.10447E-04   -0.69100E-05 31360   0.120E-02    0.466E-02
RMM:  98    -0.232477196851E+04   -0.84182E-04   -0.69825E-05 34710   0.101E-02    0.557E-02
RMM:  99    -0.232477201589E+04   -0.47384E-04   -0.43048E-05 31734   0.871E-03    0.607E-02
RMM: 100    -0.232477205812E+04   -0.42221E-04   -0.32075E-05 31288   0.728E-03
   1 F= -.23247721E+04 E0= -.23220441E+04  d E =-.232477E+04
       N       E                     dE             d eps       ncg     rms          rms(c)
DAV:   1    -0.232487632799E+04   -0.10431E+00   -0.27960E+01 29624   0.548E+00    0.987E-01
RMM:   2    -0.232601118171E+04   -0.11349E+01   -0.67437E-01 27852   0.162E+00    0.145E+01
RMM:   3    -0.232586238947E+04    0.14879E+00   -0.35865E-01 38560   0.710E-01    0.128E+01
RMM:   4    -0.232561543174E+04    0.24696E+00   -0.12263E-01 27809   0.791E-01    0.114E+01
RMM:   5    -0.232506489991E+04    0.55053E+00   -0.92265E-02 38382   0.355E-01    0.498E+00
RMM:   6    -0.232506748686E+04   -0.25869E-02   -0.66807E-02 29011   0.457E-01    0.538E+00
RMM:   7    -0.232512352928E+04   -0.56042E-01   -0.20778E-01 30690   0.689E-01    0.638E+00
RMM:   8    -0.232500851836E+04    0.11501E+00   -0.78358E-02 28115   0.557E-01    0.390E+00
RMM:   9    -0.232493905453E+04    0.69464E-01   -0.33940E-02 27760   0.409E-01    0.237E+00
RMM:  10    -0.232492842850E+04    0.10626E-01   -0.22024E-02 28663   0.282E-01    0.191E+00
RMM:  11    -0.232492562391E+04    0.28046E-02   -0.27479E-02 32327   0.240E-01    0.175E+00
RMM:  12    -0.232491578228E+04    0.98416E-02   -0.16264E-02 28846   0.231E-01    0.106E+00
RMM:  13    -0.232491212542E+04    0.36569E-02   -0.77885E-03 28979   0.179E-01    0.823E-01
RMM:  14    -0.232491213114E+04   -0.57194E-05   -0.72950E-03 33387   0.109E-01    0.781E-01
RMM:  15    -0.232490996170E+04    0.21694E-02   -0.36073E-03 30971   0.965E-02    0.427E-01
RMM:  16    -0.232490901776E+04    0.94394E-03   -0.12898E-03 28548   0.754E-02    0.157E-01
RMM:  17    -0.232490907392E+04   -0.56160E-04   -0.15113E-03 36467   0.423E-02    0.139E-01
RMM:  18    -0.232490916103E+04   -0.87108E-04   -0.72262E-04 32024   0.398E-02    0.163E-01
RMM:  19    -0.232490904994E+04    0.11109E-03   -0.26451E-04 30031   0.301E-02    0.679E-02
RMM:  20    -0.232490907340E+04   -0.23464E-04   -0.30966E-04 38668   0.154E-02    0.678E-02
RMM:  21    -0.232490909611E+04   -0.22708E-04   -0.11653E-04 32023   0.159E-02    0.675E-02
RMM:  22    -0.232490909266E+04    0.34494E-05   -0.60254E-05 31349   0.121E-02    0.396E-02
RMM:  23    -0.232490909965E+04   -0.69907E-05   -0.59601E-05 36962   0.792E-03    0.363E-02
RMM:  24    -0.232490911562E+04   -0.15964E-04   -0.30132E-05 31802   0.783E-03    0.330E-02
RMM:  25    -0.232490912142E+04   -0.58005E-05   -0.15599E-05 28558   0.613E-03    0.175E-02
RMM:  26    -0.232490912543E+04   -0.40113E-05   -0.11973E-05 25313   0.313E-03    0.145E-02
RMM:  27    -0.232490913724E+04   -0.11812E-04   -0.48762E-06 20476   0.340E-03    0.138E-02
RMM:  28    -0.232490914950E+04   -0.12264E-04   -0.34547E-06 18886   0.327E-03    0.680E-03
RMM:  29    -0.232490915384E+04   -0.43311E-05   -0.21741E-06 17297   0.213E-03    0.576E-03
RMM:  30    -0.232490916387E+04   -0.10038E-04   -0.21268E-06 17019   0.221E-03    0.596E-03
RMM:  31    -0.232490917092E+04   -0.70439E-05   -0.16683E-06 16396   0.192E-03    0.345E-03
RMM:  32    -0.232490917514E+04   -0.42209E-05   -0.12272E-06 15804   0.137E-03    0.301E-03
RMM:  33    -0.232490918411E+04   -0.89691E-05   -0.13961E-06 16083   0.137E-03    0.275E-03
RMM:  34    -0.232490919488E+04   -0.10768E-04   -0.15650E-06 16274   0.130E-03    0.246E-03
RMM:  35    -0.232490920219E+04   -0.73142E-05   -0.13039E-06 15908   0.116E-03    0.222E-03
RMM:  36    -0.232490921125E+04   -0.90583E-05   -0.16537E-06 16315   0.105E-03    0.213E-03
RMM:  37    -0.232490921479E+04   -0.35403E-05   -0.10425E-06 15586   0.109E-03    0.201E-03
RMM:  38    -0.232490921824E+04   -0.34470E-05   -0.10156E-06 15542   0.890E-04    0.189E-03
RMM:  39    -0.232490921997E+04   -0.17323E-05   -0.75350E-07 15177   0.888E-04    0.123E-03
RMM:  40    -0.232490922094E+04   -0.97274E-06   -0.61621E-07 14457   0.650E-04
   2 F= -.23249092E+04 E0= -.23221719E+04  d E =-.137163E+00
       N       E                     dE             d eps       ncg     rms          rms(c)
DAV:   1    -0.232486553477E+04    0.43685E-01   -0.15526E+02 27720   0.129E+01    0.252E+00
RMM:   2    -0.232837557573E+04   -0.35100E+01   -0.43141E+00 27778   0.430E+00    0.253E+01
RMM:   3    -0.233511857870E+04   -0.67430E+01   -0.23320E+00 38536   0.187E+00    0.414E+01
RMM:   4    -0.232697073510E+04    0.81478E+01   -0.75145E-01 27722   0.193E+00    0.181E+01
RMM:   5    -0.232708722803E+04   -0.11649E+00   -0.59810E-01 39941   0.805E-01    0.190E+01
RMM:   6    -0.232604042050E+04    0.10468E+01   -0.41531E-01 29415   0.110E+00    0.129E+01
RMM:   7    -0.232664984029E+04   -0.60942E+00   -0.11498E+00 30554   0.161E+00    0.175E+01
RMM:   8    -0.232566140179E+04    0.98844E+00   -0.48557E-01 28065   0.138E+00    0.957E+00
RMM:   9    -0.232529521957E+04    0.36618E+00   -0.22511E-01 27742   0.111E+00    0.649E+00
RMM:  10    -0.232524431217E+04    0.50907E-01   -0.14576E-01 28185   0.761E-01    0.562E+00
RMM:  11    -0.232519983101E+04    0.44481E-01   -0.16728E-01 28977   0.738E-01    0.477E+00
RMM:  12    -0.232511078112E+04    0.89050E-01   -0.92070E-02 27832   0.639E-01    0.250E+00
RMM:  13    -0.232508715764E+04    0.23623E-01   -0.47002E-02 29025   0.427E-01    0.181E+00
RMM:  14    -0.232508683068E+04    0.32696E-03   -0.43376E-02 33916   0.253E-01    0.166E+00
RMM:  15    -0.232507896802E+04    0.78627E-02   -0.22775E-02 32938   0.216E-01    0.106E+00
RMM:  16    -0.232507459069E+04    0.43773E-02   -0.90141E-03 29246   0.184E-01    0.572E-01
RMM:  17    -0.232507525286E+04   -0.66217E-03   -0.10687E-02 33318   0.144E-01    0.608E-01
RMM:  18    -0.232507492363E+04    0.32923E-03   -0.54164E-03 29990   0.130E-01    0.528E-01
RMM:  19    -0.232507364270E+04    0.12809E-02   -0.21230E-03 29136   0.936E-02    0.227E-01
RMM:  20    -0.232507377879E+04   -0.13609E-03   -0.27429E-03 37148   0.505E-02    0.216E-01
RMM:  21    -0.232507368839E+04    0.90399E-04   -0.10078E-03 32738   0.442E-02    0.150E-01
RMM:  22    -0.232507365666E+04    0.31733E-04   -0.68080E-04 36594   0.286E-02    0.948E-02
RMM:  23    -0.232507368665E+04   -0.29990E-04   -0.41620E-04 39214   0.199E-02    0.101E-01
RMM:  24    -0.232507366785E+04    0.18799E-04   -0.15722E-04 31605   0.187E-02    0.718E-02
RMM:  25    -0.232507365493E+04    0.12918E-04   -0.10105E-04 33140   0.135E-02    0.415E-02
RMM:  26    -0.232507366337E+04   -0.84411E-05   -0.90573E-05 39355   0.935E-03    0.473E-02
RMM:  27    -0.232507366343E+04   -0.57247E-07   -0.32851E-05 31175   0.897E-03    0.419E-02
RMM:  28    -0.232507365979E+04    0.36440E-05   -0.18280E-05 29722   0.651E-03    0.299E-02
RMM:  29    -0.232507365909E+04    0.69331E-06   -0.16137E-05 28116   0.408E-03    0.245E-02
RMM:  30    -0.232507365729E+04    0.18042E-05   -0.71848E-06 23509   0.423E-03    0.142E-02
RMM:  31    -0.232507365688E+04    0.40757E-06   -0.32104E-06 18887   0.325E-03
   3 F= -.23250737E+04 E0= -.23223162E+04  d E =-.301599E+00
       N       E                     dE             d eps       ncg     rms          rms(c)
DAV:   1    -0.232506979648E+04    0.38608E-02   -0.95258E+00 28336   0.320E+00    0.555E-01
RMM:   2    -0.232517543182E+04   -0.10564E+00   -0.20421E-01 27843   0.886E-01    0.423E+00
RMM:   3    -0.232557178997E+04   -0.39636E+00   -0.76746E-02 30515   0.457E-01    0.935E+00
RMM:   4    -0.232515922916E+04    0.41256E+00   -0.22457E-02 27815   0.314E-01    0.371E+00
RMM:   5    -0.232516770703E+04   -0.84779E-02   -0.18971E-02 35284   0.183E-01    0.397E+00
RMM:   6    -0.232513597436E+04    0.31733E-01   -0.17803E-02 29489   0.226E-01    0.312E+00
RMM:   7    -0.232512082872E+04    0.15146E-01   -0.41185E-02 28393   0.373E-01    0.267E+00
RMM:   8    -0.232509321346E+04    0.27615E-01   -0.17572E-02 27785   0.294E-01    0.148E+00
RMM:   9    -0.232508824580E+04    0.49677E-02   -0.72553E-03 27795   0.189E-01    0.118E+00
RMM:  10    -0.232508661548E+04    0.16303E-02   -0.57185E-03 28359   0.147E-01    0.110E+00
RMM:  11    -0.232508844843E+04   -0.18329E-02   -0.89524E-03 37152   0.112E-01    0.112E+00
RMM:  12    -0.232508313117E+04    0.53173E-02   -0.42754E-03 27850   0.128E-01    0.638E-01
RMM:  13    -0.232508198739E+04    0.11438E-02   -0.20545E-03 27741   0.106E-01    0.548E-01
RMM:  14    -0.232508171643E+04    0.27096E-03   -0.16346E-03 30784   0.630E-02    0.487E-01
RMM:  15    -0.232508100326E+04    0.71317E-03   -0.17596E-03 33318   0.585E-02    0.298E-01
RMM:  16    -0.232508057019E+04    0.43307E-03   -0.55334E-04 28678   0.470E-02    0.105E-01
RMM:  17    -0.232508058664E+04   -0.16444E-04   -0.65432E-04 39614   0.238E-02    0.862E-02
RMM:  18    -0.232508058792E+04   -0.12795E-05   -0.20711E-04 32551   0.202E-02    0.822E-02
RMM:  19    -0.232508056159E+04    0.26325E-04   -0.97809E-05 32402   0.148E-02    0.389E-02
RMM:  20    -0.232508056658E+04   -0.49905E-05   -0.84076E-05 39381   0.708E-03    0.370E-02
RMM:  21    -0.232508056832E+04   -0.17404E-05   -0.28166E-05 31518   0.796E-03    0.376E-02
RMM:  22    -0.232508056369E+04    0.46330E-05   -0.14405E-05 28784   0.622E-03    0.206E-02
RMM:  23    -0.232508056390E+04   -0.21188E-06   -0.10817E-05 25367   0.392E-03    0.182E-02
RMM:  24    -0.232508056426E+04   -0.35606E-06   -0.57944E-06 22956   0.437E-03
   4 F= -.23250806E+04 E0= -.23223189E+04  d E =-.308506E+00
       N       E                     dE             d eps       ncg     rms          rms(c)
DAV:   1    -0.232510379374E+04   -0.23230E-01   -0.15333E+01 27720   0.408E+00    0.734E-01
RMM:   2    -0.232550260783E+04   -0.39881E+00   -0.38850E-01 28612   0.122E+00    0.832E+00
RMM:   3    -0.232578695104E+04   -0.28434E+00   -0.11496E-01 28575   0.630E-01    0.110E+01
RMM:   4    -0.232529589829E+04    0.49105E+00   -0.46200E-02 28993   0.390E-01    0.558E+00
RMM:   5    -0.232543909156E+04   -0.14319E+00   -0.42165E-02 32867   0.289E-01    0.765E+00
RMM:   6    -0.232516261058E+04    0.27648E+00   -0.28962E-02 27890   0.339E-01    0.259E+00
RMM:   7    -0.232533362992E+04   -0.17102E+00   -0.88832E-02 32298   0.421E-01    0.642E+00
RMM:   8    -0.232518043326E+04    0.15320E+00   -0.59198E-02 28420   0.455E-01    0.314E+00
RMM:   9    -0.232512867162E+04    0.51762E-01   -0.23200E-02 27722   0.368E-01    0.126E+00
RMM:  10    -0.232512523279E+04    0.34388E-02   -0.11672E-02 28972   0.197E-01    0.109E+00
RMM:  11    -0.232512479595E+04    0.43684E-03   -0.12711E-02 30671   0.178E-01    0.100E+00
RMM:  12    -0.232512260463E+04    0.21913E-02   -0.89759E-03 29554   0.165E-01    0.762E-01
RMM:  13    -0.232512004807E+04    0.25566E-02   -0.35653E-03 28236   0.129E-01    0.434E-01
RMM:  14    -0.232512009339E+04   -0.45312E-04   -0.34093E-03 33972   0.735E-02    0.414E-01
RMM:  15    -0.232511992613E+04    0.16726E-03   -0.21736E-03 32553   0.680E-02    0.351E-01
RMM:  16    -0.232511941457E+04    0.51156E-03   -0.67557E-04 28385   0.534E-02    0.169E-01
RMM:  17    -0.232511940044E+04    0.14126E-04   -0.77369E-04 37681   0.276E-02    0.136E-01
RMM:  18    -0.232511938557E+04    0.14872E-04   -0.31658E-04 33917   0.237E-02    0.114E-01
RMM:  19    -0.232511933554E+04    0.50025E-04   -0.13384E-04 31136   0.191E-02    0.564E-02
RMM:  20    -0.232511934179E+04   -0.62466E-05   -0.13118E-04 39875   0.103E-02    0.516E-02
RMM:  21    -0.232511934783E+04   -0.60414E-05   -0.58216E-05 32755   0.108E-02    0.568E-02
RMM:  22    -0.232511933719E+04    0.10644E-04   -0.24396E-05 29530   0.900E-03    0.329E-02
RMM:  23    -0.232511933695E+04    0.23728E-06   -0.25000E-05 31750   0.529E-03    0.274E-02
RMM:  24    -0.232511933716E+04   -0.21260E-06   -0.13725E-05 28662   0.507E-03    0.241E-02
RMM:  25    -0.232511933588E+04    0.12894E-05   -0.59610E-06 22204   0.448E-03    0.164E-02
RMM:  26    -0.232511933551E+04    0.36048E-06   -0.35054E-06 19802   0.271E-03
   5 F= -.23251193E+04 E0= -.23223587E+04  d E =-.387713E-01
