<?xml version="1.0" encoding="ISO-8859-1"?>
<modeling>
 <generator>
  <i name="program" type="string">vasp </i>
  <i name="version" type="string">5.4.4.18Apr17-6-g9f103f2a35  </i>
  <i name="subversion" type="string">(build Sep 27 2018 12:46:37) complex + VL-xray_ parallel </i>
  <i name="platform" type="string">LLNL_Quartz_ifc </i>
  <i name="date" type="string">2021 09 26 </i>
  <i name="time" type="string">21:49:42 </i>
 </generator>
 <incar>
  <i type="int" name="ISTART">     2</i>
  <i type="string" name="PREC">accurate</i>
  <i type="string" name="ALGO"> Fast</i>
  <i type="int" name="ICHARG">     2</i>
  <i type="int" name="INIWAV">     1</i>
  <i type="int" name="NELM">   100</i>
  <i type="int" name="NELMIN">     4</i>
  <i type="int" name="IBRION">     2</i>
  <i name="EDIFF">      0.00000100</i>
  <i type="int" name="NSW">     5</i>
  <i type="int" name="ISIF">     2</i>
  <i type="int" name="ISYM">     2</i>
  <i name="ENCUT">    450.00000000</i>
  <i name="POTIM">      0.25000000</i>
  <i type="string" name="LREAL"> Auto</i>
  <i type="int" name="ISMEAR">     0</i>
  <i name="SIGMA">      0.15000000</i>
  <i type="logical" name="LWAVE"> F  </i>
  <i type="logical" name="LCHARG"> F  </i>
  <i type="int" name="ICORELEVEL">     0</i>
  <i type="int" name="CLNT">     1</i>
  <i type="int" name="CLN">     1</i>
  <i type="int" name="INCAR     ">     0</i>
  <i name="CLZ">      0.00000000</i>
  <v type="int" name="KPOINT_BSE">    -1     0     0     0</v>
  <i type="int" name="NELM">   100</i>
 </incar>
 <structure name="primitive_cell" >
  <crystal>
   <varray name="basis" >
    <v>       9.72667804       0.00000000       0.00000000 </v>
    <v>       0.00000000       8.42355028       0.00000000 </v>
    <v>       0.00000000       0.00000000      45.00000000 </v>
   </varray>
   <i name="volume">   3686.99226691 </i>
   <varray name="rec_basis" >
    <v>       0.10281002       0.00000000       0.00000000 </v>
    <v>       0.00000000       0.11871479       0.00000000 </v>
    <v>       0.00000000       0.00000000       0.02222222 </v>
   </varray>
  </crystal>
  <varray name="positions" >
   <v>       0.06264876       0.03421302       0.12545223 </v>
   <v>       0.18704991       0.11734685       0.16761623 </v>
   <v>       0.06189405      -0.12954468       0.16804013 </v>
   <v>      -0.06299032      -0.20808271       0.12550370 </v>
   <v>       0.18812656      -0.21023454       0.12538673 </v>
   <v>      -0.06382707       0.12004506       0.16857524 </v>
   <v>      -0.18651376       0.03389368       0.12546518 </v>
   <v>       0.31433124       0.03557798       0.12535761 </v>
   <v>       0.18683425       0.29146200       0.12546372 </v>
   <v>      -0.06316141       0.29091108       0.12546457 </v>
   <v>       0.31282372      -0.13074273       0.16692203 </v>
   <v>      -0.18712380      -0.13072784       0.16838860 </v>
   <v>       0.06139035       0.37012986       0.16802901 </v>
   <v>       0.43700854       0.11605390       0.16746462 </v>
   <v>      -0.06179014      -0.04219212       0.21281834 </v>
   <v>       0.18904913      -0.38065648       0.16778811 </v>
   <v>       0.43687546      -0.20815765       0.12534982 </v>
   <v>       0.18714595      -0.04184282       0.21305940 </v>
   <v>      -0.31143129      -0.20950608       0.12575018 </v>
   <v>      -0.06306209      -0.38219885       0.16813628 </v>
   <v>      -0.18752124       0.37027673       0.16748438 </v>
   <v>      -0.31123325       0.12030343       0.16871154 </v>
   <v>       0.31225528       0.36854656       0.16831565 </v>
   <v>       0.06233218       0.20757234       0.21277396 </v>
   <v>       0.06216225      -0.46670032       0.12536539 </v>
   <v>      -0.31177242       0.29117352       0.12541702 </v>
   <v>       0.43742546       0.29126965       0.12551341 </v>
   <v>       0.06253478      -0.29197552       0.21282611 </v>
   <v>      -0.18756129       0.20833410       0.21257032 </v>
   <v>       0.31126797      -0.46488804       0.12534610 </v>
   <v>      -0.18713141      -0.46717900       0.12508422 </v>
   <v>       0.31257731       0.20806458       0.21293527 </v>
   <v>      -0.43765215       0.03513979       0.12543448 </v>
   <v>      -0.18714553      -0.29192934       0.21283769 </v>
   <v>       0.43648021      -0.38174379       0.16742127 </v>
   <v>      -0.43805793      -0.13131089       0.16758637 </v>
   <v>      -0.31237301      -0.04203754       0.21298539 </v>
   <v>       0.31323196      -0.29407586       0.21340758 </v>
   <v>       0.43770276      -0.04204307       0.21306239 </v>
   <v>      -0.31342561      -0.38200548       0.16769671 </v>
   <v>       0.18799502       0.45734099       0.21283781 </v>
   <v>      -0.06248130       0.45800369       0.21306576 </v>
   <v>       0.06171675       0.04102615       0.25720887 </v>
   <v>      -0.43617651       0.36967226       0.16791364 </v>
   <v>       0.18732913      -0.20823610       0.25725501 </v>
   <v>      -0.06414977      -0.20875013       0.25722260 </v>
   <v>       0.31331750       0.04115120       0.25702415 </v>
   <v>      -0.43681543       0.20726240       0.21288928 </v>
   <v>      -0.18797577       0.04048144       0.25742747 </v>
   <v>      -0.43614480      -0.46566052       0.12541733 </v>
   <v>      -0.06293961       0.29140169       0.25739500 </v>
   <v>       0.18613056       0.29218619       0.25744135 </v>
   <v>       0.43708949       0.45717332       0.21290886 </v>
   <v>      -0.31277582       0.45776884       0.21312034 </v>
   <v>      -0.43787616      -0.29210183       0.21275929 </v>
   <v>       0.06429521      -0.45832405       0.25731306 </v>
   <v>       0.43568571      -0.20786698       0.25729353 </v>
   <v>      -0.31345320      -0.20870650       0.25732378 </v>
   <v>       0.43502246       0.29255593       0.25729796 </v>
   <v>      -0.31469367       0.29164709       0.25742247 </v>
   <v>       0.31239356      -0.45755468       0.25688776 </v>
   <v>      -0.18738146      -0.45927962       0.25737344 </v>
   <v>      -0.43696809       0.04214782       0.25721799 </v>
   <v>       0.06202655      -0.12443642       0.30177383 </v>
   <v>      -0.06191379       0.12515074       0.30141240 </v>
   <v>       0.18773561       0.12655298       0.30170617 </v>
   <v>       0.31269126      -0.12472466       0.30142409 </v>
   <v>      -0.18765889      -0.12271158       0.30152642 </v>
   <v>       0.06285619       0.37595879       0.30136024 </v>
   <v>      -0.06253774      -0.37483681       0.30126721 </v>
   <v>      -0.43753365      -0.45867896       0.25717063 </v>
   <v>       0.18733358      -0.37298623       0.30179665 </v>
   <v>      -0.31190074       0.12525595       0.30135920 </v>
   <v>       0.43752609       0.12573909       0.30163940 </v>
   <v>       0.31273700       0.37392598       0.30141422 </v>
   <v>      -0.18704175       0.37630645       0.30156059 </v>
   <v>      -0.31269583      -0.37492254       0.30147480 </v>
   <v>       0.43767791      -0.37355515       0.30169361 </v>
   <v>      -0.43681296      -0.12412460       0.30177585 </v>
   <v>      -0.43781512       0.37677298       0.30151414 </v>
   <v>      -0.06132429      -0.04376871       0.34614460 </v>
   <v>       0.06316152       0.20597371       0.34591267 </v>
   <v>       0.18671957      -0.04266019       0.34627873 </v>
   <v>       0.06189705      -0.29375515       0.34628458 </v>
   <v>       0.31282286       0.20558055       0.34603037 </v>
   <v>      -0.18714429       0.20739602       0.34635242 </v>
   <v>       0.31288611      -0.29457871       0.34598324 </v>
   <v>      -0.31248400      -0.04455227       0.34592194 </v>
   <v>      -0.18816253      -0.29346018       0.34638673 </v>
   <v>       0.43687360      -0.04338932       0.34628573 </v>
   <v>      -0.06346784       0.45637772       0.34628329 </v>
   <v>       0.18678193       0.45807277       0.34659275 </v>
   <v>      -0.31394720       0.45481388       0.34598195 </v>
   <v>      -0.43747681       0.20714656       0.34632032 </v>
   <v>       0.43714566       0.45686511       0.34640516 </v>
   <v>       0.06363607       0.03148862      -0.12567320 </v>
   <v>      -0.43616702      -0.29348512       0.34630383 </v>
   <v>      -0.06034712      -0.21105423      -0.12533969 </v>
   <v>       0.18794694      -0.20895768      -0.12548177 </v>
   <v>       0.18885112       0.29072498      -0.12542673 </v>
   <v>       0.31366076       0.03525516      -0.12565411 </v>
   <v>      -0.18790019       0.03490239      -0.12570702 </v>
   <v>      -0.06514872       0.29219284      -0.12587564 </v>
   <v>       0.06276661       0.03963560       0.38971344 </v>
   <v>       0.43778289      -0.20863103      -0.12552080 </v>
   <v>       0.06351215      -0.46419632      -0.12547765 </v>
   <v>      -0.31375270      -0.20916371      -0.12549966 </v>
   <v>       0.43749248       0.29214493      -0.12521603 </v>
   <v>      -0.31352442       0.29265029      -0.12539194 </v>
   <v>      -0.06258345      -0.20933874       0.38978755 </v>
   <v>       0.18670986      -0.20712700       0.39015812 </v>
   <v>       0.31262038       0.04016837       0.38987392 </v>
   <v>       0.18760451       0.29071907       0.38986128 </v>
   <v>      -0.18822402       0.04080827       0.39004191 </v>
   <v>      -0.06392782       0.29066121       0.38991207 </v>
   <v>       0.31397038      -0.46497551      -0.12538587 </v>
   <v>      -0.43727363       0.03355318      -0.12540942 </v>
   <v>      -0.18894752      -0.46569377      -0.12535199 </v>
   <v>       0.06306574      -0.45970471       0.38974134 </v>
   <v>      -0.31247736      -0.21050407       0.38966167 </v>
   <v>       0.43652935      -0.20848472       0.39007977 </v>
   <v>      -0.31209074       0.29088269       0.38958745 </v>
   <v>       0.43769310       0.29124418       0.38971175 </v>
   <v>       0.31178701      -0.45949141       0.38969388 </v>
   <v>      -0.18692014      -0.46050382       0.39014614 </v>
   <v>      -0.43801111       0.04108200       0.38999466 </v>
   <v>      -0.43820413      -0.46532062      -0.12548662 </v>
   <v>       0.06330680       0.20940646      -0.16722928 </v>
   <v>      -0.06087410      -0.04032947      -0.16751761 </v>
   <v>       0.18766990      -0.04066034      -0.16768844 </v>
   <v>       0.06272873      -0.28954469      -0.16754814 </v>
   <v>      -0.18583834       0.20961070      -0.16743418 </v>
   <v>       0.31294085       0.20708572      -0.16773346 </v>
   <v>      -0.43726813      -0.45936521       0.38984464 </v>
   <v>      -0.31227072      -0.04265706      -0.16796755 </v>
   <v>      -0.06189492       0.45855328      -0.16754203 </v>
   <v>      -0.18670356      -0.29029541      -0.16830036 </v>
   <v>       0.18838278       0.45854289      -0.16779458 </v>
   <v>       0.43984377      -0.04246174      -0.16819326 </v>
   <v>       0.31506651      -0.29188916      -0.16847536 </v>
   <v>       0.06287550      -0.12701290       0.43464522 </v>
   <v>       0.18767550       0.12364234       0.43470501 </v>
   <v>      -0.06348054       0.12417709       0.43529827 </v>
   <v>      -0.31074510       0.45558243      -0.16811909 </v>
   <v>      -0.43757748       0.20696084      -0.16832362 </v>
   <v>       0.43825975       0.45672754      -0.16835426 </v>
   <v>       0.31252965      -0.12710703       0.43464133 </v>
   <v>      -0.18826908      -0.12614516       0.43485634 </v>
   <v>       0.06260166       0.37275461       0.43460999 </v>
   <v>      -0.43631892      -0.29193099      -0.16811193 </v>
   <v>       0.18752658      -0.37602721       0.43485190 </v>
   <v>      -0.31244616       0.12131462       0.43455991 </v>
   <v>       0.43741586       0.12302312       0.43465438 </v>
   <v>      -0.06338872      -0.37620586       0.43497619 </v>
   <v>      -0.18733409       0.37366391       0.43465565 </v>
   <v>       0.31232424       0.37336762       0.43477957 </v>
   <v>      -0.31259185      -0.37698920       0.43462091 </v>
   <v>       0.43672794      -0.37611353       0.43477877 </v>
   <v>      -0.43670234      -0.12590012       0.43500170 </v>
   <v>      -0.43773205       0.37437986       0.43536722 </v>
   <v>      -0.06210451       0.11723816      -0.21275786 </v>
   <v>       0.18747766       0.11693318      -0.21285858 </v>
   <v>       0.06215298      -0.13190916      -0.21292957 </v>
   <v>       0.06221270       0.36796255      -0.21291152 </v>
   <v>      -0.18806148      -0.13248105      -0.21290354 </v>
   <v>       0.31297814      -0.13285903      -0.21304024 </v>
   <v>       0.43764631       0.11703179      -0.21270696 </v>
   <v>      -0.18733662       0.36825286      -0.21284323 </v>
   <v>       0.18758547      -0.38304152      -0.21286466 </v>
   <v>       0.31227188       0.36760684      -0.21295695 </v>
   <v>      -0.06295401      -0.38214154      -0.21297126 </v>
   <v>      -0.31309864       0.11751444      -0.21297933 </v>
   <v>       0.18695498      -0.04342120       0.47871973 </v>
   <v>       0.06272020       0.20575738       0.47869262 </v>
   <v>      -0.06251317      -0.04451271       0.47887148 </v>
   <v>       0.43749459      -0.38277792      -0.21266278 </v>
   <v>      -0.31194022      -0.38272653      -0.21273966 </v>
   <v>      -0.43775098      -0.13278940      -0.21287507 </v>
   <v>       0.06239872      -0.29393998       0.47866498 </v>
   <v>       0.31239536       0.20567855       0.47871034 </v>
   <v>      -0.18857324       0.20597978       0.47891147 </v>
   <v>      -0.43761258       0.36703876      -0.21287384 </v>
   <v>      -0.18768714      -0.29421403       0.47871112 </v>
   <v>       0.31274163      -0.29428689       0.47871703 </v>
   <v>      -0.31246126      -0.04396507       0.47876848 </v>
   <v>       0.43732042      -0.04338247       0.47885360 </v>
   <v>       0.18724291       0.45591212       0.47870564 </v>
   <v>      -0.06260156       0.45562616       0.47874501 </v>
   <v>      -0.43748272       0.20592707       0.47878022 </v>
   <v>       0.43734066       0.45574061       0.47874885 </v>
   <v>      -0.31210183       0.45568395       0.47885135 </v>
   <v>      -0.43784862      -0.29407915       0.47867872 </v>
   <v>       0.06229883       0.03553101      -0.25724563 </v>
   <v>      -0.06227830      -0.21339761      -0.25690075 </v>
   <v>       0.18760942      -0.21349237      -0.25718950 </v>
   <v>       0.31273888       0.03764219      -0.25719814 </v>
   <v>      -0.18710045       0.03746544      -0.25725516 </v>
   <v>      -0.06208266       0.28577666      -0.25739032 </v>
   <v>       0.18936947       0.28593437      -0.25738395 </v>
   <v>      -0.31232030      -0.21234145      -0.25712767 </v>
   <v>       0.43745085      -0.21275660      -0.25713124 </v>
   <v>       0.06344928      -0.46438071      -0.25719023 </v>
   <v>       0.43739243       0.28745532      -0.25717870 </v>
   <v>      -0.31137897       0.28643557      -0.25748584 </v>
   <v>       0.06286873      -0.12892415      -0.47885709 </v>
   <v>       0.18796715       0.12072545      -0.47882433 </v>
   <v>      -0.06286231       0.12099678      -0.47879059 </v>
   <v>      -0.18714684      -0.46373341      -0.25718441 </v>
   <v>       0.31297432      -0.46496272      -0.25712903 </v>
   <v>      -0.43642753       0.03623246      -0.25719397 </v>
   <v>       0.31145145      -0.12895261      -0.47890020 </v>
   <v>      -0.18753742      -0.12898908      -0.47887435 </v>
   <v>       0.06202647       0.37138025      -0.47881237 </v>
   <v>       0.18769879      -0.37923119      -0.47888416 </v>
   <v>      -0.06290883      -0.37878598      -0.47877489 </v>
   <v>       0.43700345       0.12146356      -0.47885432 </v>
   <v>       0.31191299       0.37098000      -0.47888387 </v>
   <v>      -0.31334159       0.12091200      -0.47880344 </v>
   <v>      -0.18671469       0.37159698      -0.47877806 </v>
   <v>      -0.43651617      -0.46296982      -0.25763151 </v>
   <v>      -0.31338126      -0.37836137      -0.47884849 </v>
   <v>       0.43789272      -0.37790266      -0.47877827 </v>
   <v>      -0.43706648      -0.12885675      -0.47884520 </v>
   <v>      -0.43756467       0.37091469      -0.47874331 </v>
   <v>       0.18752770      -0.04406742      -0.30142674 </v>
   <v>      -0.06258351      -0.04388295      -0.30144157 </v>
   <v>       0.06215114       0.20596922      -0.30143023 </v>
   <v>       0.06253823      -0.29403146      -0.30138752 </v>
   <v>       0.31235642       0.20602419      -0.30139340 </v>
   <v>      -0.18746631       0.20575922      -0.30139900 </v>
   <v>       0.31231830      -0.29400468      -0.30144720 </v>
   <v>      -0.18783516      -0.29409267      -0.30151571 </v>
   <v>      -0.31291216      -0.04393292      -0.30145294 </v>
   <v>       0.43688137      -0.04409939      -0.30161349 </v>
   <v>      -0.06308880       0.45666464      -0.30145904 </v>
   <v>       0.18663224       0.45650304      -0.30150059 </v>
   <v>       0.06293370       0.20693084      -0.43510277 </v>
   <v>      -0.06254812      -0.04239787      -0.43495136 </v>
   <v>       0.18743087      -0.04239768      -0.43489173 </v>
   <v>      -0.43737611       0.20567808      -0.30141120 </v>
   <v>       0.43742330       0.45605990      -0.30136133 </v>
   <v>      -0.31289753       0.45630636      -0.30141476 </v>
   <v>       0.06290634      -0.29317091      -0.43511051 </v>
   <v>      -0.18796611       0.20716551      -0.43513348 </v>
   <v>       0.31249115       0.20751436      -0.43480759 </v>
   <v>      -0.43798011      -0.29486192      -0.30154948 </v>
   <v>       0.43763631      -0.04337503      -0.43519610 </v>
   <v>      -0.18754987      -0.29308138      -0.43503032 </v>
   <v>       0.31258967      -0.29263747      -0.43490691 </v>
   <v>      -0.31223806      -0.04272174      -0.43492716 </v>
   <v>       0.18784065       0.45728819      -0.43504240 </v>
   <v>      -0.06273186       0.45732532      -0.43493065 </v>
   <v>       0.43711008       0.45707962      -0.43512567 </v>
   <v>      -0.43700986       0.20737900      -0.43493070 </v>
   <v>      -0.31258203       0.45690362      -0.43506335 </v>
   <v>      -0.43744490      -0.29254765      -0.43477647 </v>
   <v>       0.06287178      -0.12819584      -0.34608802 </v>
   <v>       0.18788043       0.12169208      -0.34608516 </v>
   <v>      -0.06202771       0.12185176      -0.34609190 </v>
   <v>       0.31318592      -0.12813185      -0.34600437 </v>
   <v>      -0.18680849      -0.12803349      -0.34607374 </v>
   <v>       0.06268433       0.37095767      -0.34608811 </v>
   <v>       0.18778333      -0.37825023      -0.34610137 </v>
   <v>      -0.06229916      -0.37801025      -0.34616505 </v>
   <v>      -0.18631263       0.37117101      -0.34598633 </v>
   <v>      -0.31231143       0.12207258      -0.34602618 </v>
   <v>       0.31312172       0.37153846      -0.34615519 </v>
   <v>       0.43837950       0.12135725      -0.34623281 </v>
   <v>      -0.31211835      -0.37760078      -0.34596861 </v>
   <v>       0.06140637       0.03616613      -0.38994855 </v>
   <v>       0.43792258      -0.37824911      -0.34606693 </v>
   <v>      -0.43740415      -0.12811390      -0.34605564 </v>
   <v>      -0.18831290       0.03616967      -0.39003976 </v>
   <v>       0.18596940      -0.21282546      -0.38992694 </v>
   <v>      -0.06388870       0.28718964      -0.38984854 </v>
   <v>      -0.06275512      -0.21443822      -0.38975387 </v>
   <v>       0.18686917       0.28679661      -0.38975759 </v>
   <v>       0.31136999       0.03646175      -0.38966836 </v>
   <v>      -0.43650174       0.37134677      -0.34619522 </v>
   <v>       0.43676499      -0.21359215      -0.38995104 </v>
   <v>       0.43623228       0.28680981      -0.38996722 </v>
   <v>       0.06220331      -0.46447716      -0.38977698 </v>
   <v>      -0.31283511      -0.21412882      -0.38976821 </v>
   <v>      -0.31421121       0.28728373      -0.38986803 </v>
   <v>       0.31180735      -0.46350693      -0.38984974 </v>
   <v>      -0.18766473      -0.46401673      -0.38974380 </v>
   <v>      -0.43799558       0.03567868      -0.38970647 </v>
   <v>      -0.43788760      -0.46374988      -0.38983769 </v>
  </varray>
 </structure>
 <varray name="primitive_index" >
  <v type="int" >        1 </v>
  <v type="int" >      125 </v>
  <v type="int" >       60 </v>
  <v type="int" >       44 </v>
  <v type="int" >       83 </v>
  <v type="int" >       26 </v>
  <v type="int" >      202 </v>
  <v type="int" >      256 </v>
  <v type="int" >      111 </v>
  <v type="int" >      155 </v>
  <v type="int" >      277 </v>
  <v type="int" >      102 </v>
  <v type="int" >       51 </v>
  <v type="int" >      182 </v>
  <v type="int" >      212 </v>
  <v type="int" >       20 </v>
  <v type="int" >      287 </v>
  <v type="int" >      146 </v>
  <v type="int" >      163 </v>
  <v type="int" >      104 </v>
  <v type="int" >      284 </v>
  <v type="int" >      166 </v>
  <v type="int" >      108 </v>
  <v type="int" >       50 </v>
  <v type="int" >      176 </v>
  <v type="int" >      145 </v>
  <v type="int" >      117 </v>
  <v type="int" >      250 </v>
  <v type="int" >      167 </v>
  <v type="int" >       91 </v>
  <v type="int" >      205 </v>
  <v type="int" >      123 </v>
  <v type="int" >      114 </v>
  <v type="int" >      213 </v>
  <v type="int" >      174 </v>
  <v type="int" >      192 </v>
  <v type="int" >       92 </v>
  <v type="int" >      276 </v>
  <v type="int" >      229 </v>
  <v type="int" >       97 </v>
  <v type="int" >      189 </v>
  <v type="int" >      175 </v>
  <v type="int" >      185 </v>
  <v type="int" >       30 </v>
  <v type="int" >      200 </v>
  <v type="int" >       52 </v>
  <v type="int" >      179 </v>
  <v type="int" >      103 </v>
  <v type="int" >       24 </v>
  <v type="int" >      164 </v>
  <v type="int" >      127 </v>
  <v type="int" >      112 </v>
  <v type="int" >      139 </v>
  <v type="int" >      261 </v>
  <v type="int" >      243 </v>
  <v type="int" >      168 </v>
  <v type="int" >      137 </v>
  <v type="int" >      118 </v>
  <v type="int" >      265 </v>
  <v type="int" >       58 </v>
  <v type="int" >      275 </v>
  <v type="int" >       81 </v>
  <v type="int" >      221 </v>
  <v type="int" >      214 </v>
  <v type="int" >      135 </v>
  <v type="int" >      215 </v>
  <v type="int" >       98 </v>
  <v type="int" >       72 </v>
  <v type="int" >      226 </v>
  <v type="int" >      178 </v>
  <v type="int" >       28 </v>
  <v type="int" >      263 </v>
  <v type="int" >      109 </v>
  <v type="int" >      159 </v>
  <v type="int" >      242 </v>
  <v type="int" >      220 </v>
  <v type="int" >      130 </v>
  <v type="int" >      101 </v>
  <v type="int" >      210 </v>
  <v type="int" >      171 </v>
  <v type="int" >      194 </v>
  <v type="int" >       47 </v>
  <v type="int" >      258 </v>
  <v type="int" >      216 </v>
  <v type="int" >       86 </v>
  <v type="int" >      207 </v>
  <v type="int" >      208 </v>
  <v type="int" >       25 </v>
  <v type="int" >       73 </v>
  <v type="int" >      172 </v>
  <v type="int" >       12 </v>
  <v type="int" >      116 </v>
  <v type="int" >      279 </v>
  <v type="int" >      219 </v>
  <v type="int" >      206 </v>
  <v type="int" >      282 </v>
  <v type="int" >       62 </v>
  <v type="int" >      105 </v>
  <v type="int" >      268 </v>
  <v type="int" >      120 </v>
  <v type="int" >      245 </v>
  <v type="int" >       14 </v>
  <v type="int" >      280 </v>
  <v type="int" >      124 </v>
  <v type="int" >      150 </v>
  <v type="int" >      266 </v>
  <v type="int" >       29 </v>
  <v type="int" >      255 </v>
  <v type="int" >      191 </v>
  <v type="int" >      190 </v>
  <v type="int" >      283 </v>
  <v type="int" >      165 </v>
  <v type="int" >      248 </v>
  <v type="int" >       48 </v>
  <v type="int" >       13 </v>
  <v type="int" >       18 </v>
  <v type="int" >      161 </v>
  <v type="int" >      247 </v>
  <v type="int" >      273 </v>
  <v type="int" >       45 </v>
  <v type="int" >      264 </v>
  <v type="int" >       84 </v>
  <v type="int" >        4 </v>
  <v type="int" >       67 </v>
  <v type="int" >      278 </v>
  <v type="int" >       16 </v>
  <v type="int" >       64 </v>
  <v type="int" >      259 </v>
  <v type="int" >       17 </v>
  <v type="int" >        7 </v>
  <v type="int" >      134 </v>
  <v type="int" >        6 </v>
  <v type="int" >       39 </v>
  <v type="int" >      222 </v>
  <v type="int" >       88 </v>
  <v type="int" >       36 </v>
  <v type="int" >      253 </v>
  <v type="int" >      181 </v>
  <v type="int" >      110 </v>
  <v type="int" >        5 </v>
  <v type="int" >      204 </v>
  <v type="int" >      160 </v>
  <v type="int" >      158 </v>
  <v type="int" >       82 </v>
  <v type="int" >      143 </v>
  <v type="int" >       74 </v>
  <v type="int" >       23 </v>
  <v type="int" >      235 </v>
  <v type="int" >      218 </v>
  <v type="int" >      241 </v>
  <v type="int" >      238 </v>
  <v type="int" >      257 </v>
  <v type="int" >      201 </v>
  <v type="int" >      131 </v>
  <v type="int" >       80 </v>
  <v type="int" >      113 </v>
  <v type="int" >      232 </v>
  <v type="int" >      249 </v>
  <v type="int" >       69 </v>
  <v type="int" >      251 </v>
  <v type="int" >      149 </v>
  <v type="int" >        3 </v>
  <v type="int" >      197 </v>
  <v type="int" >      254 </v>
  <v type="int" >       55 </v>
  <v type="int" >      224 </v>
  <v type="int" >       49 </v>
  <v type="int" >       57 </v>
  <v type="int" >      272 </v>
  <v type="int" >      138 </v>
  <v type="int" >      132 </v>
  <v type="int" >      188 </v>
  <v type="int" >       94 </v>
  <v type="int" >      223 </v>
  <v type="int" >      236 </v>
  <v type="int" >      184 </v>
  <v type="int" >       66 </v>
  <v type="int" >       33 </v>
  <v type="int" >      157 </v>
  <v type="int" >      230 </v>
  <v type="int" >       21 </v>
  <v type="int" >      106 </v>
  <v type="int" >      234 </v>
  <v type="int" >       99 </v>
  <v type="int" >       75 </v>
  <v type="int" >      281 </v>
  <v type="int" >      244 </v>
  <v type="int" >      269 </v>
  <v type="int" >      237 </v>
  <v type="int" >      156 </v>
  <v type="int" >      199 </v>
  <v type="int" >      169 </v>
  <v type="int" >        9 </v>
  <v type="int" >       46 </v>
  <v type="int" >      262 </v>
  <v type="int" >      239 </v>
  <v type="int" >      151 </v>
  <v type="int" >      187 </v>
  <v type="int" >       11 </v>
  <v type="int" >       43 </v>
  <v type="int" >       31 </v>
  <v type="int" >      211 </v>
  <v type="int" >       71 </v>
  <v type="int" >       19 </v>
  <v type="int" >       27 </v>
  <v type="int" >      140 </v>
  <v type="int" >      286 </v>
  <v type="int" >       87 </v>
  <v type="int" >      288 </v>
  <v type="int" >      267 </v>
  <v type="int" >      144 </v>
  <v type="int" >       10 </v>
  <v type="int" >      107 </v>
  <v type="int" >       68 </v>
  <v type="int" >      203 </v>
  <v type="int" >      119 </v>
  <v type="int" >      183 </v>
  <v type="int" >       34 </v>
  <v type="int" >      177 </v>
  <v type="int" >      270 </v>
  <v type="int" >      195 </v>
  <v type="int" >      252 </v>
  <v type="int" >       77 </v>
  <v type="int" >      285 </v>
  <v type="int" >      173 </v>
  <v type="int" >      225 </v>
  <v type="int" >       37 </v>
  <v type="int" >      274 </v>
  <v type="int" >       63 </v>
  <v type="int" >      233 </v>
  <v type="int" >      154 </v>
  <v type="int" >      141 </v>
  <v type="int" >       54 </v>
  <v type="int" >       38 </v>
  <v type="int" >      152 </v>
  <v type="int" >      246 </v>
  <v type="int" >      170 </v>
  <v type="int" >      129 </v>
  <v type="int" >      162 </v>
  <v type="int" >       53 </v>
  <v type="int" >      193 </v>
  <v type="int" >       76 </v>
  <v type="int" >       65 </v>
  <v type="int" >      271 </v>
  <v type="int" >       93 </v>
  <v type="int" >      133 </v>
  <v type="int" >       56 </v>
  <v type="int" >       32 </v>
  <v type="int" >       90 </v>
  <v type="int" >       95 </v>
  <v type="int" >       59 </v>
  <v type="int" >       42 </v>
  <v type="int" >       70 </v>
  <v type="int" >        8 </v>
  <v type="int" >      228 </v>
  <v type="int" >      186 </v>
  <v type="int" >      196 </v>
  <v type="int" >      121 </v>
  <v type="int" >      122 </v>
  <v type="int" >        2 </v>
  <v type="int" >       79 </v>
  <v type="int" >      198 </v>
  <v type="int" >      153 </v>
  <v type="int" >      240 </v>
  <v type="int" >       35 </v>
  <v type="int" >      209 </v>
  <v type="int" >       85 </v>
  <v type="int" >      231 </v>
  <v type="int" >      227 </v>
  <v type="int" >      142 </v>
  <v type="int" >       40 </v>
  <v type="int" >       89 </v>
  <v type="int" >      217 </v>
  <v type="int" >       15 </v>
  <v type="int" >      100 </v>
  <v type="int" >      136 </v>
  <v type="int" >       61 </v>
  <v type="int" >      148 </v>
  <v type="int" >       78 </v>
  <v type="int" >       96 </v>
  <v type="int" >      115 </v>
  <v type="int" >      126 </v>
  <v type="int" >      180 </v>
  <v type="int" >      147 </v>
  <v type="int" >       41 </v>
  <v type="int" >       22 </v>
  <v type="int" >      260 </v>
  <v type="int" >      128 </v>
 </varray>
 <kpoints>
  <generation param="Gamma">
   <v type="int" name="divisions">       4        4        1 </v>
   <v name="usershift">      0.00000000       0.00000000       0.00000000 </v>
   <v name="genvec1">      0.25000000       0.00000000       0.00000000 </v>
   <v name="genvec2">      0.00000000       0.25000000       0.00000000 </v>
   <v name="genvec3">      0.00000000       0.00000000       1.00000000 </v>
   <v name="shift">      0.00000000       0.00000000       0.00000000 </v>
  </generation>
  <varray name="kpointlist" >
   <v>       0.00000000       0.00000000       0.00000000 </v>
   <v>       0.25000000       0.00000000       0.00000000 </v>
   <v>       0.50000000       0.00000000       0.00000000 </v>
   <v>       0.00000000       0.25000000       0.00000000 </v>
   <v>       0.25000000       0.25000000       0.00000000 </v>
   <v>       0.50000000       0.25000000       0.00000000 </v>
   <v>      -0.25000000       0.25000000       0.00000000 </v>
   <v>       0.00000000       0.50000000       0.00000000 </v>
   <v>       0.25000000       0.50000000       0.00000000 </v>
   <v>       0.50000000       0.50000000       0.00000000 </v>
  </varray>
  <varray name="weights" >
   <v>       0.06250000 </v>
   <v>       0.12500000 </v>
   <v>       0.06250000 </v>
   <v>       0.12500000 </v>
   <v>       0.12500000 </v>
   <v>       0.12500000 </v>
   <v>       0.12500000 </v>
   <v>       0.06250000 </v>
   <v>       0.12500000 </v>
   <v>       0.06250000 </v>
  </varray>
 </kpoints>
 <parameters>
  <separator name="general" >
   <i type="string" name="SYSTEM">unknown system</i>
   <i type="logical" name="LCOMPAT"> F  </i>
  </separator>
  <separator name="electronic" >
   <i type="string" name="PREC">accura</i>
   <i name="ENMAX">    450.00000000</i>
   <i name="ENAUG">    838.43500000</i>
   <i name="EDIFF">      0.00000100</i>
   <i type="int" name="IALGO">    68</i>
   <i type="int" name="IWAVPR">    11</i>
   <i type="int" name="NBANDS">  1386</i>
   <i name="NELECT">   2290.00000000</i>
   <i type="int" name="TURBO">     0</i>
   <i type="int" name="IRESTART">     0</i>
   <i type="int" name="NREBOOT">     0</i>
   <i type="int" name="NMIN">     0</i>
   <i name="EREF">      0.00000000</i>
   <separator name="electronic smearing" >
    <i type="int" name="ISMEAR">     0</i>
    <i name="SIGMA">      0.15000000</i>
    <i name="KSPACING">      0.50000000</i>
    <i type="logical" name="KGAMMA"> T  </i>
   </separator>
   <separator name="electronic projectors" >
    <i type="logical" name="LREAL"> T  </i>
    <v name="ROPT">     -0.00025000     -0.00025000</v>
    <i type="int" name="LMAXPAW">  -100</i>
    <i type="int" name="LMAXMIX">     2</i>
    <i type="logical" name="NLSPLINE"> F  </i>
   </separator>
   <separator name="electronic startup" >
    <i type="int" name="ISTART">     0</i>
    <i type="int" name="ICHARG">     2</i>
    <i type="int" name="INIWAV">     1</i>
   </separator>
   <separator name="electronic spin" >
    <i type="int" name="ISPIN">     1</i>
    <i type="logical" name="LNONCOLLINEAR"> F  </i>
    <v name="MAGMOM">      1.00000000      1.00000000      1.00000000      1.00000000      1.00000000      1.00000000      1.00000000      1.00000000      1.00000000      1.00000000      1.00000000      1.00000000      1.00000000      1.00000000      1.00000000      1.00000000      1.00000000      1.00000000      1.00000000      1.00000000
      1.00000000      1.00000000      1.00000000      1.00000000      1.00000000      1.00000000      1.00000000      1.00000000      1.00000000      1.00000000      1.00000000      1.00000000      1.00000000      1.00000000      1.00000000      1.00000000      1.00000000      1.00000000      1.00000000      1.00000000
      1.00000000      1.00000000      1.00000000      1.00000000      1.00000000      1.00000000      1.00000000      1.00000000      1.00000000      1.00000000      1.00000000      1.00000000      1.00000000      1.00000000      1.00000000      1.00000000      1.00000000      1.00000000      1.00000000      1.00000000
      1.00000000      1.00000000      1.00000000      1.00000000      1.00000000      1.00000000      1.00000000      1.00000000      1.00000000      1.00000000      1.00000000      1.00000000      1.00000000      1.00000000      1.00000000      1.00000000      1.00000000      1.00000000      1.00000000      1.00000000
      1.00000000      1.00000000      1.00000000      1.00000000      1.00000000      1.00000000      1.00000000      1.00000000      1.00000000      1.00000000      1.00000000      1.00000000      1.00000000      1.00000000      1.00000000      1.00000000      1.00000000      1.00000000      1.00000000      1.00000000
      1.00000000      1.00000000      1.00000000      1.00000000      1.00000000      1.00000000      1.00000000      1.00000000      1.00000000      1.00000000      1.00000000      1.00000000      1.00000000      1.00000000      1.00000000      1.00000000      1.00000000      1.00000000      1.00000000      1.00000000
      1.00000000      1.00000000      1.00000000      1.00000000      1.00000000      1.00000000      1.00000000      1.00000000      1.00000000      1.00000000      1.00000000      1.00000000      1.00000000      1.00000000      1.00000000      1.00000000      1.00000000      1.00000000      1.00000000      1.00000000
      1.00000000      1.00000000      1.00000000      1.00000000      1.00000000      1.00000000      1.00000000      1.00000000      1.00000000      1.00000000      1.00000000      1.00000000      1.00000000      1.00000000      1.00000000      1.00000000      1.00000000      1.00000000      1.00000000      1.00000000
      1.00000000      1.00000000      1.00000000      1.00000000      1.00000000      1.00000000      1.00000000      1.00000000      1.00000000      1.00000000      1.00000000      1.00000000      1.00000000      1.00000000      1.00000000      1.00000000      1.00000000      1.00000000      1.00000000      1.00000000
      1.00000000      1.00000000      1.00000000      1.00000000      1.00000000      1.00000000      1.00000000      1.00000000      1.00000000      1.00000000      1.00000000      1.00000000      1.00000000      1.00000000      1.00000000      1.00000000      1.00000000      1.00000000      1.00000000      1.00000000
      1.00000000      1.00000000      1.00000000      1.00000000      1.00000000      1.00000000      1.00000000      1.00000000      1.00000000      1.00000000      1.00000000      1.00000000      1.00000000      1.00000000      1.00000000      1.00000000      1.00000000      1.00000000      1.00000000      1.00000000
      1.00000000      1.00000000      1.00000000      1.00000000      1.00000000      1.00000000      1.00000000      1.00000000      1.00000000      1.00000000      1.00000000      1.00000000      1.00000000      1.00000000      1.00000000      1.00000000      1.00000000      1.00000000      1.00000000      1.00000000
      1.00000000      1.00000000      1.00000000      1.00000000      1.00000000      1.00000000      1.00000000      1.00000000      1.00000000      1.00000000      1.00000000      1.00000000      1.00000000      1.00000000      1.00000000      1.00000000      1.00000000      1.00000000      1.00000000      1.00000000
      1.00000000      1.00000000      1.00000000      1.00000000      1.00000000      1.00000000      1.00000000      1.00000000      1.00000000      1.00000000      1.00000000      1.00000000      1.00000000      1.00000000      1.00000000      1.00000000      1.00000000      1.00000000      1.00000000      1.00000000
      1.00000000      1.00000000      1.00000000      1.00000000      1.00000000      1.00000000      1.00000000      1.00000000</v>
    <i name="NUPDOWN">     -1.00000000</i>
    <i type="logical" name="LSORBIT"> F  </i>
    <v name="SAXIS">      0.00000000      0.00000000      1.00000000</v>
    <i type="logical" name="LSPIRAL"> F  </i>
    <v name="QSPIRAL">      0.00000000      0.00000000      0.00000000</v>
    <i type="logical" name="LZEROZ"> F  </i>
   </separator>
   <separator name="electronic exchange-correlation" >
    <i type="logical" name="LASPH"> F  </i>
    <i type="logical" name="LMETAGGA"> F  </i>
   </separator>
   <separator name="electronic convergence" >
    <i type="int" name="NELM">   100</i>
    <i type="int" name="NELMDL">     0</i>
    <i type="int" name="NELMIN">     4</i>
    <i name="ENINI">    450.00000000</i>
    <separator name="electronic convergence detail" >
     <i type="logical" name="LDIAG"> T  </i>
     <i type="logical" name="LSUBROT"> F  </i>
     <i name="WEIMIN">      0.00100000</i>
     <i name="EBREAK">      0.00000000</i>
     <i name="DEPER">      0.30000000</i>
     <i type="int" name="NRMM">     4</i>
     <i name="TIME">      0.40000000</i>
    </separator>
   </separator>
   <separator name="electronic mixer" >
    <i name="AMIX">      0.40000000</i>
    <i name="BMIX">      1.00000000</i>
    <i name="AMIN">      0.10000000</i>
    <i name="AMIX_MAG">      1.60000000</i>
    <i name="BMIX_MAG">      1.00000000</i>
    <separator name="electronic mixer details" >
     <i type="int" name="IMIX">     4</i>
     <i type="logical" name="MIXFIRST"> F  </i>
     <i type="int" name="MAXMIX">   -45</i>
     <i name="WC">    100.00000000</i>
     <i type="int" name="INIMIX">     1</i>
     <i type="int" name="MIXPRE">     1</i>
     <i type="int" name="MREMOVE">     5</i>
    </separator>
   </separator>
   <separator name="electronic dipolcorrection" >
    <i type="logical" name="LDIPOL"> F  </i>
    <i type="logical" name="LMONO"> F  </i>
    <i type="int" name="IDIPOL">     0</i>
    <i name="EPSILON">      1.00000000</i>
    <v name="DIPOL">   -100.00000000   -100.00000000   -100.00000000</v>
    <i name="EFIELD">      0.00000000</i>
   </separator>
  </separator>
  <separator name="grids" >
   <i type="int" name="NGX">    70</i>
   <i type="int" name="NGY">    60</i>
   <i type="int" name="NGZ">   320</i>
   <i type="int" name="NGXF">   140</i>
   <i type="int" name="NGYF">   120</i>
   <i type="int" name="NGZF">   640</i>
   <i type="logical" name="ADDGRID"> F  </i>
  </separator>
  <separator name="ionic" >
   <i type="int" name="NSW">     5</i>
   <i type="int" name="IBRION">     2</i>
   <i type="int" name="MDALGO">     0</i>
   <i type="int" name="ISIF">     2</i>
   <i name="PSTRESS">      0.00000000</i>
   <i name="EDIFFG">      0.00001000</i>
   <i type="int" name="NFREE">     1</i>
   <i name="POTIM">      0.25000000</i>
   <i name="SMASS">     -3.00000000</i>
   <i name="SCALEE">      1.00000000</i>
  </separator>
  <separator name="ionic md" >
   <i name="TEBEG">      0.00010000</i>
   <i name="TEEND">      0.00010000</i>
   <i type="int" name="NBLOCK">     1</i>
   <i type="int" name="KBLOCK">     5</i>
   <i type="int" name="NPACO">   256</i>
   <i name="APACO">     16.00000000</i>
  </separator>
  <separator name="symmetry" >
   <i type="int" name="ISYM">     2</i>
   <i name="SYMPREC">      0.00001000</i>
  </separator>
  <separator name="dos" >
   <i type="int" name="LORBIT">     0</i>
   <v name="RWIGS">     -1.00000000     -1.00000000</v>
   <i type="int" name="NEDOS">   301</i>
   <i name="EMIN">     10.00000000</i>
   <i name="EMAX">    -10.00000000</i>
   <i name="EFERMI">      0.00000000</i>
  </separator>
  <separator name="writing" >
   <i type="int" name="NWRITE">     2</i>
   <i type="logical" name="LWAVE"> F  </i>
   <i type="logical" name="LDOWNSAMPLE"> F  </i>
   <i type="logical" name="LCHARG"> F  </i>
   <i type="logical" name="LPARD"> F  </i>
   <i type="logical" name="LVTOT"> F  </i>
   <i type="logical" name="LVHAR"> F  </i>
   <i type="logical" name="LELF"> F  </i>
   <i type="logical" name="LOPTICS"> F  </i>
   <v name="STM">      0.00000000      0.00000000      0.00000000      0.00000000      0.00000000      0.00000000      0.00000000</v>
  </separator>
  <separator name="performance" >
   <i type="int" name="NPAR">    14</i>
   <i type="int" name="NSIM">     4</i>
   <i type="int" name="NBLK">    -1</i>
   <i type="logical" name="LPLANE"> T  </i>
   <i type="logical" name="LSCALAPACK"> T  </i>
   <i type="logical" name="LSCAAWARE"> T  </i>
   <i type="logical" name="LSCALU"> F  </i>
   <i type="logical" name="LASYNC"> F  </i>
   <i type="logical" name="LORBITALREAL"> F  </i>
  </separator>
  <separator name="miscellaneous" >
   <i type="int" name="IDIOT">     3</i>
   <i type="int" name="ISPECIAL">     0</i>
   <i type="logical" name="LMUSIC"> F  </i>
   <v name="POMASS">     55.84700000     54.93800000</v>
   <v name="DARWINR">      0.00000000      0.00000000</v>
   <v name="DARWINV">      1.00000000      1.00000000</v>
   <i type="logical" name="LCORR"> T  </i>
  </separator>
  <i type="logical" name="GGA_COMPAT"> T  </i>
  <i type="logical" name="LBERRY"> F  </i>
  <i type="int" name="ICORELEVEL">     0</i>
  <i type="logical" name="LDAU"> F  </i>
  <i type="int" name="I_CONSTRAINED_M">     0</i>
  <separator name="electronic exchange-correlation" >
   <i type="string" name="GGA">--</i>
   <i type="int" name="VOSKOWN">     0</i>
   <i type="logical" name="LHFCALC"> F  </i>
   <i type="string" name="PRECFOCK"></i>
   <i type="logical" name="LSYMGRAD"> F  </i>
   <i type="logical" name="LHFONE"> F  </i>
   <i type="logical" name="LRHFCALC"> F  </i>
   <i type="logical" name="LTHOMAS"> F  </i>
   <i type="logical" name="LMODELHF"> F  </i>
   <i name="ENCUT4O">     -1.00000000</i>
   <i type="int" name="EXXOEP">     0</i>
   <i type="int" name="FOURORBIT">     0</i>
   <i name="AEXX">      0.00000000</i>
   <i name="HFALPHA">      0.00000000</i>
   <i name="MCALPHA">      0.00000000</i>
   <i name="ALDAX">      1.00000000</i>
   <i name="AGGAX">      1.00000000</i>
   <i name="ALDAC">      1.00000000</i>
   <i name="AGGAC">      1.00000000</i>
   <i type="int" name="NKREDX">     1</i>
   <i type="int" name="NKREDY">     1</i>
   <i type="int" name="NKREDZ">     1</i>
   <i type="logical" name="SHIFTRED"> F  </i>
   <i type="logical" name="ODDONLY"> F  </i>
   <i type="logical" name="EVENONLY"> F  </i>
   <i type="int" name="LMAXFOCK">     0</i>
   <i type="int" name="NMAXFOCKAE">     0</i>
   <i type="logical" name="LFOCKAEDFT"> F  </i>
   <i name="HFSCREEN">      0.00000000</i>
   <i name="HFSCREENC">      0.00000000</i>
   <i type="int" name="NBANDSGWLOW">     0</i>
  </separator>
  <separator name="vdW DFT" >
   <i type="logical" name="LUSE_VDW"> F  </i>
   <i name="Zab_VDW">     -0.84910000</i>
   <i name="PARAM1">      0.12340000</i>
   <i name="PARAM2">      1.00000000</i>
   <i name="PARAM3">      0.00000000</i>
  </separator>
  <separator name="model GW" >
   <i type="int" name="MODEL_GW">     0</i>
   <i name="MODEL_EPS0">      7.68123389</i>
   <i name="MODEL_ALPHA">      1.00000000</i>
  </separator>
  <separator name="linear response parameters" >
   <i type="logical" name="LEPSILON"> F  </i>
   <i type="logical" name="LRPA"> F  </i>
   <i type="logical" name="LNABLA"> F  </i>
   <i type="logical" name="LVEL"> F  </i>
   <i type="int" name="KINTER">     0</i>
   <i name="CSHIFT">      0.10000000</i>
   <i name="OMEGAMAX">     -1.00000000</i>
   <i name="DEG_THRESHOLD">      0.00200000</i>
   <i name="RTIME">     -0.10000000</i>
   <i name="WPLASMAI">      0.00000000</i>
   <v name="DFIELD">      0.00000000      0.00000000      0.00000000</v>
   <v name="WPLASMA">      0.00000000      0.00000000      0.00000000      0.00000000      0.00000000      0.00000000      0.00000000      0.00000000      0.00000000</v>
  </separator>
  <separator name="orbital magnetization" >
   <i type="logical" name="NUCIND"> F  </i>
   <v name="MAGPOS">      0.00000000      0.00000000      0.00000000</v>
   <i type="logical" name="LNICSALL"> T  </i>
   <i type="logical" name="ORBITALMAG"> F  </i>
   <i type="logical" name="LMAGBLOCH"> F  </i>
   <i type="logical" name="LCHIMAG"> F  </i>
   <i type="logical" name="LGAUGE"> T  </i>
   <i type="int" name="MAGATOM">     0</i>
   <v name="MAGDIPOL">      0.00000000      0.00000000      0.00000000</v>
   <v name="AVECCONST">      0.00000000      0.00000000      0.00000000</v>
  </separator>
  <separator name="response functions" >
   <i type="logical" name="LADDER"> F  </i>
   <i type="logical" name="LRPAFORCE"> F  </i>
   <i type="logical" name="LFXC"> F  </i>
   <i type="logical" name="LHARTREE"> T  </i>
   <i type="int" name="IBSE">     0</i>
   <v type="int" name="KPOINT">    -1     0     0     0</v>
   <i type="logical" name="LTCTE"> F  </i>
   <i type="logical" name="LTETE"> F  </i>
   <i type="logical" name="LTRIPLET"> F  </i>
   <i type="logical" name="LFXCEPS"> F  </i>
   <i type="logical" name="LFXHEG"> F  </i>
   <i type="int" name="NATURALO">     2</i>
   <i type="logical" name="L2ORDER"> F  </i>
   <i type="logical" name="LMP2LT"> F  </i>
   <i type="logical" name="LUSEW"> F  </i>
   <i name="ENCUTGW">     -2.00000000</i>
   <i name="ENCUTGWSOFT">     -2.00000000</i>
   <i name="ENCUTLF">     -1.00000000</i>
   <i type="int" name="LMAXMP2">    -1</i>
   <i name="SCISSOR">      0.00000000</i>
   <i type="int" name="NOMEGA">     0</i>
   <i type="int" name="NOMEGAR">     0</i>
   <i type="int" name="NBANDSGW">    -1</i>
   <i type="int" name="NBANDSO">    -1</i>
   <i type="int" name="NBANDSV">    -1</i>
   <i type="int" name="NELM">   100</i>
   <i type="int" name="NELMHF">     1</i>
   <i type="int" name="DIM">     3</i>
   <i type="int" name="ANTIRES">     0</i>
   <i name="OMEGAMAX">    -30.00000000</i>
   <i name="OMEGAMIN">    -30.00000000</i>
   <i name="OMEGATL">   -200.00000000</i>
   <i type="int" name="OMEGAGRID">   140</i>
   <i name="CSHIFT">     -0.10000000</i>
   <i type="logical" name="SELFENERGY"> F  </i>
   <i type="logical" name="LSPECTRAL"> F  </i>
   <i type="logical" name="LSPECTRALGW"> F  </i>
   <i type="logical" name="LSINGLES"> F  </i>
   <i type="logical" name="LFERMIGW"> F  </i>
   <i type="logical" name="ODDONLYGW"> F  </i>
   <i type="logical" name="EVENONLYGW"> F  </i>
   <i type="int" name="NKREDLFX">     1</i>
   <i type="int" name="NKREDLFY">     1</i>
   <i type="int" name="NKREDLFZ">     1</i>
   <i type="int" name="MAXMEM">  2800</i>
   <i type="int" name="TELESCOPE">     0</i>
   <i type="int" name="TAUPAR">     1</i>
   <i type="int" name="OMEGAPAR">    -1</i>
   <i name="LAMBDA">      1.00000000</i>
  </separator>
  <separator name="External order field" >
   <i name="OFIELD_KAPPA">      0.00000000</i>
   <v name="OFIELD_K">      0.00000000      0.00000000      0.00000000</v>
   <i name="OFIELD_Q6_NEAR">      0.00000000</i>
   <i name="OFIELD_Q6_FAR">      0.00000000</i>
   <i name="OFIELD_A">      0.00000000</i>
  </separator>
 </parameters>
 <atominfo>
  <atoms>     288 </atoms>
  <types>       2 </types>
  <array name="atoms" >
   <dimension dim="1">ion</dimension>
   <field type="string">element</field>
   <field type="int">atomtype</field>
   <set>
    <rc><c>Fe</c><c>   1</c></rc>
    <rc><c>Fe</c><c>   1</c></rc>
    <rc><c>Fe</c><c>   1</c></rc>
    <rc><c>Fe</c><c>   1</c></rc>
    <rc><c>Fe</c><c>   1</c></rc>
    <rc><c>Fe</c><c>   1</c></rc>
    <rc><c>Fe</c><c>   1</c></rc>
    <rc><c>Fe</c><c>   1</c></rc>
    <rc><c>Fe</c><c>   1</c></rc>
    <rc><c>Fe</c><c>   1</c></rc>
    <rc><c>Fe</c><c>   1</c></rc>
    <rc><c>Fe</c><c>   1</c></rc>
    <rc><c>Fe</c><c>   1</c></rc>
    <rc><c>Fe</c><c>   1</c></rc>
    <rc><c>Fe</c><c>   1</c></rc>
    <rc><c>Fe</c><c>   1</c></rc>
    <rc><c>Fe</c><c>   1</c></rc>
    <rc><c>Fe</c><c>   1</c></rc>
    <rc><c>Fe</c><c>   1</c></rc>
    <rc><c>Fe</c><c>   1</c></rc>
    <rc><c>Fe</c><c>   1</c></rc>
    <rc><c>Fe</c><c>   1</c></rc>
    <rc><c>Fe</c><c>   1</c></rc>
    <rc><c>Fe</c><c>   1</c></rc>
    <rc><c>Fe</c><c>   1</c></rc>
    <rc><c>Fe</c><c>   1</c></rc>
    <rc><c>Fe</c><c>   1</c></rc>
    <rc><c>Fe</c><c>   1</c></rc>
    <rc><c>Fe</c><c>   1</c></rc>
    <rc><c>Fe</c><c>   1</c></rc>
    <rc><c>Fe</c><c>   1</c></rc>
    <rc><c>Fe</c><c>   1</c></rc>
    <rc><c>Fe</c><c>   1</c></rc>
    <rc><c>Fe</c><c>   1</c></rc>
    <rc><c>Fe</c><c>   1</c></rc>
    <rc><c>Fe</c><c>   1</c></rc>
    <rc><c>Fe</c><c>   1</c></rc>
    <rc><c>Fe</c><c>   1</c></rc>
    <rc><c>Fe</c><c>   1</c></rc>
    <rc><c>Fe</c><c>   1</c></rc>
    <rc><c>Fe</c><c>   1</c></rc>
    <rc><c>Fe</c><c>   1</c></rc>
    <rc><c>Fe</c><c>   1</c></rc>
    <rc><c>Fe</c><c>   1</c></rc>
    <rc><c>Fe</c><c>   1</c></rc>
    <rc><c>Fe</c><c>   1</c></rc>
    <rc><c>Fe</c><c>   1</c></rc>
    <rc><c>Fe</c><c>   1</c></rc>
    <rc><c>Fe</c><c>   1</c></rc>
    <rc><c>Fe</c><c>   1</c></rc>
    <rc><c>Fe</c><c>   1</c></rc>
    <rc><c>Fe</c><c>   1</c></rc>
    <rc><c>Fe</c><c>   1</c></rc>
    <rc><c>Fe</c><c>   1</c></rc>
    <rc><c>Fe</c><c>   1</c></rc>
    <rc><c>Fe</c><c>   1</c></rc>
    <rc><c>Fe</c><c>   1</c></rc>
    <rc><c>Fe</c><c>   1</c></rc>
    <rc><c>Fe</c><c>   1</c></rc>
    <rc><c>Fe</c><c>   1</c></rc>
    <rc><c>Fe</c><c>   1</c></rc>
    <rc><c>Fe</c><c>   1</c></rc>
    <rc><c>Fe</c><c>   1</c></rc>
    <rc><c>Fe</c><c>   1</c></rc>
    <rc><c>Fe</c><c>   1</c></rc>
    <rc><c>Fe</c><c>   1</c></rc>
    <rc><c>Fe</c><c>   1</c></rc>
    <rc><c>Fe</c><c>   1</c></rc>
    <rc><c>Fe</c><c>   1</c></rc>
    <rc><c>Fe</c><c>   1</c></rc>
    <rc><c>Fe</c><c>   1</c></rc>
    <rc><c>Fe</c><c>   1</c></rc>
    <rc><c>Fe</c><c>   1</c></rc>
    <rc><c>Fe</c><c>   1</c></rc>
    <rc><c>Fe</c><c>   1</c></rc>
    <rc><c>Fe</c><c>   1</c></rc>
    <rc><c>Fe</c><c>   1</c></rc>
    <rc><c>Fe</c><c>   1</c></rc>
    <rc><c>Fe</c><c>   1</c></rc>
    <rc><c>Fe</c><c>   1</c></rc>
    <rc><c>Fe</c><c>   1</c></rc>
    <rc><c>Fe</c><c>   1</c></rc>
    <rc><c>Fe</c><c>   1</c></rc>
    <rc><c>Fe</c><c>   1</c></rc>
    <rc><c>Fe</c><c>   1</c></rc>
    <rc><c>Fe</c><c>   1</c></rc>
    <rc><c>Fe</c><c>   1</c></rc>
    <rc><c>Fe</c><c>   1</c></rc>
    <rc><c>Fe</c><c>   1</c></rc>
    <rc><c>Fe</c><c>   1</c></rc>
    <rc><c>Fe</c><c>   1</c></rc>
    <rc><c>Fe</c><c>   1</c></rc>
    <rc><c>Fe</c><c>   1</c></rc>
    <rc><c>Fe</c><c>   1</c></rc>
    <rc><c>Fe</c><c>   1</c></rc>
    <rc><c>Fe</c><c>   1</c></rc>
    <rc><c>Fe</c><c>   1</c></rc>
    <rc><c>Fe</c><c>   1</c></rc>
    <rc><c>Fe</c><c>   1</c></rc>
    <rc><c>Fe</c><c>   1</c></rc>
    <rc><c>Fe</c><c>   1</c></rc>
    <rc><c>Fe</c><c>   1</c></rc>
    <rc><c>Fe</c><c>   1</c></rc>
    <rc><c>Fe</c><c>   1</c></rc>
    <rc><c>Fe</c><c>   1</c></rc>
    <rc><c>Fe</c><c>   1</c></rc>
    <rc><c>Fe</c><c>   1</c></rc>
    <rc><c>Fe</c><c>   1</c></rc>
    <rc><c>Fe</c><c>   1</c></rc>
    <rc><c>Fe</c><c>   1</c></rc>
    <rc><c>Fe</c><c>   1</c></rc>
    <rc><c>Fe</c><c>   1</c></rc>
    <rc><c>Fe</c><c>   1</c></rc>
    <rc><c>Fe</c><c>   1</c></rc>
    <rc><c>Fe</c><c>   1</c></rc>
    <rc><c>Fe</c><c>   1</c></rc>
    <rc><c>Fe</c><c>   1</c></rc>
    <rc><c>Fe</c><c>   1</c></rc>
    <rc><c>Fe</c><c>   1</c></rc>
    <rc><c>Fe</c><c>   1</c></rc>
    <rc><c>Fe</c><c>   1</c></rc>
    <rc><c>Fe</c><c>   1</c></rc>
    <rc><c>Fe</c><c>   1</c></rc>
    <rc><c>Fe</c><c>   1</c></rc>
    <rc><c>Fe</c><c>   1</c></rc>
    <rc><c>Fe</c><c>   1</c></rc>
    <rc><c>Fe</c><c>   1</c></rc>
    <rc><c>Fe</c><c>   1</c></rc>
    <rc><c>Fe</c><c>   1</c></rc>
    <rc><c>Fe</c><c>   1</c></rc>
    <rc><c>Fe</c><c>   1</c></rc>
    <rc><c>Fe</c><c>   1</c></rc>
    <rc><c>Fe</c><c>   1</c></rc>
    <rc><c>Fe</c><c>   1</c></rc>
    <rc><c>Fe</c><c>   1</c></rc>
    <rc><c>Fe</c><c>   1</c></rc>
    <rc><c>Fe</c><c>   1</c></rc>
    <rc><c>Fe</c><c>   1</c></rc>
    <rc><c>Fe</c><c>   1</c></rc>
    <rc><c>Fe</c><c>   1</c></rc>
    <rc><c>Fe</c><c>   1</c></rc>
    <rc><c>Fe</c><c>   1</c></rc>
    <rc><c>Fe</c><c>   1</c></rc>
    <rc><c>Fe</c><c>   1</c></rc>
    <rc><c>Fe</c><c>   1</c></rc>
    <rc><c>Fe</c><c>   1</c></rc>
    <rc><c>Fe</c><c>   1</c></rc>
    <rc><c>Fe</c><c>   1</c></rc>
    <rc><c>Fe</c><c>   1</c></rc>
    <rc><c>Fe</c><c>   1</c></rc>
    <rc><c>Fe</c><c>   1</c></rc>
    <rc><c>Fe</c><c>   1</c></rc>
    <rc><c>Fe</c><c>   1</c></rc>
    <rc><c>Fe</c><c>   1</c></rc>
    <rc><c>Fe</c><c>   1</c></rc>
    <rc><c>Fe</c><c>   1</c></rc>
    <rc><c>Fe</c><c>   1</c></rc>
    <rc><c>Fe</c><c>   1</c></rc>
    <rc><c>Fe</c><c>   1</c></rc>
    <rc><c>Fe</c><c>   1</c></rc>
    <rc><c>Fe</c><c>   1</c></rc>
    <rc><c>Fe</c><c>   1</c></rc>
    <rc><c>Fe</c><c>   1</c></rc>
    <rc><c>Fe</c><c>   1</c></rc>
    <rc><c>Fe</c><c>   1</c></rc>
    <rc><c>Fe</c><c>   1</c></rc>
    <rc><c>Fe</c><c>   1</c></rc>
    <rc><c>Fe</c><c>   1</c></rc>
    <rc><c>Fe</c><c>   1</c></rc>
    <rc><c>Fe</c><c>   1</c></rc>
    <rc><c>Fe</c><c>   1</c></rc>
    <rc><c>Fe</c><c>   1</c></rc>
    <rc><c>Fe</c><c>   1</c></rc>
    <rc><c>Fe</c><c>   1</c></rc>
    <rc><c>Fe</c><c>   1</c></rc>
    <rc><c>Fe</c><c>   1</c></rc>
    <rc><c>Fe</c><c>   1</c></rc>
    <rc><c>Fe</c><c>   1</c></rc>
    <rc><c>Fe</c><c>   1</c></rc>
    <rc><c>Fe</c><c>   1</c></rc>
    <rc><c>Fe</c><c>   1</c></rc>
    <rc><c>Fe</c><c>   1</c></rc>
    <rc><c>Fe</c><c>   1</c></rc>
    <rc><c>Fe</c><c>   1</c></rc>
    <rc><c>Fe</c><c>   1</c></rc>
    <rc><c>Fe</c><c>   1</c></rc>
    <rc><c>Fe</c><c>   1</c></rc>
    <rc><c>Fe</c><c>   1</c></rc>
    <rc><c>Fe</c><c>   1</c></rc>
    <rc><c>Fe</c><c>   1</c></rc>
    <rc><c>Fe</c><c>   1</c></rc>
    <rc><c>Fe</c><c>   1</c></rc>
    <rc><c>Fe</c><c>   1</c></rc>
    <rc><c>Fe</c><c>   1</c></rc>
    <rc><c>Fe</c><c>   1</c></rc>
    <rc><c>Fe</c><c>   1</c></rc>
    <rc><c>Fe</c><c>   1</c></rc>
    <rc><c>Fe</c><c>   1</c></rc>
    <rc><c>Fe</c><c>   1</c></rc>
    <rc><c>Fe</c><c>   1</c></rc>
    <rc><c>Fe</c><c>   1</c></rc>
    <rc><c>Fe</c><c>   1</c></rc>
    <rc><c>Fe</c><c>   1</c></rc>
    <rc><c>Fe</c><c>   1</c></rc>
    <rc><c>Fe</c><c>   1</c></rc>
    <rc><c>Fe</c><c>   1</c></rc>
    <rc><c>Fe</c><c>   1</c></rc>
    <rc><c>Fe</c><c>   1</c></rc>
    <rc><c>Fe</c><c>   1</c></rc>
    <rc><c>Fe</c><c>   1</c></rc>
    <rc><c>Fe</c><c>   1</c></rc>
    <rc><c>Fe</c><c>   1</c></rc>
    <rc><c>Fe</c><c>   1</c></rc>
    <rc><c>Fe</c><c>   1</c></rc>
    <rc><c>Fe</c><c>   1</c></rc>
    <rc><c>Fe</c><c>   1</c></rc>
    <rc><c>Fe</c><c>   1</c></rc>
    <rc><c>Fe</c><c>   1</c></rc>
    <rc><c>Fe</c><c>   1</c></rc>
    <rc><c>Fe</c><c>   1</c></rc>
    <rc><c>Fe</c><c>   1</c></rc>
    <rc><c>Fe</c><c>   1</c></rc>
    <rc><c>Fe</c><c>   1</c></rc>
    <rc><c>Fe</c><c>   1</c></rc>
    <rc><c>Fe</c><c>   1</c></rc>
    <rc><c>Fe</c><c>   1</c></rc>
    <rc><c>Fe</c><c>   1</c></rc>
    <rc><c>Fe</c><c>   1</c></rc>
    <rc><c>Fe</c><c>   1</c></rc>
    <rc><c>Fe</c><c>   1</c></rc>
    <rc><c>Fe</c><c>   1</c></rc>
    <rc><c>Fe</c><c>   1</c></rc>
    <rc><c>Fe</c><c>   1</c></rc>
    <rc><c>Fe</c><c>   1</c></rc>
    <rc><c>Fe</c><c>   1</c></rc>
    <rc><c>Fe</c><c>   1</c></rc>
    <rc><c>Fe</c><c>   1</c></rc>
    <rc><c>Fe</c><c>   1</c></rc>
    <rc><c>Fe</c><c>   1</c></rc>
    <rc><c>Fe</c><c>   1</c></rc>
    <rc><c>Fe</c><c>   1</c></rc>
    <rc><c>Fe</c><c>   1</c></rc>
    <rc><c>Fe</c><c>   1</c></rc>
    <rc><c>Fe</c><c>   1</c></rc>
    <rc><c>Fe</c><c>   1</c></rc>
    <rc><c>Fe</c><c>   1</c></rc>
    <rc><c>Fe</c><c>   1</c></rc>
    <rc><c>Fe</c><c>   1</c></rc>
    <rc><c>Fe</c><c>   1</c></rc>
    <rc><c>Fe</c><c>   1</c></rc>
    <rc><c>Fe</c><c>   1</c></rc>
    <rc><c>Fe</c><c>   1</c></rc>
    <rc><c>Fe</c><c>   1</c></rc>
    <rc><c>Fe</c><c>   1</c></rc>
    <rc><c>Fe</c><c>   1</c></rc>
    <rc><c>Fe</c><c>   1</c></rc>
    <rc><c>Fe</c><c>   1</c></rc>
    <rc><c>Fe</c><c>   1</c></rc>
    <rc><c>Fe</c><c>   1</c></rc>
    <rc><c>Fe</c><c>   1</c></rc>
    <rc><c>Fe</c><c>   1</c></rc>
    <rc><c>Fe</c><c>   1</c></rc>
    <rc><c>Fe</c><c>   1</c></rc>
    <rc><c>Fe</c><c>   1</c></rc>
    <rc><c>Fe</c><c>   1</c></rc>
    <rc><c>Fe</c><c>   1</c></rc>
    <rc><c>Fe</c><c>   1</c></rc>
    <rc><c>Fe</c><c>   1</c></rc>
    <rc><c>Fe</c><c>   1</c></rc>
    <rc><c>Fe</c><c>   1</c></rc>
    <rc><c>Fe</c><c>   1</c></rc>
    <rc><c>Fe</c><c>   1</c></rc>
    <rc><c>Fe</c><c>   1</c></rc>
    <rc><c>Fe</c><c>   1</c></rc>
    <rc><c>Mn</c><c>   2</c></rc>
    <rc><c>Mn</c><c>   2</c></rc>
    <rc><c>Mn</c><c>   2</c></rc>
    <rc><c>Mn</c><c>   2</c></rc>
    <rc><c>Mn</c><c>   2</c></rc>
    <rc><c>Mn</c><c>   2</c></rc>
    <rc><c>Mn</c><c>   2</c></rc>
    <rc><c>Mn</c><c>   2</c></rc>
    <rc><c>Mn</c><c>   2</c></rc>
    <rc><c>Mn</c><c>   2</c></rc>
    <rc><c>Mn</c><c>   2</c></rc>
    <rc><c>Mn</c><c>   2</c></rc>
    <rc><c>Mn</c><c>   2</c></rc>
    <rc><c>Mn</c><c>   2</c></rc>
   </set>
  </array>
  <array name="atomtypes" >
   <dimension dim="1">type</dimension>
   <field type="int">atomspertype</field>
   <field type="string">element</field>
   <field>mass</field>
   <field>valence</field>
   <field type="string">pseudopotential</field>
   <set>
    <rc><c> 274</c><c>Fe</c><c>     55.84700000</c><c>      8.00000000</c><c>  PAW_PBE Fe_GW 31Mar2010               </c></rc>
    <rc><c>  14</c><c>Mn</c><c>     54.93800000</c><c>      7.00000000</c><c>  PAW_PBE Mn_GW 31Mar2010               </c></rc>
   </set>
  </array>
 </atominfo>
 <structure name="initialpos" >
  <crystal>
   <varray name="basis" >
    <v>       9.72667804       0.00000000       0.00000000 </v>
    <v>       0.00000000       8.42355028       0.00000000 </v>
    <v>       0.00000000       0.00000000      45.00000000 </v>
   </varray>
   <i name="volume">   3686.99226691 </i>
   <varray name="rec_basis" >
    <v>       0.10281002       0.00000000       0.00000000 </v>
    <v>       0.00000000       0.11871479       0.00000000 </v>
    <v>       0.00000000       0.00000000       0.02222222 </v>
   </varray>
  </crystal>
  <varray name="positions" >
   <v>       0.06264876       0.03421302       0.12545223 </v>
   <v>       0.31318592       0.87186815       0.65399563 </v>
   <v>       0.18747766       0.11693318       0.78714142 </v>
   <v>       0.43769310       0.29124418       0.38971175 </v>
   <v>       0.31506651       0.70811084       0.83152464 </v>
   <v>       0.81416166       0.20961070       0.83256582 </v>
   <v>       0.18766990       0.95933966       0.83231156 </v>
   <v>       0.56299014       0.20737900       0.56506930 </v>
   <v>       0.06229883       0.03553101       0.74275437 </v>
   <v>       0.81246258       0.87101092       0.52112565 </v>
   <v>       0.18936947       0.28593437       0.74261605 </v>
   <v>       0.93653216       0.45637772       0.34628329 </v>
   <v>       0.93607218       0.29066121       0.38991207 </v>
   <v>       0.81209981       0.03490239       0.87429298 </v>
   <v>       0.18596940       0.78717454       0.61007306 </v>
   <v>       0.56198889       0.04108200       0.38999466 </v>
   <v>       0.93912590       0.95967053       0.83248239 </v>
   <v>       0.31397038       0.53502449       0.87461413 </v>
   <v>       0.68862103       0.28643557       0.74251416 </v>
   <v>       0.18904913       0.61934352       0.16778811 </v>
   <v>       0.81142676       0.20597978       0.47891147 </v>
   <v>       0.81233527       0.53598327       0.61025620 </v>
   <v>       0.31252965       0.87289297       0.43464133 </v>
   <v>       0.81202423       0.04048144       0.25742747 </v>
   <v>       0.68751600       0.95544773       0.34592194 </v>
   <v>       0.93617293       0.12004506       0.16857524 </v>
   <v>       0.06286873       0.87107585       0.52114291 </v>
   <v>       0.56246635       0.54132104       0.25717063 </v>
   <v>       0.68624730       0.79083629       0.87450034 </v>
   <v>       0.56382349       0.36967226       0.16791364 </v>
   <v>       0.43745085       0.78724340       0.74286876 </v>
   <v>       0.81245013       0.70691862       0.56496968 </v>
   <v>       0.56224902       0.86721060       0.78712493 </v>
   <v>       0.68665841       0.12091200       0.52119656 </v>
   <v>       0.81368737       0.37117101       0.65401367 </v>
   <v>       0.93810508       0.45855328       0.83245797 </v>
   <v>       0.06215114       0.20596922       0.69856977 </v>
   <v>       0.43688137       0.95590061       0.69838651 </v>
   <v>       0.31294085       0.20708572       0.83226654 </v>
   <v>       0.43792258       0.62175089       0.65393307 </v>
   <v>       0.31180735       0.53649307       0.61015026 </v>
   <v>       0.93726814       0.45732532       0.56506935 </v>
   <v>       0.68767970       0.78765855       0.74287233 </v>
   <v>       0.93700968       0.79191729       0.12550370 </v>
   <v>       0.68752264       0.78949593       0.38966167 </v>
   <v>       0.93772170       0.78660239       0.74309925 </v>
   <v>       0.06316152       0.20597371       0.34591267 </v>
   <v>       0.81177598       0.04080827       0.39004191 </v>
   <v>       0.43764631       0.11703179       0.78729304 </v>
   <v>       0.06233218       0.20757234       0.21277396 </v>
   <v>       0.06139035       0.37012986       0.16802901 </v>
   <v>       0.93585023       0.79124987       0.25722260 </v>
   <v>       0.56262389       0.20567808       0.69858880 </v>
   <v>       0.68708784       0.95606708       0.69854706 </v>
   <v>       0.81193852       0.86751895       0.78709646 </v>
   <v>       0.43763631       0.95662497       0.56480390 </v>
   <v>       0.81266338       0.36825286       0.78715677 </v>
   <v>       0.68530633       0.29164709       0.25742247 </v>
   <v>       0.18784065       0.45728819       0.56495760 </v>
   <v>       0.06189405       0.87045532       0.16804013 </v>
   <v>       0.18686917       0.28679661       0.61024241 </v>
   <v>       0.56383298       0.70651488       0.34630383 </v>
   <v>       0.31235642       0.20602419       0.69860660 </v>
   <v>       0.56179587       0.53467938       0.87451338 </v>
   <v>       0.06290634       0.70682909       0.56488949 </v>
   <v>       0.68805978       0.61727347       0.78726034 </v>
   <v>       0.31178701       0.54050859       0.38969388 </v>
   <v>       0.18769879       0.62076881       0.52111584 </v>
   <v>       0.56329766       0.87409988       0.43500170 </v>
   <v>       0.43711008       0.45707962       0.56487433 </v>
   <v>       0.43739243       0.28745532       0.74282130 </v>
   <v>       0.81234111       0.87728842       0.30152642 </v>
   <v>       0.81183747       0.70653982       0.34638673 </v>
   <v>       0.43825975       0.45672754       0.83164574 </v>
   <v>       0.68753874       0.95603493       0.47876848 </v>
   <v>       0.68710247       0.45630636       0.69858524 </v>
   <v>       0.56293352       0.87114325       0.52115480 </v>
   <v>       0.56349826       0.37134677       0.65380478 </v>
   <v>       0.81319151       0.87196651       0.65392626 </v>
   <v>       0.81266591       0.37366391       0.43465565 </v>
   <v>       0.81261854       0.54072038       0.25737344 </v>
   <v>       0.68925490       0.45558243       0.83188091 </v>
   <v>       0.18812656       0.78976546       0.12538673 </v>
   <v>       0.68790926       0.29088269       0.38958745 </v>
   <v>       0.31312172       0.37153846       0.65384481 </v>
   <v>       0.31282286       0.20558055       0.34603037 </v>
   <v>       0.81285316       0.53626659       0.74281559 </v>
   <v>       0.68772928       0.95734294       0.83203245 </v>
   <v>       0.56259585       0.87188610       0.65394436 </v>
   <v>       0.31258967       0.70736253       0.56509309 </v>
   <v>       0.31126797       0.53511196       0.12534610 </v>
   <v>       0.68762699       0.95796246       0.21298539 </v>
   <v>       0.31249115       0.20751436       0.56519241 </v>
   <v>       0.18695498       0.95657880       0.47871973 </v>
   <v>       0.68776194       0.95727826       0.56507284 </v>
   <v>       0.43676499       0.78640785       0.61004896 </v>
   <v>       0.68657439       0.61799452       0.16769671 </v>
   <v>       0.31269126       0.87527534       0.30142409 </v>
   <v>       0.31274163       0.70571311       0.47871703 </v>
   <v>       0.93611130       0.28718964       0.61015146 </v>
   <v>       0.43767791       0.62644485       0.30169361 </v>
   <v>       0.81287620       0.86927216       0.16838860 </v>
   <v>       0.56318457       0.20726240       0.21288928 </v>
   <v>       0.93693791       0.61780115       0.16813628 </v>
   <v>       0.93965288       0.78894577       0.87466031 </v>
   <v>       0.56238742       0.36703876       0.78712616 </v>
   <v>       0.06202647       0.37138025       0.52118763 </v>
   <v>       0.31225528       0.36854656       0.16831565 </v>
   <v>       0.68809926       0.12525595       0.30135920 </v>
   <v>       0.43984377       0.95753826       0.83180674 </v>
   <v>       0.18683425       0.29146200       0.12546372 </v>
   <v>       0.18613056       0.29218619       0.25744135 </v>
   <v>       0.31232424       0.37336762       0.43477957 </v>
   <v>       0.56234785       0.03513979       0.12543448 </v>
   <v>       0.43623228       0.28680981       0.61003278 </v>
   <v>       0.18678193       0.45807277       0.34659275 </v>
   <v>       0.43742546       0.29126965       0.12551341 </v>
   <v>       0.68654680       0.79129350       0.25732378 </v>
   <v>       0.43700345       0.12146356       0.52114568 </v>
   <v>       0.18885112       0.29072498       0.87457327 </v>
   <v>       0.18788043       0.12169208       0.65391484 </v>
   <v>       0.93797229       0.12185176       0.65390810 </v>
   <v>       0.31257731       0.20806458       0.21293527 </v>
   <v>       0.06276661       0.03963560       0.38971344 </v>
   <v>       0.18704991       0.11734685       0.16761623 </v>
   <v>       0.06220331       0.53552284       0.61022302 </v>
   <v>       0.93706039       0.29140169       0.25739500 </v>
   <v>       0.56211240       0.53625012       0.61016231 </v>
   <v>       0.93745188       0.95760213       0.56504864 </v>
   <v>       0.68730417       0.62507746       0.30147480 </v>
   <v>       0.93661128       0.62379414       0.43497619 </v>
   <v>       0.93704599       0.61785846       0.78702874 </v>
   <v>       0.56201989       0.70513808       0.69845052 </v>
   <v>       0.06272873       0.71045531       0.83245186 </v>
   <v>       0.93808621       0.12515074       0.30141240 </v>
   <v>       0.93724488       0.78556178       0.61024613 </v>
   <v>       0.43568571       0.79213302       0.25729353 </v>
   <v>       0.31227188       0.36760684       0.78704305 </v>
   <v>       0.43708949       0.45717332       0.21290886 </v>
   <v>       0.18796715       0.12072545       0.52117567 </v>
   <v>       0.81216484       0.70590733       0.69848429 </v>
   <v>       0.06140637       0.03616613       0.61005145 </v>
   <v>       0.56242252       0.20696084       0.83167638 </v>
   <v>       0.31145145       0.87104739       0.52109980 </v>
   <v>       0.68822758       0.29117352       0.12541702 </v>
   <v>       0.18714595       0.95815718       0.21305940 </v>
   <v>       0.68578879       0.28728373       0.61013197 </v>
   <v>       0.31136999       0.03646175       0.61033164 </v>
   <v>       0.93789549       0.11723816       0.78724214 </v>
   <v>       0.43778289       0.79136897       0.87447920 </v>
   <v>       0.81289955       0.03746544       0.74274484 </v>
   <v>       0.93691120       0.45666464       0.69854096 </v>
   <v>       0.18778333       0.62174977       0.65389863 </v>
   <v>       0.31231830       0.70599532       0.69855280 </v>
   <v>       0.93683859       0.29091108       0.12546457 </v>
   <v>       0.43734066       0.45574061       0.47874885 </v>
   <v>       0.06239872       0.70606002       0.47866498 </v>
   <v>       0.93651946       0.12417709       0.43529827 </v>
   <v>       0.43752609       0.12573909       0.30163940 </v>
   <v>       0.18767550       0.12364234       0.43470501 </v>
   <v>       0.56272637       0.03355318       0.87459058 </v>
   <v>       0.18743087       0.95760232       0.56510827 </v>
   <v>       0.68856871       0.79049392       0.12575018 </v>
   <v>       0.56385520       0.53433948       0.12541733 </v>
   <v>       0.31262038       0.04016837       0.38987392 </v>
   <v>       0.68876675       0.12030343       0.16871154 </v>
   <v>       0.81243871       0.20833410       0.21257032 </v>
   <v>       0.06429521       0.54167595       0.25731306 </v>
   <v>       0.56215138       0.70592085       0.47867872 </v>
   <v>       0.06293370       0.20693084       0.56489723 </v>
   <v>       0.56218488       0.37677298       0.30151414 </v>
   <v>       0.43687360       0.95661068       0.34628573 </v>
   <v>       0.18752770       0.95593258       0.69857326 </v>
   <v>       0.43648021       0.61825621       0.16742127 </v>
   <v>       0.93751870       0.45800369       0.21306576 </v>
   <v>       0.06216225       0.53329968       0.12536539 </v>
   <v>       0.81328531       0.37159698       0.52122194 </v>
   <v>       0.93746226       0.62516319       0.30126721 </v>
   <v>       0.31331750       0.04115120       0.25702415 </v>
   <v>       0.68716489       0.78587118       0.61023179 </v>
   <v>       0.18838278       0.45854289       0.83220542 </v>
   <v>       0.43700854       0.11605390       0.16746462 </v>
   <v>       0.31191299       0.37098000       0.52111613 </v>
   <v>       0.43749459       0.61722208       0.78733722 </v>
   <v>       0.06171675       0.04102615       0.25720887 </v>
   <v>       0.56255510       0.70745235       0.56522353 </v>
   <v>       0.93791734       0.28577666       0.74260968 </v>
   <v>       0.68690136       0.11751444       0.78702067 </v>
   <v>       0.18799502       0.45734099       0.21283781 </v>
   <v>       0.93741655       0.79066126       0.38978755 </v>
   <v>       0.68647558       0.29265029       0.87460806 </v>
   <v>       0.56194207       0.86868911       0.16758637 </v>
   <v>       0.43742330       0.45605990       0.69863867 </v>
   <v>       0.93867571       0.95623129       0.34614460 </v>
   <v>       0.68661874       0.62163863       0.52115151 </v>
   <v>       0.06287178       0.87180416       0.65391198 </v>
   <v>       0.06215298       0.86809084       0.78707043 </v>
   <v>       0.06268433       0.37095767       0.65391189 </v>
   <v>       0.68789817       0.45568395       0.47885135 </v>
   <v>       0.18732913       0.79176390       0.25725501 </v>
   <v>       0.43741586       0.12302312       0.43465438 </v>
   <v>       0.81348624       0.03389368       0.12546518 </v>
   <v>       0.93709117       0.62121402       0.52122511 </v>
   <v>       0.06287550       0.87298710       0.43464522 </v>
   <v>       0.81286859       0.53282100       0.12508422 </v>
   <v>       0.43714566       0.45686511       0.34640516 </v>
   <v>       0.81285571       0.20739602       0.34635242 </v>
   <v>       0.31288611       0.70542129       0.34598324 </v>
   <v>       0.68768857       0.12207258       0.65397382 </v>
   <v>       0.56318704       0.87587540       0.30177585 </v>
   <v>       0.06344928       0.53561929       0.74280977 </v>
   <v>       0.93820986       0.95780788       0.21281834 </v>
   <v>       0.81285447       0.70807066       0.21283769 </v>
   <v>       0.06202655       0.87556358       0.30177383 </v>
   <v>       0.18773561       0.12655298       0.30170617 </v>
   <v>       0.06189705       0.70624485       0.34628458 </v>
   <v>       0.81168710       0.03616967       0.60996024 </v>
   <v>       0.06260166       0.37275461       0.43460999 </v>
   <v>       0.56252319       0.20714656       0.34632032 </v>
   <v>       0.81295825       0.37630645       0.30156059 </v>
   <v>       0.56303191       0.04214782       0.25721799 </v>
   <v>       0.56273187       0.54063479       0.38984464 </v>
   <v>       0.06272020       0.20575738       0.47869262 </v>
   <v>       0.31297814       0.86714097       0.78695976 </v>
   <v>       0.93741649       0.95611705       0.69855843 </v>
   <v>       0.06285619       0.37595879       0.30136024 </v>
   <v>       0.68788165       0.62239922       0.65403139 </v>
   <v>       0.68741797       0.45690362       0.56493665 </v>
   <v>       0.43770276       0.95795693       0.21306239 </v>
   <v>       0.31239536       0.20567855       0.47871034 </v>
   <v>       0.43837950       0.12135725       0.65376719 </v>
   <v>       0.68740815       0.62301080       0.43462091 </v>
   <v>       0.81253369       0.20575922       0.69860100 </v>
   <v>       0.81231286       0.70578597       0.47871112 </v>
   <v>       0.81173092       0.87385484       0.43485634 </v>
   <v>       0.93748683       0.95548729       0.47887148 </v>
   <v>       0.56251728       0.20592707       0.47878022 </v>
   <v>       0.18752658       0.62397279       0.43485190 </v>
   <v>       0.31273888       0.03764219       0.74280186 </v>
   <v>       0.93770084       0.62198975       0.65383495 </v>
   <v>       0.56368108       0.70806901       0.83188807 </v>
   <v>       0.31273700       0.37392598       0.30141422 </v>
   <v>       0.56212384       0.70789817       0.21275929 </v>
   <v>       0.18724291       0.45591212       0.47870564 </v>
   <v>       0.31366076       0.03525516       0.87434589 </v>
   <v>       0.18663224       0.45650304       0.69849941 </v>
   <v>       0.81105248       0.53430623       0.87464801 </v>
   <v>       0.18760451       0.29071907       0.38986128 </v>
   <v>       0.43672794       0.62388647       0.43477877 </v>
   <v>       0.06253478       0.70802448       0.21282611 </v>
   <v>       0.56226795       0.37437986       0.43536722 </v>
   <v>       0.43789272       0.62209734       0.52122173 </v>
   <v>       0.81329644       0.70970459       0.83169964 </v>
   <v>       0.06221270       0.36796255       0.78708848 </v>
   <v>       0.43749248       0.29214493       0.87478397 </v>
   <v>       0.31433124       0.03557798       0.12535761 </v>
   <v>       0.68755384       0.12131462       0.43455991 </v>
   <v>       0.18671957       0.95733981       0.34627873 </v>
   <v>       0.06330680       0.20940646       0.83277072 </v>
   <v>       0.56200442       0.03567868       0.61029353 </v>
   <v>       0.68722418       0.45776884       0.21312034 </v>
   <v>       0.18760942       0.78650763       0.74281050 </v>
   <v>       0.18733358       0.62701377       0.30179665 </v>
   <v>       0.43652935       0.79151528       0.39007977 </v>
   <v>       0.43502246       0.29255593       0.25729796 </v>
   <v>       0.06351215       0.53580368       0.87452235 </v>
   <v>       0.56357247       0.03623246       0.74280603 </v>
   <v>       0.18794694       0.79104232       0.87451823 </v>
   <v>       0.93739844       0.45562616       0.47874501 </v>
   <v>       0.56348383       0.53703018       0.74236849 </v>
   <v>       0.81203389       0.20716551       0.56486652 </v>
   <v>       0.18758547       0.61695848       0.78713534 </v>
   <v>       0.06306574       0.54029529       0.38974134 </v>
   <v>       0.06253823       0.70596854       0.69861248 </v>
   <v>       0.31239356       0.54244532       0.25688776 </v>
   <v>       0.31323196       0.70592414       0.21340758 </v>
   <v>       0.31282372       0.86925727       0.16692203 </v>
   <v>       0.81307986       0.53949618       0.39014614 </v>
   <v>       0.68605280       0.45481388       0.34598195 </v>
   <v>       0.93485128       0.29219284       0.87412436 </v>
   <v>       0.43732042       0.95661753       0.47885360 </v>
   <v>       0.06363607       0.03148862       0.87432680 </v>
   <v>       0.18670986       0.79287300       0.39015812 </v>
   <v>       0.81247876       0.37027673       0.16748438 </v>
   <v>       0.56243533       0.37091469       0.52125669 </v>
   <v>       0.93713769       0.12099678       0.52120941 </v>
   <v>       0.43687546       0.79184235       0.12534982 </v>
   <v>       0.31297432       0.53503728       0.74287097 </v>
  </varray>
 </structure>
 <calculation>
  <scstep>
   <time name="dav">   54.49   54.50</time>
   <time name="total">   54.64   54.69</time>
   <energy>
    <i name="alphaZ">  16293.21160653 </i>
    <i name="ewald"> 759071.76718059 </i>
    <i name="hartreedc">-949526.85318495 </i>
    <i name="XCdc">  -6509.68083092 </i>
    <i name="pawpsdc"> 162273.92519768 </i>
    <i name="pawaedc">-159623.75899949 </i>
    <i name="eentropy">     -1.05559720 </i>
    <i name="bandstr">  38471.35557109 </i>
    <i name="atom"> 168671.76673737 </i>
    <i name="e_fr_energy">  29120.67768070 </i>
    <i name="e_wo_entrp">  29121.73327789 </i>
    <i name="e_0_energy">  29121.20547930 </i>
   </energy>
  </scstep>
  <scstep>
   <time name="dav">   53.89   53.91</time>
   <time name="total">   53.89   53.92</time>
   <energy>
    <i name="e_fr_energy">   1197.24432114 </i>
    <i name="e_wo_entrp">   1198.74399847 </i>
    <i name="e_0_energy">   1197.99415981 </i>
   </energy>
  </scstep>
  <scstep>
   <time name="dav">   70.85   70.88</time>
   <time name="total">   70.85   70.89</time>
   <energy>
    <i name="e_fr_energy">  -1950.31428752 </i>
    <i name="e_wo_entrp">  -1946.74564242 </i>
    <i name="e_0_energy">  -1948.52996497 </i>
   </energy>
  </scstep>
  <scstep>
   <time name="dav">   88.85   88.89</time>
   <time name="total">   88.86   88.90</time>
   <energy>
    <i name="e_fr_energy">  -2620.93799864 </i>
    <i name="e_wo_entrp">  -2617.46408363 </i>
    <i name="e_0_energy">  -2619.20104113 </i>
   </energy>
  </scstep>
  <scstep>
   <time name="dav">   84.91   84.95</time>
   <time name="total">   86.94   86.99</time>
   <energy>
    <i name="e_fr_energy">  -2740.28868187 </i>
    <i name="e_wo_entrp">  -2736.72379878 </i>
    <i name="e_0_energy">  -2738.50624033 </i>
   </energy>
  </scstep>
  <scstep>
   <time name="diag">    8.25    8.26</time>
   <time name="diis">   37.91   37.92</time>
   <time name="orth">    2.28    2.28</time>
   <time name="total">   50.62   50.65</time>
   <energy>
    <i name="e_fr_energy">  -6766.91835487 </i>
    <i name="e_wo_entrp">  -6763.93677415 </i>
    <i name="e_0_energy">  -6765.42756451 </i>
   </energy>
  </scstep>
  <scstep>
   <time name="diag">    8.28    8.28</time>
   <time name="diis">   38.95   38.95</time>
   <time name="orth">    2.34    2.34</time>
   <time name="total">   51.76   51.80</time>
[...]
       <r>     5.8550     0.0000  2772.0000 </r>
       <r>     5.8978     0.0000  2772.0000 </r>
       <r>     5.9407     0.0000  2772.0000 </r>
       <r>     5.9835     0.0000  2772.0000 </r>
       <r>     6.0264     0.0000  2772.0000 </r>
       <r>     6.0692     0.0000  2772.0000 </r>
       <r>     6.1121     0.0000  2772.0000 </r>
       <r>     6.1549     0.0000  2772.0000 </r>
       <r>     6.1978     0.0000  2772.0000 </r>
       <r>     6.2406     0.0000  2772.0000 </r>
       <r>     6.2835     0.0000  2772.0000 </r>
       <r>     6.3263     0.0000  2772.0000 </r>
       <r>     6.3692     0.0000  2772.0000 </r>
       <r>     6.4120     0.0000  2772.0000 </r>
       <r>     6.4549     0.0000  2772.0000 </r>
       <r>     6.4977     0.0000  2772.0000 </r>
       <r>     6.5406     0.0000  2772.0000 </r>
       <r>     6.5834     0.0000  2772.0000 </r>
       <r>     6.6263     0.0000  2772.0000 </r>
       <r>     6.6691     0.0000  2772.0000 </r>
       <r>     6.7120     0.0000  2772.0000 </r>
       <r>     6.7548     0.0000  2772.0000 </r>
       <r>     6.7977     0.0000  2772.0000 </r>
      </set>
     </set>
    </array>
   </total>
  </dos>
 </calculation>
 <structure name="finalpos" >
  <crystal>
   <varray name="basis" >
    <v>       9.72667804       0.00000000       0.00000000 </v>
    <v>       0.00000000       8.42355028       0.00000000 </v>
    <v>       0.00000000       0.00000000      45.00000000 </v>
   </varray>
   <i name="volume">   3686.99226691 </i>
   <varray name="rec_basis" >
    <v>       0.10281002       0.00000000       0.00000000 </v>
    <v>       0.00000000       0.11871479       0.00000000 </v>
    <v>       0.00000000       0.00000000       0.02222222 </v>
   </varray>
  </crystal>
  <varray name="positions" >
   <v>       0.06266756       0.03661195       0.12579945 </v>
   <v>       0.31265360       0.87160299       0.65398462 </v>
   <v>       0.18783138       0.11881413       0.78707674 </v>
   <v>       0.43805485       0.29099164       0.39000120 </v>
   <v>       0.31348644       0.70635232       0.83180925 </v>
   <v>       0.81405186       0.20721207       0.83234114 </v>
   <v>       0.18750163       0.95715342       0.83219182 </v>
   <v>       0.56259321       0.20591511       0.56533872 </v>
   <v>       0.06238268       0.03658149       0.74287812 </v>
   <v>       0.81213633       0.87196737       0.52145261 </v>
   <v>       0.18781734       0.28695585       0.74280694 </v>
   <v>       0.93738122       0.45684481       0.34601191 </v>
   <v>       0.93684440       0.29032374       0.39007652 </v>
   <v>       0.81199618       0.03806503       0.87420697 </v>
   <v>       0.18703203       0.78754214       0.60989311 </v>
   <v>       0.56199191       0.04064593       0.39012648 </v>
   <v>       0.93902293       0.95766650       0.83235795 </v>
   <v>       0.31316748       0.53783574       0.87425369 </v>
   <v>       0.68808193       0.28705702       0.74278912 </v>
   <v>       0.18843827       0.62061099       0.16772780 </v>
   <v>       0.81174040       0.20620068       0.47865814 </v>
   <v>       0.81226921       0.53724504       0.61002286 </v>
   <v>       0.31229666       0.87317094       0.43480713 </v>
   <v>       0.81227602       0.04087959       0.25725627 </v>
   <v>       0.68739548       0.95711515       0.34594479 </v>
   <v>       0.93676387       0.12055642       0.16809028 </v>
   <v>       0.06290467       0.87214919       0.52143726 </v>
   <v>       0.56251354       0.54138206       0.25717660 </v>
   <v>       0.68715090       0.78840256       0.87422489 </v>
   <v>       0.56300357       0.37017626       0.16774568 </v>
   <v>       0.43761405       0.78721685       0.74286654 </v>
   <v>       0.81252325       0.70588651       0.56520571 </v>
   <v>       0.56261234       0.86872105       0.78702082 </v>
   <v>       0.68715847       0.12170291       0.52145813 </v>
   <v>       0.81277341       0.37151712       0.65404300 </v>
   <v>       0.93821176       0.45677061       0.83229911 </v>
   <v>       0.06229970       0.20497838       0.69852089 </v>
   <v>       0.43735209       0.95508544       0.69851436 </v>
   <v>       0.31280495       0.20590299       0.83232596 </v>
   <v>       0.43754883       0.62156797       0.65399223 </v>
   <v>       0.31194142       0.53769501       0.60995500 </v>
   <v>       0.93745900       0.45595232       0.56524904 </v>
   <v>       0.68780988       0.78748530       0.74290754 </v>
   <v>       0.93701617       0.78856292       0.12595284 </v>
   <v>       0.68741354       0.78987931       0.38996083 </v>
   <v>       0.93794186       0.78676443       0.74293717 </v>
   <v>       0.06258165       0.20701397       0.34592515 </v>
   <v>       0.81239902       0.04053796       0.39016038 </v>
   <v>       0.43763250       0.11888187       0.78712448 </v>
   <v>       0.06206122       0.20691882       0.21294498 </v>
   <v>       0.06196485       0.37086439       0.16779206 </v>
   <v>       0.93676672       0.79103942       0.25717043 </v>
   <v>       0.56241934       0.20488648       0.69852134 </v>
   <v>       0.68742096       0.95493850       0.69857882 </v>
   <v>       0.81198885       0.86892100       0.78698551 </v>
   <v>       0.43737606       0.95600156       0.56499277 </v>
   <v>       0.81271368       0.36900858       0.78700360 </v>
   <v>       0.68667192       0.29135465       0.25721079 </v>
   <v>       0.18744754       0.45607677       0.56518762 </v>
   <v>       0.06251986       0.87104595       0.16782792 </v>
   <v>       0.18713598       0.28739724       0.60999250 </v>
   <v>       0.56284527       0.70698310       0.34610116 </v>
   <v>       0.31259353       0.20502967       0.69854179 </v>
   <v>       0.56263472       0.53837051       0.87412540 </v>
   <v>       0.06249096       0.70583114       0.56517747 </v>
   <v>       0.68786595       0.61909425       0.78712690 </v>
   <v>       0.31228501       0.54077965       0.39008988 </v>
   <v>       0.18776657       0.62234637       0.52139498 </v>
   <v>       0.56233402       0.87316373       0.43482868 </v>
   <v>       0.43721280       0.45630390       0.56520721 </v>
   <v>       0.43787047       0.28751743       0.74285408 </v>
   <v>       0.81254690       0.87584259       0.30142838 </v>
   <v>       0.81224917       0.70669311       0.34606969 </v>
   <v>       0.43815293       0.45600711       0.83206336 </v>
   <v>       0.68790526       0.95619514       0.47851085 </v>
   <v>       0.68735815       0.45494469       0.69853680 </v>
   <v>       0.56260289       0.87192499       0.52135327 </v>
   <v>       0.56292725       0.37132530       0.65391239 </v>
   <v>       0.81280559       0.87155887       0.65401017 </v>
   <v>       0.81258656       0.37326447       0.43465434 </v>
   <v>       0.81237152       0.54079951       0.25725772 </v>
   <v>       0.68872999       0.45599157       0.83216791 </v>
   <v>       0.18731141       0.78717004       0.12553851 </v>
   <v>       0.68746303       0.29050994       0.39001710 </v>
   <v>       0.31261661       0.37154280       0.65396266 </v>
   <v>       0.31262115       0.20677304       0.34593143 </v>
   <v>       0.81296264       0.53662125       0.74286712 </v>
   <v>       0.68783369       0.95651385       0.83210098 </v>
   <v>       0.56267422       0.87168828       0.65397169 </v>
   <v>       0.31246969       0.70585894       0.56530823 </v>
   <v>       0.31145418       0.53763774       0.12560333 </v>
   <v>       0.68745058       0.95761130       0.21313463 </v>
   <v>       0.31245780       0.20637498       0.56533375 </v>
   <v>       0.18687279       0.95623524       0.47848240 </v>
   <v>       0.68798057       0.95618156       0.56531654 </v>
   <v>       0.43702116       0.78740121       0.60991173 </v>
   <v>       0.68666165       0.61927308       0.16771822 </v>
   <v>       0.31247542       0.87516378       0.30141660 </v>
   <v>       0.31246592       0.70539889       0.47849286 </v>
   <v>       0.93694196       0.28722945       0.60991406 </v>
   <v>       0.43779663       0.62525424       0.30148486 </v>
   <v>       0.81275574       0.87022445       0.16799336 </v>
   <v>       0.56313943       0.20683845       0.21293023 </v>
   <v>       0.93748070       0.61933287       0.16798501 </v>
   <v>       0.93821094       0.78721373       0.87440119 </v>
   <v>       0.56248911       0.36872371       0.78701299 </v>
   <v>       0.06231264       0.37254485       0.52139637 </v>
   <v>       0.31234520       0.36935849       0.16790054 </v>
   <v>       0.68762267       0.12547274       0.30149503 </v>
   <v>       0.43878781       0.95589932       0.83206033 </v>
   <v>       0.18753362       0.28859798       0.12587293 </v>
   <v>       0.18673859       0.29103874       0.25725141 </v>
   <v>       0.31230883       0.37319044       0.43465174 </v>
   <v>       0.56278707       0.03758949       0.12576519 </v>
   <v>       0.43703882       0.28739174       0.60985901 </v>
   <v>       0.18712383       0.45730859       0.34608182 </v>
   <v>       0.43717203       0.28849978       0.12589962 </v>
   <v>       0.68703662       0.79138699       0.25720687 </v>
   <v>       0.43692289       0.12256556       0.52140403 </v>
   <v>       0.18907300       0.28877910       0.87447329 </v>
   <v>       0.18768263       0.12163679       0.65402909 </v>
   <v>       0.93772799       0.12141808       0.65398413 </v>
   <v>       0.31239166       0.20720661       0.21287890 </v>
   <v>       0.06236379       0.04041816       0.39004542 </v>
   <v>       0.18693912       0.11937208       0.16784415 </v>
   <v>       0.06219024       0.53715833       0.60993395 </v>
   <v>       0.93718847       0.29067747       0.25722292 </v>
   <v>       0.56213281       0.53740628       0.60986865 </v>
   <v>       0.93750246       0.95582211       0.56523908 </v>
   <v>       0.68737910       0.62546654       0.30145988 </v>
   <v>       0.93729829       0.62337339       0.43478716 </v>
   <v>       0.93741605       0.61996366       0.78697547 </v>
   <v>       0.56218880       0.70468354       0.69853977 </v>
   <v>       0.06314660       0.70808304       0.83231412 </v>
   <v>       0.93775895       0.12549781       0.30148552 </v>
   <v>       0.93709184       0.78711218       0.60997343 </v>
   <v>       0.43709839       0.79161274       0.25726246 </v>
   <v>       0.31246795       0.36864026       0.78697966 </v>
   <v>       0.43784737       0.45656461       0.21297117 </v>
   <v>       0.18785069       0.12174557       0.52141186 </v>
   <v>       0.81239883       0.70513725       0.69857130 </v>
   <v>       0.06186532       0.03745678       0.60985646 </v>
   <v>       0.56271354       0.20614373       0.83190570 </v>
   <v>       0.31177370       0.87195931       0.52136429 </v>
   <v>       0.68786539       0.28807222       0.12566857 </v>
   <v>       0.18713188       0.95793551       0.21308855 </v>
   <v>       0.68665859       0.28753462       0.60997302 </v>
   <v>       0.31215651       0.03718318       0.60999309 </v>
   <v>       0.93764139       0.11929858       0.78724218 </v>
   <v>       0.43801679       0.78843450       0.87419102 </v>
   <v>       0.81301309       0.03711470       0.74279733 </v>
   <v>       0.93738491       0.45501227       0.69860116 </v>
   <v>       0.18780090       0.62148942       0.65396160 </v>
   <v>       0.31236327       0.70495954       0.69853149 </v>
   <v>       0.93722132       0.28769681       0.12577219 </v>
   <v>       0.43700814       0.45604855       0.47856495 </v>
   <v>       0.06251011       0.70553416       0.47856906 </v>
   <v>       0.93712223       0.12297821       0.43502539 </v>
   <v>       0.43765410       0.12489626       0.30151386 </v>
   <v>       0.18765094       0.12313027       0.43461246 </v>
   <v>       0.56308637       0.03734847       0.87423960 </v>
   <v>       0.18701352       0.95649783       0.56535708 </v>
   <v>       0.68895554       0.78751113       0.12594788 </v>
   <v>       0.56404918       0.53645982       0.12561290 </v>
   <v>       0.31264237       0.04047248       0.39009152 </v>
   <v>       0.68808699       0.12045930       0.16820781 </v>
   <v>       0.81243275       0.20712230       0.21290493 </v>
   <v>       0.06247209       0.54121215       0.25719533 </v>
   <v>       0.56230039       0.70521577       0.47855835 </v>
   <v>       0.06270336       0.20617919       0.56520104 </v>
   <v>       0.56204166       0.37532016       0.30142565 </v>
   <v>       0.43708337       0.95678426       0.34601503 </v>
   <v>       0.18743390       0.95516219       0.69861012 </v>
   <v>       0.43681880       0.62096456       0.16761245 </v>
   <v>       0.93779805       0.45744943       0.21305765 </v>
   <v>       0.06209724       0.53600912       0.12571263 </v>
   <v>       0.81275759       0.37243507       0.52146013 </v>
   <v>       0.93738608       0.62518064       0.30137427 </v>
   <v>       0.31250583       0.04069032       0.25716023 </v>
   <v>       0.68709457       0.78725273       0.60995801 </v>
   <v>       0.18786265       0.45687215       0.83229940 </v>
   <v>       0.43768440       0.11866099       0.16772690 </v>
   <v>       0.31195333       0.37190811       0.52140095 </v>
   <v>       0.43771830       0.61874209       0.78710655 </v>
   <v>       0.06202294       0.04084106       0.25716876 </v>
   <v>       0.56242210       0.70565351       0.56538577 </v>
   <v>       0.93792816       0.28674116       0.74282798 </v>
   <v>       0.68706888       0.11888118       0.78693087 </v>
   <v>       0.18711394       0.45708668       0.21294025 </v>
   <v>       0.93715698       0.79072696       0.39009303 </v>
   <v>       0.68677997       0.28936121       0.87436401 </v>
   <v>       0.56113768       0.87020474       0.16769219 </v>
   <v>       0.43746426       0.45503538       0.69859543 </v>
   <v>       0.93778258       0.95704087       0.34598061 </v>
   <v>       0.68716033       0.62265295       0.52143007 </v>
   <v>       0.06264862       0.87143573       0.65405188 </v>
   <v>       0.06261848       0.86909256       0.78708027 </v>
   <v>       0.06258992       0.37129001       0.65399071 </v>
   <v>       0.68782426       0.45584852       0.47858938 </v>
   <v>       0.18708695       0.79157174       0.25727424 </v>
   <v>       0.43744348       0.12358052       0.43462003 </v>
   <v>       0.81297565       0.03739119       0.12596388 </v>
   <v>       0.93731694       0.62229391       0.52139609 </v>
   <v>       0.06256459       0.87306980       0.43468016 </v>
   <v>       0.81248038       0.53620804       0.12540881 </v>
   <v>       0.43680436       0.45683031       0.34605285 </v>
   <v>       0.81280173       0.20711638       0.34607919 </v>
   <v>       0.31250231       0.70732182       0.34600749 </v>
   <v>       0.68764521       0.12153371       0.65400694 </v>
   <v>       0.56267511       0.87540241       0.30160601 </v>
   <v>       0.06274119       0.53654435       0.74285429 </v>
   <v>       0.93811560       0.95744390       0.21299443 </v>
   <v>       0.81257449       0.70666399       0.21295604 </v>
   <v>       0.06207085       0.87512204       0.30156816 </v>
   <v>       0.18766059       0.12526322       0.30143492 </v>
   <v>       0.06217384       0.70719296       0.34613000 </v>
   <v>       0.81208344       0.03732816       0.60986434 </v>
   <v>       0.06237503       0.37321859       0.43461178 </v>
   <v>       0.56210921       0.20684863       0.34598369 </v>
   <v>       0.81261838       0.37520400       0.30144877 </v>
   <v>       0.56256658       0.04136204       0.25724690 </v>
   <v>       0.56227417       0.54030121       0.39010029 </v>
   <v>       0.06273057       0.20599653       0.47857069 </v>
   <v>       0.31290613       0.86831157       0.78689155 </v>
   <v>       0.93733084       0.95505994       0.69854150 </v>
   <v>       0.06263104       0.37541471       0.30139976 </v>
   <v>       0.68771374       0.62166072       0.65405142 </v>
   <v>       0.68758107       0.45608384       0.56522203 </v>
   <v>       0.43793304       0.95765617       0.21302657 </v>
   <v>       0.31207205       0.20589078       0.47845557 </v>
   <v>       0.43781357       0.12167773       0.65395802 </v>
   <v>       0.68725067       0.62343961       0.43468726 </v>
   <v>       0.81254902       0.20477932       0.69853964 </v>
   <v>       0.81212375       0.70564571       0.47853404 </v>
   <v>       0.81240561       0.87309197       0.43471755 </v>
   <v>       0.93741233       0.95522107       0.47863888 </v>
   <v>       0.56279204       0.20542917       0.47852516 </v>
   <v>       0.18719681       0.62341799       0.43477928 </v>
   <v>       0.31259516       0.03724190       0.74281936 </v>
   <v>       0.93760043       0.62165920       0.65394289 </v>
   <v>       0.56345887       0.70642087       0.83209976 </v>
   <v>       0.31251310       0.37488428       0.30152957 </v>
   <v>       0.56230299       0.70707792       0.21281398 </v>
   <v>       0.18715115       0.45559795       0.47848108 </v>
   <v>       0.31398034       0.03900420       0.87412230 </v>
   <v>       0.18720738       0.45517427       0.69850544 </v>
   <v>       0.81172493       0.53773213       0.87432416 </v>
   <v>       0.18737473       0.29035543       0.39005247 </v>
   <v>       0.43713300       0.62387667       0.43470556 </v>
   <v>       0.06244307       0.70709369       0.21291871 </v>
   <v>       0.56245556       0.37344431       0.43503067 </v>
   <v>       0.43728803       0.62286342       0.52138038 </v>
   <v>       0.81319690       0.70692656       0.83187668 </v>
   <v>       0.06269513       0.36947026       0.78705522 </v>
   <v>       0.43726979       0.28915527       0.87436320 </v>
   <v>       0.31319593       0.03793711       0.12537619 </v>
   <v>       0.68708171       0.12247215       0.43457938 </v>
   <v>       0.18720826       0.95704926       0.34600530 </v>
   <v>       0.06274491       0.20692626       0.83233567 </v>
   <v>       0.56201124       0.03699298       0.60999933 </v>
   <v>       0.68723015       0.45719965       0.21308617 </v>
   <v>       0.18761206       0.78673433       0.74285867 </v>
   <v>       0.18742897       0.62534610       0.30161028 </v>
   <v>       0.43746342       0.79090121       0.39018790 </v>
   <v>       0.43664975       0.29133974       0.25713232 </v>
   <v>       0.06389168       0.53851043       0.87432037 </v>
   <v>       0.56332104       0.03716240       0.74291110 </v>
   <v>       0.18798822       0.78803287       0.87432362 </v>
   <v>       0.93745560       0.45537101       0.47853798 </v>
   <v>       0.56317128       0.53750289       0.74268868 </v>
   <v>       0.81194583       0.20622273       0.56519917 </v>
   <v>       0.18762362       0.61911982       0.78710296 </v>
   <v>       0.06284725       0.54035010       0.39012622 </v>
   <v>       0.06244984       0.70508638       0.69863099 </v>
   <v>       0.31227373       0.54143356       0.25710901 </v>
   <v>       0.31268432       0.70657785       0.21314080 </v>
   <v>       0.31304437       0.87010623       0.16715005 </v>
   <v>       0.81262444       0.53999343       0.39015042 </v>
   <v>       0.68681255       0.45636726       0.34588648 </v>
   <v>       0.93590596       0.28975435       0.87426839 </v>
   <v>       0.43739227       0.95570919       0.47864893 </v>
   <v>       0.06350767       0.03551207       0.87421284 </v>
   <v>       0.18711574       0.79128828       0.39008004 </v>
   <v>       0.81229289       0.37089205       0.16736213 </v>
   <v>       0.56247901       0.37228432       0.52133047 </v>
   <v>       0.93724129       0.12192491       0.52127060 </v>
   <v>       0.43710830       0.78871060       0.12553555 </v>
   <v>       0.31281764       0.53647047       0.74294867 </v>
  </varray>
 </structure>
</modeling>
