unknown system                          
           1
     9.726678    0.000000    0.000000
     0.000000    8.423550    0.000000
     0.000000    0.000000   45.000000
   Fe   Mn
 274  14
Direct configuration=     1
   0.06264876  0.03421302  0.12545223
   0.31318592  0.87186815  0.65399563
   0.18747766  0.11693318  0.78714142
   0.43769310  0.29124418  0.38971175
   0.31506651  0.70811084  0.83152464
   0.81416166  0.20961070  0.83256582
   0.18766990  0.95933966  0.83231156
   0.56299014  0.20737900  0.56506930
   0.06229883  0.03553101  0.74275437
   0.81246258  0.87101092  0.52112565
   0.18936947  0.28593437  0.74261605
   0.93653216  0.45637772  0.34628329
   0.93607218  0.29066121  0.38991207
   0.81209981  0.03490239  0.87429298
   0.18596940  0.78717454  0.61007306
   0.56198889  0.04108200  0.38999466
   0.93912590  0.95967053  0.83248239
   0.31397038  0.53502449  0.87461413
   0.68862103  0.28643557  0.74251416
   0.18904913  0.61934352  0.16778811
   0.81142676  0.20597978  0.47891147
   0.81233527  0.53598327  0.61025620
   0.31252965  0.87289297  0.43464133
   0.81202423  0.04048144  0.25742747
   0.68751600  0.95544773  0.34592194
   0.93617293  0.12004506  0.16857524
   0.06286873  0.87107585  0.52114291
   0.56246635  0.54132104  0.25717063
   0.68624730  0.79083629  0.87450034
   0.56382349  0.36967226  0.16791364
   0.43745085  0.78724340  0.74286876
   0.81245013  0.70691862  0.56496968
   0.56224902  0.86721060  0.78712493
   0.68665841  0.12091200  0.52119656
   0.81368737  0.37117101  0.65401367
   0.93810508  0.45855328  0.83245797
   0.06215114  0.20596922  0.69856977
   0.43688137  0.95590061  0.69838651
   0.31294085  0.20708572  0.83226654
   0.43792258  0.62175089  0.65393307
   0.31180735  0.53649307  0.61015026
   0.93726814  0.45732532  0.56506935
   0.68767970  0.78765855  0.74287233
   0.93700968  0.79191729  0.12550370
   0.68752264  0.78949593  0.38966167
   0.93772170  0.78660239  0.74309925
   0.06316152  0.20597371  0.34591267
   0.81177598  0.04080827  0.39004191
   0.43764631  0.11703179  0.78729304
   0.06233218  0.20757234  0.21277396
   0.06139035  0.37012986  0.16802901
   0.93585023  0.79124987  0.25722260
   0.56262389  0.20567808  0.69858880
   0.68708784  0.95606708  0.69854706
   0.81193852  0.86751895  0.78709646
   0.43763631  0.95662497  0.56480390
   0.81266338  0.36825286  0.78715677
   0.68530633  0.29164709  0.25742247
   0.18784065  0.45728819  0.56495760
   0.06189405  0.87045532  0.16804013
   0.18686917  0.28679661  0.61024241
   0.56383298  0.70651488  0.34630383
   0.31235642  0.20602419  0.69860660
   0.56179587  0.53467938  0.87451338
   0.06290634  0.70682909  0.56488949
   0.68805978  0.61727347  0.78726034
   0.31178701  0.54050859  0.38969388
   0.18769879  0.62076881  0.52111584
   0.56329766  0.87409988  0.43500170
   0.43711008  0.45707962  0.56487433
   0.43739243  0.28745532  0.74282130
   0.81234111  0.87728842  0.30152642
   0.81183747  0.70653982  0.34638673
   0.43825975  0.45672754  0.83164574
   0.68753874  0.95603493  0.47876848
   0.68710247  0.45630636  0.69858524
   0.56293352  0.87114325  0.52115480
   0.56349826  0.37134677  0.65380478
   0.81319151  0.87196651  0.65392626
   0.81266591  0.37366391  0.43465565
   0.81261854  0.54072038  0.25737344
   0.68925490  0.45558243  0.83188091
   0.18812656  0.78976546  0.12538673
   0.68790926  0.29088269  0.38958745
   0.31312172  0.37153846  0.65384481
   0.31282286  0.20558055  0.34603037
   0.81285316  0.53626659  0.74281559
   0.68772928  0.95734294  0.83203245
   0.56259585  0.87188610  0.65394436
   0.31258967  0.70736253  0.56509309
   0.31126797  0.53511196  0.12534610
   0.68762699  0.95796246  0.21298539
   0.31249115  0.20751436  0.56519241
   0.18695498  0.95657880  0.47871973
   0.68776194  0.95727826  0.56507284
   0.43676499  0.78640785  0.61004896
   0.68657439  0.61799452  0.16769671
   0.31269126  0.87527534  0.30142409
   0.31274163  0.70571311  0.47871703
   0.93611130  0.28718964  0.61015146
   0.43767791  0.62644485  0.30169361
   0.81287620  0.86927216  0.16838860
   0.56318457  0.20726240  0.21288928
   0.93693791  0.61780115  0.16813628
   0.93965288  0.78894577  0.87466031
   0.56238742  0.36703876  0.78712616
   0.06202647  0.37138025  0.52118763
   0.31225528  0.36854656  0.16831565
   0.68809926  0.12525595  0.30135920
   0.43984377  0.95753826  0.83180674
   0.18683425  0.29146200  0.12546372
   0.18613056  0.29218619  0.25744135
   0.31232424  0.37336762  0.43477957
   0.56234785  0.03513979  0.12543448
   0.43623228  0.28680981  0.61003278
   0.18678193  0.45807277  0.34659275
   0.43742546  0.29126965  0.12551341
   0.68654680  0.79129350  0.25732378
   0.43700345  0.12146356  0.52114568
   0.18885112  0.29072498  0.87457327
   0.18788043  0.12169208  0.65391484
   0.93797229  0.12185176  0.65390810
   0.31257731  0.20806458  0.21293527
   0.06276661  0.03963560  0.38971344
   0.18704991  0.11734685  0.16761623
   0.06220331  0.53552284  0.61022302
   0.93706039  0.29140169  0.25739500
   0.56211240  0.53625012  0.61016231
   0.93745188  0.95760213  0.56504864
   0.68730417  0.62507746  0.30147480
   0.93661128  0.62379414  0.43497619
   0.93704599  0.61785846  0.78702874
   0.56201989  0.70513808  0.69845052
   0.06272873  0.71045531  0.83245186
   0.93808621  0.12515074  0.30141240
   0.93724488  0.78556178  0.61024613
   0.43568571  0.79213302  0.25729353
   0.31227188  0.36760684  0.78704305
   0.43708949  0.45717332  0.21290886
   0.18796715  0.12072545  0.52117567
   0.81216484  0.70590733  0.69848429
   0.06140637  0.03616613  0.61005145
   0.56242252  0.20696084  0.83167638
   0.31145145  0.87104739  0.52109980
   0.68822758  0.29117352  0.12541702
   0.18714595  0.95815718  0.21305940
   0.68578879  0.28728373  0.61013197
   0.31136999  0.03646175  0.61033164
   0.93789549  0.11723816  0.78724214
   0.43778289  0.79136897  0.87447920
   0.81289955  0.03746544  0.74274484
   0.93691120  0.45666464  0.69854096
   0.18778333  0.62174977  0.65389863
   0.31231830  0.70599532  0.69855280
   0.93683859  0.29091108  0.12546457
   0.43734066  0.45574061  0.47874885
   0.06239872  0.70606002  0.47866498
   0.93651946  0.12417709  0.43529827
   0.43752609  0.12573909  0.30163940
   0.18767550  0.12364234  0.43470501
   0.56272637  0.03355318  0.87459058
   0.18743087  0.95760232  0.56510827
   0.68856871  0.79049392  0.12575018
   0.56385520  0.53433948  0.12541733
   0.31262038  0.04016837  0.38987392
   0.68876675  0.12030343  0.16871154
   0.81243871  0.20833410  0.21257032
   0.06429521  0.54167595  0.25731306
   0.56215138  0.70592085  0.47867872
   0.06293370  0.20693084  0.56489723
   0.56218488  0.37677298  0.30151414
   0.43687360  0.95661068  0.34628573
   0.18752770  0.95593258  0.69857326
   0.43648021  0.61825621  0.16742127
   0.93751870  0.45800369  0.21306576
   0.06216225  0.53329968  0.12536539
   0.81328531  0.37159698  0.52122194
   0.93746226  0.62516319  0.30126721
   0.31331750  0.04115120  0.25702415
   0.68716489  0.78587118  0.61023179
   0.18838278  0.45854289  0.83220542
   0.43700854  0.11605390  0.16746462
   0.31191299  0.37098000  0.52111613
   0.43749459  0.61722208  0.78733722
   0.06171675  0.04102615  0.25720887
   0.56255510  0.70745235  0.56522353
   0.93791734  0.28577666  0.74260968
   0.68690136  0.11751444  0.78702067
   0.18799502  0.45734099  0.21283781
   0.93741655  0.79066126  0.38978755
   0.68647558  0.29265029  0.87460806
   0.56194207  0.86868911  0.16758637
   0.43742330  0.45605990  0.69863867
   0.93867571  0.95623129  0.34614460
   0.68661874  0.62163863  0.52115151
   0.06287178  0.87180416  0.65391198
   0.06215298  0.86809084  0.78707043
   0.06268433  0.37095767  0.65391189
   0.68789817  0.45568395  0.47885135
   0.18732913  0.79176390  0.25725501
   0.43741586  0.12302312  0.43465438
   0.81348624  0.03389368  0.12546518
   0.93709117  0.62121402  0.52122511
   0.06287550  0.87298710  0.43464522
   0.81286859  0.53282100  0.12508422
   0.43714566  0.45686511  0.34640516
   0.81285571  0.20739602  0.34635242
   0.31288611  0.70542129  0.34598324
   0.68768857  0.12207258  0.65397382
   0.56318704  0.87587540  0.30177585
   0.06344928  0.53561929  0.74280977
   0.93820986  0.95780788  0.21281834
   0.81285447  0.70807066  0.21283769
   0.06202655  0.87556358  0.30177383
   0.18773561  0.12655298  0.30170617
   0.06189705  0.70624485  0.34628458
   0.81168710  0.03616967  0.60996024
   0.06260166  0.37275461  0.43460999
   0.56252319  0.20714656  0.34632032
   0.81295825  0.37630645  0.30156059
   0.56303191  0.04214782  0.25721799
   0.56273187  0.54063479  0.38984464
   0.06272020  0.20575738  0.47869262
   0.31297814  0.86714097  0.78695976
   0.93741649  0.95611705  0.69855843
   0.06285619  0.37595879  0.30136024
   0.68788165  0.62239922  0.65403139
   0.68741797  0.45690362  0.56493665
   0.43770276  0.95795693  0.21306239
   0.31239536  0.20567855  0.47871034
   0.43837950  0.12135725  0.65376719
   0.68740815  0.62301080  0.43462091
   0.81253369  0.20575922  0.69860100
   0.81231286  0.70578597  0.47871112
   0.81173092  0.87385484  0.43485634
   0.93748683  0.95548729  0.47887148
   0.56251728  0.20592707  0.47878022
   0.18752658  0.62397279  0.43485190
   0.31273888  0.03764219  0.74280186
   0.93770084  0.62198975  0.65383495
   0.56368108  0.70806901  0.83188807
   0.31273700  0.37392598  0.30141422
   0.56212384  0.70789817  0.21275929
   0.18724291  0.45591212  0.47870564
   0.31366076  0.03525516  0.87434589
   0.18663224  0.45650304  0.69849941
   0.81105248  0.53430623  0.87464801
   0.18760451  0.29071907  0.38986128
   0.43672794  0.62388647  0.43477877
   0.06253478  0.70802448  0.21282611
   0.56226795  0.37437986  0.43536722
   0.43789272  0.62209734  0.52122173
   0.81329644  0.70970459  0.83169964
   0.06221270  0.36796255  0.78708848
   0.43749248  0.29214493  0.87478397
   0.31433124  0.03557798  0.12535761
   0.68755384  0.12131462  0.43455991
   0.18671957  0.95733981  0.34627873
   0.06330680  0.20940646  0.83277072
   0.56200442  0.03567868  0.61029353
   0.68722418  0.45776884  0.21312034
   0.18760942  0.78650763  0.74281050
   0.18733358  0.62701377  0.30179665
   0.43652935  0.79151528  0.39007977
   0.43502246  0.29255593  0.25729796
   0.06351215  0.53580368  0.87452235
   0.56357247  0.03623246  0.74280603
   0.18794694  0.79104232  0.87451823
   0.93739844  0.45562616  0.47874501
   0.56348383  0.53703018  0.74236849
   0.81203389  0.20716551  0.56486652
   0.18758547  0.61695848  0.78713534
   0.06306574  0.54029529  0.38974134
   0.06253823  0.70596854  0.69861248
   0.31239356  0.54244532  0.25688776
   0.31323196  0.70592414  0.21340758
   0.31282372  0.86925727  0.16692203
   0.81307986  0.53949618  0.39014614
   0.68605280  0.45481388  0.34598195
   0.93485128  0.29219284  0.87412436
   0.43732042  0.95661753  0.47885360
   0.06363607  0.03148862  0.87432680
   0.18670986  0.79287300  0.39015812
   0.81247876  0.37027673  0.16748438
   0.56243533  0.37091469  0.52125669
   0.93713769  0.12099678  0.52120941
   0.43687546  0.79184235  0.12534982
   0.31297432  0.53503728  0.74287097
Direct configuration=     2
   0.06264224  0.03473211  0.12553175
   0.31307100  0.87179472  0.65399707
   0.18754583  0.11731275  0.78712863
   0.43777131  0.29120004  0.38979436
   0.31471696  0.70775733  0.83159545
   0.81411810  0.20911781  0.83252210
   0.18763821  0.95889279  0.83229611
   0.56289738  0.20706747  0.56513301
   0.06231804  0.03573786  0.74278279
   0.81236870  0.87121214  0.52122239
   0.18901220  0.28614822  0.74265757
   0.93672266  0.45645568  0.34621588
   0.93624690  0.29057434  0.38996370
   0.81203573  0.03558541  0.87426997
   0.18620517  0.78722825  0.61001774
   0.56199650  0.04099228  0.39003868
   0.93911437  0.95925982  0.83246083
   0.31380654  0.53563222  0.87452110
   0.68852003  0.28657870  0.74257681
   0.18887869  0.61957486  0.16775926
   0.81151205  0.20603962  0.47883249
   0.81230823  0.53622796  0.61018991
   0.31246553  0.87295699  0.43468139
   0.81208513  0.04058720  0.25739346
   0.68748440  0.95582411  0.34592004
   0.93629679  0.12011795  0.16845029
   0.06288667  0.87130688  0.52123083
   0.56251027  0.54135323  0.25717714
   0.68642425  0.79028457  0.87443787
   0.56362558  0.36972288  0.16785417
   0.43749022  0.78722275  0.74286799
   0.81245826  0.70671230  0.56502072
   0.56232309  0.86748876  0.78709495
   0.68679595  0.12107049  0.52127562
   0.81349036  0.37124929  0.65402268
   0.93812389  0.45825713  0.83242999
   0.06218549  0.20578086  0.69856032
   0.43698333  0.95575195  0.69841708
   0.31293011  0.20687545  0.83229662
   0.43783750  0.62171071  0.65394839
   0.31183155  0.53674775  0.61009350
   0.93731716  0.45705227  0.56511381
   0.68770620  0.78760811  0.74287873
   0.93700640  0.79119992  0.12561908
   0.68748943  0.78958529  0.38974520
   0.93777779  0.78660046  0.74306547
   0.06303428  0.20620552  0.34590834
   0.81191338  0.04074779  0.39008533
   0.43764969  0.11740741  0.78725549
   0.06227310  0.20741923  0.21281258
   0.06153515  0.37027397  0.16795026
   0.93603405  0.79120315  0.25721719
   0.56257025  0.20552194  0.69857466
   0.68716052  0.95584359  0.69855552
   0.81193790  0.86778131  0.78707036
   0.43757575  0.95651632  0.56484565
   0.81267475  0.36835872  0.78711700
   0.68557850  0.29160613  0.25738018
   0.18774287  0.45704042  0.56500848
   0.06202509  0.87055011  0.16796930
   0.18691343  0.28688832  0.61017422
   0.56359963  0.70661632  0.34625219
   0.31241496  0.20582394  0.69859095
   0.56194580  0.53549485  0.87440989
   0.06282189  0.70662739  0.56495107
   0.68800899  0.61762740  0.78723101
   0.31190098  0.54056108  0.38980039
   0.18770657  0.62115461  0.52119427
   0.56306857  0.87388523  0.43496367
   0.43712636  0.45694132  0.56494941
   0.43751560  0.28746515  0.74282699
   0.81239362  0.87698983  0.30150491
   0.81194345  0.70654740  0.34631032
   0.43824869  0.45660106  0.83176300
   0.68764506  0.95607235  0.47868682
   0.68714782  0.45602709  0.69857611
   0.56282114  0.87130271  0.52121982
   0.56337669  0.37134385  0.65383303
   0.81312154  0.87188958  0.65394624
   0.81265433  0.37359418  0.43466096
   0.81256363  0.54075137  0.25735198
   0.68913552  0.45572365  0.83196258
   0.18791882  0.78916855  0.12542376
   0.68781279  0.29078292  0.38969835
   0.31302266  0.37154199  0.65387441
   0.31278973  0.20584501  0.34599716
   0.81289258  0.53631405  0.74282701
   0.68776008  0.95720909  0.83207011
   0.56262501  0.87184840  0.65395304
   0.31256921  0.70704667  0.56514019
   0.31129858  0.53566028  0.12540132
   0.68756494  0.95791738  0.21302174
   0.31249429  0.20727741  0.56522485
   0.18693424  0.95646317  0.47863584
   0.68783740  0.95705387  0.56512705
   0.43680989  0.78659390  0.61000366
   0.68660688  0.61823631  0.16768519
   0.31264521  0.87529151  0.30141945
   0.31268063  0.70561505  0.47864368
   0.93627455  0.28715719  0.61008465
   0.43769965  0.62620499  0.30164988
   0.81285492  0.86947028  0.16827011
   0.56318353  0.20716965  0.21289794
   0.93706362  0.61811041  0.16808606
   0.93932926  0.78854074  0.87460986
   0.56240829  0.36735883  0.78709504
   0.06211924  0.37164395  0.52124771
   0.31227497  0.36865163  0.16819989
   0.68800209  0.12533167  0.30138926
   0.43962374  0.95721226  0.83188527
   0.18698351  0.29083371  0.12556964
   0.18623914  0.29193762  0.25740813
   0.31232601  0.37333483  0.43475247
   0.56246308  0.03568513  0.12550857
   0.43639905  0.28690097  0.60998050
   0.18684171  0.45789233  0.34647139
   0.43736947  0.29067275  0.12561626
   0.68664021  0.79131174  0.25730587
   0.43696897  0.12168514  0.52122943
   0.18892731  0.29027905  0.87455968
   0.18783879  0.12169442  0.65394368
   0.93792784  0.12175775  0.65392532
   0.31253691  0.20786476  0.21292059
   0.06264984  0.03982024  0.38980323
   0.18700355  0.11776726  0.16764997
   0.06220318  0.53585251  0.61014422
   0.93708288  0.29124571  0.25736430
   0.56210615  0.53649113  0.61008372
   0.93746633  0.95721810  0.56509122
   0.68731326  0.62519049  0.30146670
   0.93675462  0.62371269  0.43493646
   0.93712993  0.61827965  0.78701628
   0.56205004  0.70506607  0.69847408
   0.06285239  0.70998398  0.83243094
   0.93801136  0.12526203  0.30142698
   0.93719394  0.78588724  0.61017092
   0.43600128  0.79206752  0.25729595
   0.31230682  0.36776639  0.78702742
   0.43727896  0.45703912  0.21292048
   0.18792465  0.12095796  0.52124946
   0.81221850  0.70578184  0.69850628
   0.06148947  0.03643051  0.60999446
   0.56248594  0.20683946  0.83173871
   0.31156222  0.87123555  0.52117703
   0.68812384  0.29046384  0.12548118
   0.18714077  0.95814255  0.21306633
   0.68597298  0.28729760  0.61008270
   0.31153446  0.03659063  0.61024189
   0.93783507  0.11766195  0.78724141
   0.43784900  0.79069636  0.87441236
   0.81293703  0.03737012  0.74275671
   0.93701499  0.45633879  0.69855741
   0.18780130  0.62170007  0.65391577
   0.31232165  0.70578326  0.69855041
   0.93694018  0.29017478  0.12554445
   0.43726484  0.45585282  0.47868633
   0.06244506  0.70588418  0.47862068
   0.93664758  0.12390292  0.43523937
   0.43757101  0.12556697  0.30161175
   0.18767292  0.12355037  0.43468859
   0.56280447  0.03437076  0.87450654
   0.18732774  0.95738045  0.56516425
   0.68868378  0.78981883  0.12580273
   0.56390676  0.53480414  0.12545919
   0.31263787  0.04024994  0.38993773
   0.68860058  0.12028399  0.16859028
   0.81243201  0.20810155  0.21264898
   0.06387503  0.54158858  0.25729385
   0.56218400  0.70570576  0.47862438
   0.06289670  0.20679335  0.56496560
   0.56214379  0.37646606  0.30149428
   0.43694208  0.95663577  0.34621830
   0.18750534  0.95579398  0.69858324
   0.43656394  0.61881731  0.16745084
   0.93758150  0.45792057  0.21307114
   0.06214687  0.53389856  0.12545173
   0.81313069  0.37178996  0.52129278
   0.93746672  0.62519427  0.30128847
   0.31313935  0.04105085  0.25705999
   0.68713935  0.78615497  0.61015813
   0.18829561  0.45825589  0.83224316
   0.43719014  0.11661375  0.16751133
   0.31193133  0.37117107  0.52119942
   0.43754641  0.61751946  0.78728280
   0.06180490  0.04099053  0.25720389
   0.56253482  0.70707884  0.56526420
   0.93793057  0.28599125  0.74265800
   0.68692666  0.11777359  0.78699705
   0.18777764  0.45728717  0.21285949
   0.93734389  0.79070240  0.38987558
   0.68651486  0.29190484  0.87455369
   0.56175477  0.86900337  0.16759391
   0.43741983  0.45585097  0.69862962
   0.93845674  0.95640070  0.34610119
   0.68677069  0.62189118  0.52122770
   0.06282369  0.87172726  0.65394866
   0.06226260  0.86825533  0.78706969
   0.06267678  0.37103167  0.65393455
   0.68787829  0.45571611  0.47877060
   0.18725283  0.79179099  0.25726567
   0.43743624  0.12317383  0.43464332
   0.81339674  0.03465988  0.12558495
   0.93716157  0.62146807  0.52127989
   0.06280870  0.87302006  0.43465111
   0.81278620  0.53360290  0.12515489
   0.43704974  0.45683517  0.34631806
   0.81286860  0.20729797  0.34628545
   0.31280448  0.70584400  0.34598191
   0.68768978  0.12196918  0.65398299
   0.56306181  0.87579177  0.30173756
   0.06329278  0.53580819  0.74281961
   0.93821868  0.95776150  0.21286334
   0.81280190  0.70774109  0.21286719
   0.06204778  0.87547364  0.30172576
   0.18772929  0.12627739  0.30164500
   0.06197259  0.70642517  0.34624084
   0.81176063  0.03639613  0.60992347
   0.06255881  0.37286424  0.43461349
   0.56241782  0.20703472  0.34623839
   0.81289538  0.37606815  0.30153593
   0.56290790  0.04198089  0.25722780
   0.56262499  0.54057521  0.38992085
   0.06271858  0.20582663  0.47864322
   0.31294365  0.86733228  0.78694025
   0.93738316  0.95590605  0.69855594
   0.06279463  0.37587008  0.30136997
   0.68785232  0.62224314  0.65403852
   0.68747399  0.45675334  0.56499995
   0.43776318  0.95791792  0.21305621
   0.31227825  0.20574320  0.47862524
   0.43826410  0.12145409  0.65381017
   0.68736449  0.62312124  0.43463901
   0.81253111  0.20555718  0.69858759
   0.81223760  0.70570984  0.47864812
   0.81191165  0.87369132  0.43482673
   0.93746250  0.95544439  0.47879393
   0.56260475  0.20580086  0.47869407
   0.18745455  0.62386603  0.43483918
   0.31270176  0.03752785  0.74280367
   0.93768729  0.62193133  0.65386299
   0.56363750  0.70772587  0.83195367
   0.31269472  0.37416608  0.30144487
   0.56215905  0.70773974  0.21276889
   0.18720104  0.45580485  0.47862809
   0.31375566  0.03610796  0.87428698
   0.18675854  0.45624022  0.69850194
   0.81118544  0.53507669  0.87457298
   0.18755070  0.29064544  0.38992142
   0.43682930  0.62387764  0.43476573
   0.06251187  0.70783419  0.21284525
   0.56230241  0.37417610  0.43529469
   0.43772748  0.62227920  0.52126985
   0.81329100  0.70911590  0.83174722
   0.06231249  0.36823571  0.78708099
   0.43742157  0.29147609  0.87468370
   0.31408936  0.03611711  0.12534282
   0.68743196  0.12159760  0.43456458
   0.18683820  0.95725510  0.34621091
   0.06320703  0.20892511  0.83267416
   0.56200354  0.03594112  0.61021505
   0.68723016  0.45767366  0.21311985
   0.18760345  0.78654031  0.74282263
   0.18736011  0.62666695  0.30176008
   0.43674482  0.79137516  0.39011796
   0.43536765  0.29230278  0.25727060
   0.06360217  0.53640525  0.87447392
   0.56352360  0.03642734  0.74282933
   0.18796932  0.79035427  0.87447429
   0.93743358  0.45553275  0.47867113
   0.56342540  0.53715013  0.74243639
   0.81200275  0.20698153  0.56494177
   0.18758724  0.61740338  0.78712798
   0.06302514  0.54030115  0.38984269
   0.06250720  0.70580824  0.69862083
   0.31237114  0.54224428  0.25694457
   0.31312005  0.70610374  0.21334643
   0.31288235  0.86938381  0.16697145
   0.81298263  0.53961379  0.39016460
   0.68621672  0.45513432  0.34595334
   0.93506152  0.29166907  0.87417618
   0.43733982  0.95635049  0.47878494
   0.06361429  0.03234369  0.87431245
   0.18679197  0.79253426  0.39015961
   0.81244435  0.37040178  0.16744162
   0.56244492  0.37122172  0.52129169
   0.93716793  0.12116323  0.52123789
   0.43694180  0.79116135  0.12538426
   0.31293898  0.53533387  0.74288531
Direct configuration=     3
   0.06262688  0.03595616  0.12571926
   0.31280003  0.87162156  0.65400046
   0.18770657  0.11820781  0.78709847
   0.43795574  0.29109597  0.38998915
   0.31389269  0.70692372  0.83176243
   0.81401538  0.20795555  0.83241901
   0.18756348  0.95783904  0.83225966
   0.56267863  0.20633285  0.56528324
   0.06236334  0.03622564  0.74284981
   0.81214734  0.87168662  0.52145051
   0.18816973  0.28665250  0.74275547
   0.93717186  0.45663953  0.34605693
   0.93665888  0.29036950  0.39008545
   0.81188461  0.03719601  0.87421572
   0.18676113  0.78735489  0.60988730
   0.56201444  0.04078073  0.39014249
   0.93908717  0.95829133  0.83240999
   0.31342019  0.53706526  0.87430174
   0.68828186  0.28691620  0.74272454
   0.18847679  0.62012036  0.16769124
   0.81171318  0.20618073  0.47864625
   0.81224447  0.53680496  0.61003358
   0.31231433  0.87310797  0.43477584
   0.81222874  0.04083658  0.25731326
   0.68740986  0.95671164  0.34591556
   0.93658885  0.12028983  0.16815564
   0.06292895  0.87185168  0.52143817
   0.56261383  0.54142914  0.25719249
   0.68684151  0.78898359  0.87429058
   0.56315889  0.36984225  0.16771394
   0.43758308  0.78717405  0.74286617
   0.81247741  0.70622578  0.56514109
   0.56249774  0.86814465  0.78702424
   0.68712028  0.12144422  0.52146204
   0.81302580  0.37143387  0.65404395
   0.93816823  0.45755881  0.83236401
   0.06226647  0.20533669  0.69853804
   0.43722378  0.95540140  0.69848915
   0.31290479  0.20637961  0.83236756
   0.43763686  0.62161595  0.65398451
   0.31188861  0.53734830  0.60995963
   0.93743274  0.45640841  0.56521864
   0.68776868  0.78748917  0.74289383
   0.93699867  0.78950834  0.12589114
   0.68741111  0.78979600  0.38994218
   0.93791005  0.78659593  0.74298582
   0.06273423  0.20675216  0.34589810
   0.81223736  0.04060519  0.39018772
   0.43765766  0.11829316  0.78716696
   0.06213379  0.20705817  0.21290366
   0.06187660  0.37061377  0.16776455
   0.93646751  0.79109296  0.25720444
   0.56244374  0.20515376  0.69854129
   0.68733189  0.95531658  0.69857548
   0.81193645  0.86839998  0.78700881
   0.43743296  0.95626011  0.56494410
   0.81270156  0.36860835  0.78702324
   0.68622027  0.29150957  0.25728046
   0.18751231  0.45645616  0.56512844
   0.06233408  0.87077364  0.16780227
   0.18701778  0.28710459  0.61001343
   0.56304938  0.70685552  0.34613043
   0.31255298  0.20535175  0.69855402
   0.56229935  0.53741778  0.87416587
   0.06262276  0.70615178  0.56509628
   0.68788923  0.61846197  0.78716185
   0.31216975  0.54068485  0.39005155
   0.18772493  0.62206437  0.52137921
   0.56252834  0.87337908  0.43487400
   0.43716475  0.45661519  0.56512645
   0.43780604  0.28748833  0.74284041
   0.81251742  0.87628573  0.30145419
   0.81219335  0.70656526  0.34613016
   0.43822258  0.45630280  0.83203952
   0.68789576  0.95616058  0.47849425
   0.68725476  0.45536854  0.69855458
   0.56255615  0.87167872  0.52137313
   0.56309002  0.37133697  0.65389964
   0.81295653  0.87170820  0.65399337
   0.81262703  0.37342976  0.43467348
   0.81243415  0.54082446  0.25730138
   0.68885401  0.45605667  0.83215518
   0.18742897  0.78776102  0.12551110
   0.68758529  0.29054765  0.38995985
   0.31278908  0.37155031  0.65394420
   0.31271160  0.20646861  0.34591887
   0.81298553  0.53642597  0.74285394
   0.68783269  0.95689345  0.83215893
   0.56269376  0.87175948  0.65397349
   0.31252095  0.70630188  0.56525126
   0.31137077  0.53695325  0.12553151
   0.68741861  0.95781109  0.21310744
   0.31250167  0.20671868  0.56530135
   0.18688534  0.95619052  0.47843803
   0.68801534  0.95652473  0.56525486
   0.43691577  0.78703262  0.60989686
   0.68668348  0.61880647  0.16765802
   0.31253664  0.87532965  0.30140852
   0.31253679  0.70538381  0.47847071
   0.93665948  0.28708068  0.60992710
   0.43775093  0.62563937  0.30154674
   0.81280473  0.86993748  0.16799071
   0.56318109  0.20695094  0.21291838
   0.93736006  0.61883967  0.16796765
   0.93856616  0.78758567  0.87449090
   0.56245752  0.36811358  0.78702166
   0.06233798  0.37226578  0.52138938
   0.31232141  0.36889940  0.16792691
   0.68777295  0.12551021  0.30146013
   0.43910492  0.95644356  0.83207046
   0.18733545  0.28935219  0.12581938
   0.18649519  0.29135148  0.25732979
   0.31233018  0.37325750  0.43468858
   0.56273479  0.03697106  0.12568326
   0.43679231  0.28711593  0.60985723
   0.18698268  0.45746685  0.34618520
   0.43723744  0.28926523  0.12585878
   0.68686049  0.79135475  0.25726364
   0.43688768  0.12220765  0.52142692
   0.18910699  0.28922752  0.87452763
   0.18774059  0.12169994  0.65401169
   0.93782303  0.12153605  0.65396593
   0.31244165  0.20739357  0.21288596
   0.06237450  0.04025562  0.39001495
   0.18689423  0.11875862  0.16772951
   0.06220289  0.53662988  0.60995841
   0.93713592  0.29087788  0.25729192
   0.56209141  0.53705942  0.60989840
   0.93750040  0.95631255  0.56519162
   0.68733468  0.62545705  0.30144758
   0.93709263  0.62352063  0.43484277
   0.93732785  0.61927285  0.78698688
   0.56212113  0.70489625  0.69852962
   0.06314398  0.70887256  0.83238161
   0.93783484  0.12552444  0.30146136
   0.93707382  0.78665472  0.60999357
   0.43674540  0.79191307  0.25730166
   0.31238920  0.36814261  0.78699057
   0.43772573  0.45672269  0.21294788
   0.18782443  0.12150623  0.52142347
   0.81234502  0.70548591  0.69855813
   0.06168545  0.03705395  0.60986006
   0.56263547  0.20655323  0.83188570
   0.31182341  0.87167924  0.52135915
   0.68787921  0.28879037  0.12563248
   0.18712854  0.95810808  0.21308265
   0.68640731  0.28733030  0.60996650
   0.31192229  0.03689456  0.61003026
   0.93769260  0.11866126  0.78723967
   0.43800488  0.78911030  0.87425475
   0.81302541  0.03714535  0.74278471
   0.93725971  0.45557042  0.69859618
   0.18784369  0.62158286  0.65395620
   0.31232953  0.70528319  0.69854479
   0.93717975  0.28843853  0.12573280
   0.43708607  0.45611741  0.47853891
   0.06255432  0.70546953  0.47851622
   0.93694970  0.12325641  0.43510047
   0.43767695  0.12516109  0.30154655
   0.18766685  0.12333350  0.43464988
   0.56298865  0.03629866  0.87430836
   0.18708457  0.95685727  0.56529624
   0.68895512  0.78822694  0.12592664
   0.56402834  0.53589985  0.12555789
   0.31267910  0.04044230  0.39008820
   0.68820875  0.12023817  0.16830434
   0.81241622  0.20755319  0.21283446
   0.06288421  0.54138255  0.25724855
   0.56226094  0.70519855  0.47849623
   0.06280945  0.20646915  0.56512683
   0.56204688  0.37574232  0.30144746
   0.43710356  0.95669492  0.34605929
   0.18745263  0.95546715  0.69860677
   0.43676139  0.62014042  0.16752055
   0.93772958  0.45772456  0.21308383
   0.06211060  0.53531075  0.12565534
   0.81276611  0.37224502  0.52145983
   0.93747725  0.62526756  0.30133863
   0.31271925  0.04081423  0.25714451
   0.68707911  0.78682417  0.60998443
   0.18809006  0.45757913  0.83233215
   0.43761838  0.11793392  0.16762147
   0.31197460  0.37162163  0.52139582
   0.43766860  0.61822069  0.78715448
   0.06201276  0.04090652  0.25719214
   0.56248699  0.70619810  0.56536010
   0.93796178  0.28649726  0.74277195
   0.68698632  0.11838469  0.78694136
   0.18726504  0.45716024  0.21291064
   0.93717255  0.79079942  0.39008318
   0.68660749  0.29014704  0.87442549
   0.56131313  0.86974441  0.16761169
   0.43741165  0.45535832  0.69860829
   0.93794040  0.95680017  0.34599883
   0.68712899  0.62248670  0.52140737
   0.06271030  0.87154592  0.65403514
   0.06252109  0.86864321  0.78706792
   0.06265900  0.37120615  0.65398797
   0.68783141  0.45579192  0.47858019
   0.18707290  0.79185485  0.25729079
   0.43748428  0.12352919  0.43461725
   0.81318570  0.03646661  0.12586737
   0.93732759  0.62206712  0.52140906
   0.06265120  0.87309780  0.43466499
   0.81259192  0.53544668  0.12532154
   0.43682357  0.45676457  0.34611269