 288 288   0   0
  0.1280206E+02  0.9726678E-09  0.8423550E-09  0.4500000E-08  0.2500000E-15
  1.000000000000000E-004
  CAR 
 unknown system                          
      6.82137617     -6.02498830  301      4.29327288      1.00000000
     -6.025  0.0000E+00  0.0000E+00
     -5.982  0.0000E+00  0.0000E+00
     -5.939  0.0000E+00  0.0000E+00
     -5.897  0.0000E+00  0.0000E+00
     -5.854  0.0000E+00  0.0000E+00
     -5.811  0.0000E+00  0.0000E+00
     -5.768  0.0000E+00  0.0000E+00
     -5.725  0.0000E+00  0.0000E+00
     -5.682  0.0000E+00  0.0000E+00
     -5.640  0.0000E+00  0.0000E+00
     -5.597  0.0000E+00  0.0000E+00
     -5.554  0.0000E+00  0.0000E+00
     -5.511  0.0000E+00  0.0000E+00
     -5.468  0.0000E+00  0.0000E+00
     -5.425  0.0000E+00  0.0000E+00
     -5.383  0.1945E-15  0.8327E-17
     -5.340  0.4343E-14  0.1943E-15
     -5.297  0.9405E-13  0.4222E-14
     -5.254  0.1717E-11  0.7775E-13
     -5.211  0.2670E-10  0.1221E-11
     -5.169  0.3534E-09  0.1636E-10
     -5.126  0.3986E-08  0.1870E-09
     -5.083  0.3830E-07  0.1827E-08
     -5.040  0.3139E-06  0.1527E-07
     -4.997  0.2196E-05  0.1093E-06
     -4.954  0.1312E-04  0.6713E-06
     -4.912  0.6715E-04  0.3547E-05
     -4.869  0.2948E-03  0.1617E-04
     -4.826  0.1115E-02  0.6391E-04
     -4.783  0.3647E-02  0.2201E-03
     -4.740  0.1039E-01  0.6650E-03
     -4.698  0.2599E-01  0.1778E-02
     -4.655  0.5765E-01  0.4246E-02
     -4.612  0.1147E+00  0.9157E-02
     -4.569  0.2070E+00  0.1802E-01
     -4.526  0.3423E+00  0.3268E-01
     -4.483  0.5230E+00  0.5507E-01
     -4.441  0.7427E+00  0.8688E-01
     -4.398  0.9853E+00  0.1291E+00
     -4.355  0.1226E+01  0.1816E+00
     -4.312  0.1440E+01  0.2432E+00
     -4.269  0.1605E+01  0.3119E+00
     -4.226  0.1714E+01  0.3853E+00
     -4.184  0.1780E+01  0.4616E+00
     -4.141  0.1831E+01  0.5400E+00
     -4.098  0.1907E+01  0.6216E+00
     -4.055  0.2041E+01  0.7090E+00
     -4.012  0.2245E+01  0.8051E+00
     -3.970  0.2503E+01  0.9123E+00
     -3.927  0.2776E+01  0.1031E+01
     -3.884  0.3011E+01  0.1160E+01
     -3.841  0.3159E+01  0.1295E+01
     -3.798  0.3202E+01  0.1433E+01
     -3.755  0.3158E+01  0.1568E+01
     -3.713  0.3078E+01  0.1700E+01
     -3.670  0.3026E+01  0.1829E+01
     -3.627  0.3053E+01  0.1960E+01
     -3.584  0.3183E+01  0.2096E+01
     -3.541  0.3398E+01  0.2242E+01
     -3.499  0.3647E+01  0.2398E+01
     -3.456  0.3874E+01  0.2564E+01
     -3.413  0.4037E+01  0.2737E+01
     -3.370  0.4124E+01  0.2913E+01
     -3.327  0.4150E+01  0.3091E+01
     -3.284  0.4146E+01  0.3268E+01
     -3.242  0.4150E+01  0.3446E+01
     -3.199  0.4193E+01  0.3626E+01
     -3.156  0.4291E+01  0.3809E+01
     -3.113  0.4445E+01  0.4000E+01
     -3.070  0.4639E+01  0.4198E+01
     -3.028  0.4848E+01  0.4406E+01
     -2.985  0.5040E+01  0.4622E+01
     -2.942  0.5188E+01  0.4844E+01
     -2.899  0.5282E+01  0.5070E+01
     -2.856  0.5335E+01  0.5299E+01
     -2.813  0.5378E+01  0.5529E+01
     -2.771  0.5448E+01  0.5762E+01
     -2.728  0.5557E+01  0.6000E+01
     -2.685  0.5677E+01  0.6243E+01
     -2.642  0.5745E+01  0.6489E+01
     -2.599  0.5702E+01  0.6734E+01
     -2.556  0.5554E+01  0.6971E+01
     -2.514  0.5395E+01  0.7202E+01
     -2.471  0.5370E+01  0.7432E+01
     -2.428  0.5599E+01  0.7672E+01
     -2.385  0.6094E+01  0.7933E+01
     -2.342  0.6736E+01  0.8221E+01
     -2.300  0.7315E+01  0.8535E+01
     -2.257  0.7632E+01  0.8862E+01
     -2.214  0.7602E+01  0.9187E+01
     -2.171  0.7302E+01  0.9500E+01
     -2.128  0.6939E+01  0.9797E+01
     -2.085  0.6746E+01  0.1009E+02
     -2.043  0.6865E+01  0.1038E+02
     -2.000  0.7288E+01  0.1069E+02
     -1.957  0.7873E+01  0.1103E+02
     -1.914  0.8421E+01  0.1139E+02
     -1.871  0.8773E+01  0.1177E+02
     -1.829  0.8877E+01  0.1215E+02
     -1.786  0.8807E+01  0.1252E+02
     -1.743  0.8703E+01  0.1290E+02
     -1.700  0.8687E+01  0.1327E+02
     -1.657  0.8799E+01  0.1364E+02
     -1.614  0.9008E+01  0.1403E+02
     -1.572  0.9260E+01  0.1443E+02
     -1.529  0.9529E+01  0.1483E+02
     -1.486  0.9811E+01  0.1525E+02
     -1.443  0.1010E+02  0.1569E+02
     -1.400  0.1033E+02  0.1613E+02
     -1.357  0.1048E+02  0.1658E+02
     -1.315  0.1056E+02  0.1703E+02
     -1.272  0.1072E+02  0.1749E+02
     -1.229  0.1118E+02  0.1797E+02
     -1.186  0.1206E+02  0.1848E+02
     -1.143  0.1326E+02  0.1905E+02
     -1.101  0.1446E+02  0.1967E+02
     -1.058  0.1530E+02  0.2033E+02
     -1.015  0.1561E+02  0.2099E+02
     -0.972  0.1555E+02  0.2166E+02
     -0.929  0.1553E+02  0.2232E+02
     -0.886  0.1595E+02  0.2301E+02
     -0.844  0.1701E+02  0.2374E+02
     -0.801  0.1865E+02  0.2453E+02
     -0.758  0.2076E+02  0.2542E+02
     -0.715  0.2336E+02  0.2642E+02
     -0.672  0.2666E+02  0.2757E+02
     -0.630  0.3079E+02  0.2888E+02
     -0.587  0.3561E+02  0.3041E+02
     -0.544  0.4055E+02  0.3215E+02
     -0.501  0.4493E+02  0.3407E+02
     -0.458  0.4833E+02  0.3614E+02
     -0.415  0.5079E+02  0.3831E+02
     -0.373  0.5264E+02  0.4057E+02
     -0.330  0.5417E+02  0.4289E+02
     -0.287  0.5548E+02  0.4526E+02
     -0.244  0.5646E+02  0.4768E+02
     -0.201  0.5697E+02  0.5012E+02
     -0.158  0.5706E+02  0.5256E+02
     -0.116  0.5692E+02  0.5500E+02
     -0.073  0.5683E+02  0.5743E+02
     -0.030  0.5709E+02  0.5988E+02
      0.013  0.5793E+02  0.6236E+02
      0.056  0.5948E+02  0.6491E+02
      0.098  0.6179E+02  0.6755E+02
      0.141  0.6476E+02  0.7033E+02
      0.184  0.6822E+02  0.7325E+02
      0.227  0.7195E+02  0.7633E+02
      0.270  0.7567E+02  0.7957E+02
      0.313  0.7907E+02  0.8295E+02
      0.355  0.8192E+02  0.8646E+02
      0.398  0.8410E+02  0.9006E+02
      0.441  0.8567E+02  0.9373E+02
      0.484  0.8673E+02  0.9745E+02
      0.527  0.8731E+02  0.1012E+03
      0.569  0.8738E+02  0.1049E+03
      0.612  0.8697E+02  0.1087E+03
      0.655  0.8616E+02  0.1123E+03
      0.698  0.8501E+02  0.1160E+03
      0.741  0.8352E+02  0.1196E+03
      0.784  0.8168E+02  0.1231E+03
      0.826  0.7964E+02  0.1265E+03
      0.869  0.7773E+02  0.1298E+03
      0.912  0.7634E+02  0.1331E+03
      0.955  0.7571E+02  0.1363E+03
      0.998  0.7575E+02  0.1395E+03
      1.041  0.7610E+02  0.1428E+03
      1.083  0.7631E+02  0.1461E+03
      1.126  0.7611E+02  0.1493E+03
      1.169  0.7550E+02  0.1526E+03
      1.212  0.7467E+02  0.1558E+03
      1.255  0.7382E+02  0.1589E+03
      1.297  0.7307E+02  0.1621E+03
      1.340  0.7238E+02  0.1652E+03
      1.383  0.7156E+02  0.1682E+03
      1.426  0.7038E+02  0.1712E+03
      1.469  0.6882E+02  0.1742E+03
      1.512  0.6715E+02  0.1771E+03
      1.554  0.6594E+02  0.1799E+03
      1.597  0.6576E+02  0.1827E+03
      1.640  0.6688E+02  0.1856E+03
      1.683  0.6917E+02  0.1885E+03
      1.726  0.7216E+02  0.1916E+03
      1.768  0.7537E+02  0.1948E+03
      1.811  0.7848E+02  0.1982E+03
      1.854  0.8135E+02  0.2017E+03
      1.897  0.8394E+02  0.2053E+03
      1.940  0.8623E+02  0.2090E+03
      1.983  0.8826E+02  0.2127E+03
      2.025  0.9009E+02  0.2166E+03
      2.068  0.9175E+02  0.2205E+03
      2.111  0.9317E+02  0.2245E+03
      2.154  0.9431E+02  0.2286E+03
      2.197  0.9532E+02  0.2326E+03
      2.240  0.9656E+02  0.2368E+03
      2.282  0.9848E+02  0.2410E+03
      2.325  0.1014E+03  0.2453E+03
      2.368  0.1053E+03  0.2498E+03
      2.411  0.1097E+03  0.2545E+03
      2.454  0.1142E+03  0.2594E+03
      2.496  0.1181E+03  0.2645E+03
      2.539  0.1213E+03  0.2697E+03
      2.582  0.1237E+03  0.2750E+03
      2.625  0.1257E+03  0.2804E+03
      2.668  0.1275E+03  0.2858E+03
      2.711  0.1294E+03  0.2914E+03
      2.753  0.1316E+03  0.2970E+03
      2.796  0.1341E+03  0.3027E+03
      2.839  0.1370E+03  0.3086E+03
      2.882  0.1399E+03  0.3146E+03
      2.925  0.1419E+03  0.3207E+03
      2.967  0.1421E+03  0.3268E+03
      3.010  0.1395E+03  0.3327E+03
      3.053  0.1341E+03  0.3385E+03
      3.096  0.1263E+03  0.3439E+03
      3.139  0.1173E+03  0.3489E+03
      3.182  0.1083E+03  0.3536E+03
      3.224  0.1004E+03  0.3579E+03
      3.267  0.9417E+02  0.3619E+03
      3.310  0.8982E+02  0.3657E+03
      3.353  0.8706E+02  0.3695E+03
      3.396  0.8548E+02  0.3731E+03
      3.439  0.8465E+02  0.3767E+03
      3.481  0.8414E+02  0.3803E+03
      3.524  0.8363E+02  0.3839E+03
      3.567  0.8295E+02  0.3875E+03
      3.610  0.8233E+02  0.3910E+03
      3.653  0.8228E+02  0.3945E+03
      3.695  0.8339E+02  0.3981E+03
      3.738  0.8596E+02  0.4018E+03
      3.781  0.8981E+02  0.4056E+03
      3.824  0.9431E+02  0.4097E+03
      3.867  0.9875E+02  0.4139E+03
      3.910  0.1026E+03  0.4183E+03
      3.952  0.1056E+03  0.4228E+03
      3.995  0.1077E+03  0.4274E+03
      4.038  0.1089E+03  0.4321E+03
      4.081  0.1092E+03  0.4368E+03
      4.124  0.1088E+03  0.4414E+03
      4.166  0.1079E+03  0.4460E+03
      4.209  0.1067E+03  0.4506E+03
      4.252  0.1054E+03  0.4551E+03
      4.295  0.1040E+03  0.4596E+03
      4.338  0.1027E+03  0.4640E+03
      4.381  0.1018E+03  0.4683E+03
      4.423  0.1012E+03  0.4727E+03
      4.466  0.1008E+03  0.4770E+03
      4.509  0.1001E+03  0.4813E+03
      4.552  0.9908E+02  0.4855E+03
      4.595  0.9799E+02  0.4897E+03
      4.637  0.9726E+02  0.4939E+03
      4.680  0.9735E+02  0.4980E+03
      4.723  0.9845E+02  0.5023E+03
      4.766  0.1004E+03  0.5066E+03
      4.809  0.1030E+03  0.5110E+03
      4.852  0.1055E+03  0.5155E+03
      4.894  0.1076E+03  0.5201E+03
      4.937  0.1088E+03  0.5247E+03
      4.980  0.1087E+03  0.5294E+03
      5.023  0.1070E+03  0.5340E+03
      5.066  0.1027E+03  0.5384E+03
      5.109  0.9481E+02  0.5424E+03
      5.151  0.8298E+02  0.5460E+03
      5.194  0.6775E+02  0.5489E+03
      5.237  0.5088E+02  0.5511E+03
      5.280  0.3475E+02  0.5526E+03
      5.323  0.2139E+02  0.5535E+03
      5.365  0.1179E+02  0.5540E+03
      5.408  0.5800E+01  0.5542E+03
      5.451  0.2537E+01  0.5543E+03
      5.494  0.9859E+00  0.5544E+03
      5.537  0.3401E+00  0.5544E+03
      5.580  0.1042E+00  0.5544E+03
      5.622  0.2831E-01  0.5544E+03
      5.665  0.6826E-02  0.5544E+03
      5.708  0.1457E-02  0.5544E+03
      5.751  0.2748E-03  0.5544E+03
      5.794  0.4561E-04  0.5544E+03
      5.836  0.6636E-05  0.5544E+03
      5.879  0.8426E-06  0.5544E+03
      5.922  0.9300E-07  0.5544E+03
      5.965  0.8889E-08  0.5544E+03
      6.008  0.7333E-09  0.5544E+03
      6.051  0.5207E-10  0.5544E+03
      6.093  0.3175E-11  0.5544E+03
      6.136  0.1653E-12  0.5544E+03
      6.179  0.7260E-14  0.5544E+03
      6.222  0.2593E-15  0.5544E+03
      6.265  0.0000E+00  0.5544E+03
      6.308  0.0000E+00  0.5544E+03
      6.350  0.0000E+00  0.5544E+03
      6.393  0.0000E+00  0.5544E+03
      6.436  0.0000E+00  0.5544E+03
      6.479  0.0000E+00  0.5544E+03
      6.522  0.0000E+00  0.5544E+03
      6.564  0.0000E+00  0.5544E+03
      6.607  0.0000E+00  0.5544E+03
      6.650  0.0000E+00  0.5544E+03
      6.693  0.0000E+00  0.5544E+03
      6.736  0.0000E+00  0.5544E+03
      6.779  0.0000E+00  0.5544E+03
      6.821  0.0000E+00  0.5544E+03
