unknown system                          
           1
     9.726678    0.000000    0.000000
     0.000000    8.423550    0.000000
     0.000000    0.000000   45.000000
   Fe   Mn
 281   7
Direct configuration=     1
   0.05358728  0.70180607  0.21146157
   0.31698285  0.72300254  0.87625077
   0.68771404  0.95825109  0.61124695
   0.43808424  0.45764875  0.61125786
   0.43951940  0.28761865  0.25555537
   0.05811147  0.38801034  0.83347317
   0.30757559  0.88745023  0.83337156
   0.44784463  0.62582990  0.70009487
   0.06090011  0.21114013  0.74476427
   0.17892976  0.45052441  0.21133547
   0.56780027  0.21043812  0.47746973
   0.06707045  0.87452494  0.56671869
   0.56617471  0.22416365  0.87612922
   0.80875428  0.53634718  0.12441503
   0.42912960  0.95059470  0.21129163
   0.56672110  0.37491011  0.56688283
   0.81199912  0.04188987  0.38860505
   0.68250277  0.78809887  0.52213871
   0.44302988  0.46078473  0.47746400
   0.43563356  0.96144731  0.74463833
   0.44169058  0.62505534  0.56671412
   0.05932768  0.53643193  0.12442660
   0.30861611  0.03583958  0.12446042
   0.69053453  0.95912069  0.34424826
   0.68246276  0.78037173  0.12421072
   0.05340242  0.37335268  0.29987596
   0.68842217  0.46589729  0.87599235
   0.42917331  0.45059799  0.21137535
   0.80840873  0.37494363  0.43311216
   0.82239642  0.37503508  0.70010352
   0.56030004  0.54147955  0.65552126
   0.93342874  0.12514660  0.43305808
   0.56590002  0.53736273  0.25548560
   0.69047134  0.45907974  0.34422856
   0.19002592  0.61475897  0.16700351
   0.19488226  0.79803674  0.78863284
   0.44795973  0.12556184  0.70017304
   0.92892587  0.62313951  0.29969288
   0.31696687  0.22309692  0.87619087
   0.31733648  0.87446753  0.56673362
   0.81697714  0.22298535  0.87627744
   0.80977892  0.54106222  0.65572797
   0.55860758  0.53598585  0.12441099
   0.56481506  0.86482374  0.16669894
   0.19000832  0.28773111  0.25547216
   0.80833119  0.87482824  0.43307778
   0.57293550  0.37547605  0.70016016
   0.05857756  0.03592691  0.12438802
   0.31020969  0.54113664  0.65570318
   0.56551349  0.20958098  0.34414135
   0.18805313  0.95781077  0.61133194
   0.30346963  0.37321072  0.29980372
   0.43463083  0.79061463  0.65575139
   0.68525413  0.46184677  0.74454113
   0.06484977  0.36412874  0.16672974
   0.69811262  0.62577523  0.70019652
   0.31174728  0.54185151  0.38853517
   0.06793902  0.72351570  0.87599674
   0.93355766  0.63744041  0.83346063
   0.32011598  0.54906520  0.78871183
   0.30381546  0.20142585  0.21143412
   0.06785423  0.71048766  0.47744866
   0.55380889  0.20141656  0.21142654
   0.31091524  0.21159745  0.74423500
   0.07273539  0.37546482  0.70021882
   0.18332019  0.63785461  0.83337302
   0.07161804  0.04836551  0.78867051
   0.44192814  0.12498817  0.56673425
   0.93482523  0.29077023  0.65572548
   0.80381679  0.20172324  0.21138894
   0.92901019  0.95028108  0.21135558
   0.94151136  0.62490757  0.56693138
   0.80838857  0.38769329  0.83347631
   0.19806171  0.62523896  0.70005254
   0.57266666  0.87558641  0.70029796
   0.68532867  0.29053708  0.65582118
   0.31287576  0.20814443  0.61144163
   0.43585920  0.46128403  0.74460340
   0.43745576  0.79220822  0.38860517
   0.68562368  0.96216190  0.74456772
   0.80375194  0.70177226  0.21142832
   0.81295295  0.70733206  0.61120312
   0.43246757  0.78054915  0.12421070
   0.31079371  0.71249046  0.74444555
   0.32141837  0.04854958  0.78857424
   0.81234500  0.54162632  0.38862124
   0.68234129  0.28826308  0.52230271
   0.69456727  0.79736072  0.78844059
   0.19007412  0.78751455  0.25557965
   0.69010371  0.11390833  0.16693410
   0.69286562  0.96054602  0.47742994
   0.94038236  0.95887358  0.34423457
   0.80771478  0.03810063  0.52229322
   0.68369075  0.62490514  0.43305452
   0.44072716  0.45952197  0.34427199
   0.81100681  0.21203830  0.74450528
   0.43792328  0.96655431  0.87589310
   0.56695062  0.87466867  0.56692084
   0.80876044  0.03576960  0.12439445
   0.42882252  0.62324544  0.29975979
   0.81532122  0.72347195  0.87594862
   0.68763297  0.45834594  0.61124214
   0.55783385  0.38715540  0.83326816
   0.80336087  0.37329857  0.29976558
   0.18715454  0.29165041  0.38854522
   0.82139252  0.54906614  0.78880859
   0.18264514  0.78813324  0.52233561
   0.30357904  0.87332650  0.29980071
   0.17942786  0.95044618  0.21133346
   0.18583401  0.46116771  0.74469854
   0.43239093  0.28794944  0.52220898
   0.06571866  0.70942652  0.34417276
   0.18474747  0.79064038  0.65580826
   0.44602708  0.79751212  0.78865441
   0.68338925  0.12505202  0.43303927
   0.93254250  0.78826208  0.52231456
   0.69004245  0.61435810  0.16694492
   0.81560147  0.70939366  0.34418567
   0.93553616  0.46197556  0.74445242
   0.19059669  0.45901839  0.34425957
   0.56975690  0.54840406  0.78879970
   0.56458277  0.36403505  0.16665996
   0.56552909  0.70929396  0.34420228
   0.55349207  0.37327524  0.29981202
   0.18927214  0.46696736  0.87582025
   0.19007207  0.11467928  0.16694908
   0.44527177  0.29809637  0.78868780
   0.68980212  0.78766546  0.25548064
   0.93272177  0.13713047  0.83345094
   0.44312068  0.96060498  0.47746180
   0.56568154  0.72219976  0.87612122
   0.19310133  0.46077371  0.47754104
   0.93236824  0.28021291  0.12411397
   0.31237762  0.04189036  0.38857008
   0.05971046  0.04062769  0.65584632
   0.55827721  0.37475884  0.43306257
   0.93355209  0.62456939  0.43308754
   0.31453230  0.36450421  0.16684455
   0.94718595  0.12493138  0.70004214
   0.56002951  0.04124735  0.65562143
   0.55734869  0.53780451  0.52223613
   0.17874316  0.12329257  0.29969344
   0.43981698  0.11436273  0.16689647
   0.67887210  0.62337262  0.29972446
   0.92849197  0.12327331  0.29972191
   0.81690350  0.37405683  0.56674448
   0.05337897  0.87330279  0.29983409
   0.19159904  0.62485257  0.56687230
   0.94583605  0.79724895  0.78855989
   0.30724180  0.38658916  0.83337767
   0.93794822  0.46583721  0.87591822
   0.43373105  0.63705507  0.83316909
   0.06551951  0.20950595  0.34421840
   0.19018051  0.96492480  0.87593250
   0.93250710  0.78042437  0.12421879
   0.68708676  0.79171830  0.38854892
   0.93464761  0.79068841  0.65583932
   0.93982745  0.11461954  0.16684747
   0.43461158  0.29031460  0.65579891
   0.05380254  0.20109634  0.21139611
   0.67910686  0.95056616  0.21132950
   0.17900275  0.62322596  0.29980224
   0.82300250  0.87524450  0.70009560
   0.94769663  0.62536072  0.70012165
   0.19780500  0.12539855  0.70011911
   0.94275717  0.46071486  0.47744222
   0.81302140  0.20751487  0.61123066
   0.18372049  0.62510336  0.43315862
   0.42863176  0.12326596  0.29981404
   0.67851867  0.12328167  0.29973339
   0.56220988  0.54198216  0.38857643
   0.81541974  0.20936911  0.34415521
   0.43839637  0.46594645  0.87593895
   0.55880952  0.88790894  0.83338893
   0.31783967  0.21041231  0.47741741
   0.19299885  0.96044608  0.47746648
   0.05848977  0.88673642  0.83336695
   0.05730331  0.53752804  0.52226573
   0.94273135  0.96063677  0.47740865
   0.06279588  0.70779096  0.61122953
   0.55761266  0.03824261  0.52235113
   0.69633714  0.29865062  0.78858954
   0.81477143  0.36449259  0.16657311
   0.43344406  0.12480175  0.43310683
   0.06777901  0.21052607  0.47748131
   0.30947137  0.04093130  0.65568556
   0.43264110  0.78823900  0.52214549
   0.18363063  0.13816929  0.83350733
   0.18256724  0.28021376  0.12417836
   0.94057051  0.45904494  0.34425067
   0.31506169  0.86452135  0.16683608
   0.30351821  0.70147923  0.21146296
   0.94035019  0.61443603  0.16689915
   0.18777822  0.45838810  0.61119038
   0.07278150  0.87586566  0.69995518
   0.05986089  0.54049904  0.65582654
   0.30885043  0.53600629  0.12445065
   0.93685184  0.79170874  0.38858596
   0.94582878  0.29788774  0.78855894
   0.18489162  0.29071014  0.65562974
   0.93779573  0.95792504  0.61136980
   0.81123659  0.71113082  0.74461697
   0.68973171  0.28741952  0.25554721
   0.06119516  0.71092324  0.74467789
   0.67893416  0.45073394  0.21130688
   0.81785346  0.21032841  0.47745799
   0.56801157  0.71056092  0.47756805
   0.06483521  0.86422634  0.16675170
   0.93253156  0.28814211  0.52226314
   0.68456001  0.79076670  0.65575857
   0.05857044  0.87483253  0.43315016
   0.06599617  0.22270062  0.87595100
   0.81025137  0.04114441  0.65574275
   0.55868139  0.03578069  0.12441498
   0.30848092  0.37515780  0.43303905
   0.31687824  0.37450381  0.56676374
   0.31778878  0.71044615  0.47745974
   0.05727063  0.03777472  0.52225637
   0.32260702  0.87511275  0.70003189
   0.06618062  0.53734796  0.25544206
   0.68366821  0.13781767  0.83353984
   0.81595104  0.03738875  0.25545146
   0.18338715  0.12493497  0.43308874
   0.69813659  0.12565181  0.70012290
   0.18238441  0.28827045  0.52226168
   0.44000883  0.78782969  0.25553379
   0.81596596  0.53702525  0.25548943
   0.06309899  0.20836481  0.61126904
   0.18709927  0.79184607  0.38855432
   0.30736172  0.53797046  0.52222098
   0.81492527  0.86367347  0.16679671
   0.68717818  0.29175485  0.38861670
   0.19123955  0.12451978  0.56683620
   0.68921645  0.96645988  0.87619710
   0.69198043  0.12510375  0.56668846
   0.44059940  0.95937688  0.34425272
   0.18569388  0.96212209  0.74455173
   0.93974002  0.78752435  0.25552934
   0.55860226  0.87503137  0.43306636
   0.30855036  0.87479214  0.43308414
   0.80765947  0.53803030  0.52218458
   0.92913688  0.45034151  0.21135779
   0.31586820  0.53746346  0.25546484
   0.56234845  0.04184103  0.38858305
   0.93777946  0.45802824  0.61128116
   0.06245576  0.04175219  0.38857118
   0.06224964  0.54204159  0.38859499
   0.43731622  0.29194799  0.38857879
   0.69305615  0.46053048  0.47747040
   0.06689736  0.37416712  0.56675229
   0.55386735  0.70153802  0.21144270
   0.94005612  0.28758416  0.25547211
   0.82091101  0.05007270  0.78859424
   0.19032624  0.95938733  0.34424244
   0.55321303  0.87334209  0.29985189
   0.05859589  0.37509676  0.43307354
   0.31542285  0.70924629  0.34419188
   0.31577359  0.20894752  0.34420014
   0.94181406  0.12495281  0.56675236
   0.43823805  0.95757906  0.61117224
   0.56605171  0.03729548  0.25546107
   0.18262319  0.78036902  0.12425124
   0.06602070  0.03723122  0.25554219
   0.69190866  0.62523035  0.56672580
   0.43998217  0.61463581  0.16699201
   0.30752972  0.03786890  0.52230739
   0.68246042  0.28025983  0.12419817
   0.81811625  0.71059469  0.47743786
   0.43406357  0.13756500  0.83356757
   0.32283842  0.37540852  0.70014658
   0.68367518  0.63801433  0.83352476
   0.56135609  0.71245245  0.74448765
   0.93712400  0.29169225  0.38853556
   0.93829649  0.96658407  0.87592184
   0.93532684  0.96147487  0.74444610
   0.81697497  0.87405732  0.56674525
   0.80353140  0.87357979  0.29980212
   0.31595521  0.03720973  0.25558850
   0.43239438  0.28040770  0.12427998
   0.31301527  0.70802697  0.61143733
   0.43356577  0.62487085  0.43311362
   0.19668343  0.29628593  0.78839226
   0.57177746  0.04908017  0.78858878
   0.07032453  0.55046779  0.78859862
   0.80692126  0.88798226  0.83429936
   0.56045508  0.21301912  0.74436057
   0.56292743  0.20645410  0.61130978
   0.56351187  0.70670935  0.61131853
Direct configuration=     2
   0.05413961  0.70174822  0.21147969
   0.31673443  0.72240411  0.87613802
   0.68787899  0.95812436  0.61125159
   0.43806413  0.45756095  0.61126398
   0.43910800  0.28752448  0.25558735
   0.05855446  0.38775059  0.83357280
   0.30809195  0.88727817  0.83346364
   0.44712338  0.62585389  0.70010498
   0.06133032  0.21138394  0.74470464
   0.17940611  0.45064101  0.21133662
   0.56726256  0.21018850  0.47752254
   0.06666966  0.87444965  0.56670770
   0.56592558  0.22345771  0.87605388
   0.80891162  0.53572487  0.12446110
   0.42959506  0.95072308  0.21131192
   0.56639376  0.37483802  0.56684325
   0.81204193  0.04193026  0.38859919
   0.68308669  0.78841759  0.52213427
   0.44243591  0.46048018  0.47750458
   0.43614461  0.96156956  0.74459259
   0.44131804  0.62495296  0.56670343
   0.05939864  0.53577668  0.12447617
   0.30879828  0.03528194  0.12450405
   0.69007579  0.95906111  0.34426620
   0.68266828  0.78078895  0.12427123
   0.05407770  0.37331604  0.29986019
   0.68828237  0.46657939  0.87588930
   0.42963710  0.45070839  0.21137396
   0.80878636  0.37494694  0.43311574
   0.82173409  0.37521304  0.70011354
   0.56066429  0.54138152  0.65551345
   0.93381358  0.12512918  0.43307207
   0.56528932  0.53736448  0.25551667
   0.69004902  0.45903601  0.34424840
   0.18964491  0.61484791  0.16689505
   0.19461521  0.79803315  0.78860285
   0.44726516  0.12550739  0.70014943
   0.92952753  0.62312909  0.29971181
   0.31656512  0.22253016  0.87611523
   0.31686481  0.87442951  0.56671884
   0.81674962  0.22233272  0.87617413
   0.81026939  0.54108650  0.65569228
   0.55878630  0.53542038  0.12446950
   0.56442362  0.86487718  0.16664847
   0.18946761  0.28761359  0.25551886
   0.80874069  0.87487755  0.43308484
   0.57219708  0.37557500  0.70016525
   0.05876822  0.03536223  0.12444595
   0.31065917  0.54111202  0.65566454
   0.56508859  0.20940598  0.34417574
   0.18811396  0.95781498  0.61133346
   0.30410820  0.37320366  0.29980416
   0.43513817  0.79071132  0.65571554
   0.68585145  0.46194482  0.74451644
   0.06443927  0.36430536  0.16666910
   0.69738114  0.62581652  0.70019525
   0.31185387  0.54190639  0.38854717
   0.06742757  0.72287896  0.87595019
   0.93396603  0.63740696  0.83352483
   0.31978372  0.54901241  0.78870531
   0.30431748  0.20144065  0.21145838
   0.06731686  0.71025436  0.47750460
   0.55430393  0.20145503  0.21144775
   0.31143122  0.21164265  0.74424992
   0.07203438  0.37550918  0.70022096
   0.18376212  0.63752474  0.83343123
   0.07094934  0.04829981  0.78869277
   0.44151844  0.12493140  0.56672220
   0.93533076  0.29085322  0.65569400
   0.80430461  0.20171206  0.21141224
   0.92950843  0.95050424  0.21135159
   0.94123772  0.62479770  0.56688370
   0.80874565  0.38756926  0.83357121
   0.19732158  0.62537329  0.70006003
   0.57199724  0.87562813  0.70029167
   0.68573455  0.29066170  0.65577439
   0.31281034  0.20801158  0.61141314
   0.43629297  0.46152765  0.74455855
   0.43736682  0.79214406  0.38860065
   0.68621220  0.96218487  0.74454020
   0.80423990  0.70167143  0.21145160
   0.81313954  0.70737300  0.61122750
   0.43266710  0.78092790  0.12427853
   0.31118134  0.71243465  0.74442221
   0.32088608  0.04851667  0.78861017
   0.81227065  0.54170212  0.38861402
   0.68292167  0.28855493  0.52226799
   0.69426741  0.79741225  0.78846538
   0.18951560  0.78745328  0.25561024
   0.68972603  0.11417458  0.16683459
   0.69232616  0.96032358  0.47748173
   0.93996541  0.95886249  0.34425468
   0.80824134  0.03831738  0.52224427
   0.68402211  0.62492604  0.43307067
   0.44023437  0.45937799  0.34428867
   0.81149322  0.21203819  0.74448873
   0.43794166  0.96709046  0.87580585
   0.56661054  0.87464731  0.56686998
   0.80889569  0.03521607  0.12444673
   0.42945450  0.62322415  0.29976491
   0.81516349  0.72283951  0.87594967
   0.68779225  0.45817090  0.61125151
   0.55811425  0.38704446  0.83337833
   0.80403124  0.37328488  0.29977210
   0.18713996  0.29171861  0.38855446
   0.82085858  0.54906460  0.78881493
   0.18315429  0.78837866  0.52229513
   0.30420420  0.87328961  0.29980633
   0.17982986  0.95059073  0.21134515
   0.18628747  0.46132825  0.74464480
   0.43294313  0.28826738  0.52218491
   0.06524345  0.70926991  0.34420234
   0.18524038  0.79066686  0.65577425
   0.44558164  0.79759986  0.78864211
   0.68378318  0.12505030  0.43305793
   0.93309986  0.78850090  0.52228063
   0.68965764  0.61450532  0.16684437
   0.81515137  0.70923582  0.34420776
   0.93607710  0.46198172  0.74444405
   0.19013323  0.45895636  0.34427596
   0.56943928  0.54844103  0.78878684
   0.56425433  0.36424958  0.16661671
   0.56510483  0.70916670  0.34422029
   0.55413472  0.37327729  0.29981115
   0.18907808  0.46742337  0.87576244
   0.18965020  0.11478450  0.16684767
   0.44485382  0.29809796  0.78865823
   0.68932402  0.78756678  0.25552834
   0.93323648  0.13699870  0.83351703
   0.44251219  0.96035818  0.47750727
   0.56559866  0.72170316  0.87604345
   0.19249916  0.46048454  0.47758214
   0.93258735  0.28065021  0.12418461
   0.31231165  0.04191955  0.38857375
   0.06022391  0.04069738  0.65578545
   0.55868975  0.37482966  0.43307061
   0.93392682  0.62467586  0.43309454
   0.31421005  0.36465594  0.16677226
   0.94658479  0.12510338  0.70005700
   0.56046963  0.04117682  0.65561127
   0.55791598  0.53822060  0.52220242
   0.17935904  0.12326511  0.29971087
   0.43947023  0.11454493  0.16680571
   0.67949499  0.62333199  0.29973588
   0.92918377  0.12323800  0.29973508
   0.81647866  0.37411986  0.56672280
   0.05403512  0.87327318  0.29983231
   0.19125461  0.62477677  0.56683359
   0.94524980  0.79734238  0.78854895
   0.30768678  0.38651588  0.83347299
   0.93809671  0.46651449  0.87584889
   0.43407882  0.63686558  0.83328251
   0.06507293  0.20932498  0.34423574
   0.18994005  0.96562319  0.87585699
   0.93271846  0.78083483  0.12427838
   0.68709127  0.79175406  0.38855207
   0.93514055  0.79076050  0.65579226
   0.93948038  0.11474181  0.16675889
   0.43512182  0.29048735  0.65576294
   0.05429544  0.20115797  0.21141999
   0.67958532  0.95071289  0.21133523
   0.17958997  0.62319355  0.29980268
   0.82229681  0.87534457  0.70010884
   0.94707463  0.62541976  0.70012893
   0.19709978  0.12549306  0.70010088
   0.94222517  0.46044266  0.47750000
   0.81319424  0.20750979  0.61124093
   0.18404904  0.62510366  0.43315574
   0.42929222  0.12324588  0.29981276
   0.67919543  0.12323352  0.29974110
   0.56218162  0.54198865  0.38858171
   0.81501161  0.20922671  0.34418688
   0.43844935  0.46665242  0.87584238
   0.55903886  0.88756855  0.83348923
   0.31727001  0.21019773  0.47746792
   0.19243236  0.96025486  0.47752310
   0.05880427  0.88663016  0.83344838
   0.05788454  0.53793740  0.52224448
   0.94219921  0.96039029  0.47746877
   0.06289565  0.70775554  0.61123802
   0.55813164  0.03856617  0.52229473
   0.69584983  0.29850257  0.78858445
   0.81437794  0.36462409  0.16653877
   0.43380630  0.12486619  0.43311152
   0.06725467  0.21028365  0.47752094
   0.31003033  0.04093256  0.65564227
   0.43316644  0.78851251  0.52213326
   0.18404084  0.13797905  0.83355346
   0.18275439  0.28065580  0.12424634
   0.94012539  0.45900463  0.34426764
   0.31463608  0.86462836  0.16676431
   0.30408469  0.70148751  0.21148469
   0.93991497  0.61454918  0.16680833
   0.18788693  0.45825449  0.61121214
   0.07206831  0.87591841  0.69998391
   0.06035022  0.54058865  0.65578047
   0.30900004  0.53542651  0.12450903
   0.93692878  0.79175788  0.38858392
   0.94532779  0.29801190  0.78856556
   0.18533496  0.29080336  0.65561924
   0.93786987  0.95790291  0.61136731
   0.81182805  0.71138827  0.74456899
   0.68925164  0.28738150  0.25557271
   0.06163850  0.71119715  0.74461919
   0.67943156  0.45081688  0.21131344
   0.81728850  0.21010935  0.47750475
   0.56743491  0.71026617  0.47759468
   0.06445865  0.86444344  0.16669309
   0.93305878  0.28841333  0.52223252
   0.68509607  0.79087580  0.65572974
   0.05891635  0.87487548  0.43313917
   0.06586796  0.22225627  0.87590411
   0.81065913  0.04110587  0.65570166
   0.55882604  0.03525408  0.12446222
   0.30885694  0.37511837  0.43305447
   0.31650269  0.37446530  0.56674145
   0.31726967  0.71023441  0.47750363
   0.05788161  0.03810981  0.52222989
   0.32188094  0.87531627  0.70005905
   0.06547601  0.53735501  0.25548718
   0.68410898  0.13761392  0.83358458
   0.81531512  0.03740474  0.25548591
   0.18376382  0.12495683  0.43309935
   0.69739393  0.12563482  0.70011882
   0.18296086  0.28848093  0.52223396
   0.43948322  0.78770569  0.25556956
   0.81531593  0.53707792  0.25551973
   0.06311253  0.20822416  0.61126878
   0.18709458  0.79188739  0.38855930
   0.30791391  0.53826714  0.52220586
   0.81452711  0.86394109  0.16672863
   0.68715977  0.29181212  0.38860669
   0.19098052  0.12447460  0.56680781
   0.68905111  0.96702470  0.87613746
   0.69157278  0.12501240  0.56668293
   0.44013921  0.95924939  0.34427456
   0.18621105  0.96206829  0.74450904
   0.93927318  0.78745306  0.25556860
   0.55895335  0.87503468  0.43307397
   0.30892347  0.87483930  0.43309289
   0.80819764  0.53828919  0.52215330
   0.92959691  0.45050276  0.21135010
   0.31526348  0.53743500  0.25550548
   0.56230010  0.04187263  0.38858085
   0.93786285  0.45795144  0.61129068
   0.06236885  0.04177358  0.38857517
   0.06220897  0.54203264  0.38859241
   0.43726062  0.29196447  0.38857844
   0.69247280  0.46028180  0.47751180
   0.06651952  0.37417681  0.56673956
   0.55434804  0.70154392  0.21146385
   0.93952400  0.28750054  0.25551791
   0.82040170  0.04985213  0.78859194
   0.18991618  0.95926716  0.34426065
   0.55392906  0.87329735  0.29984355
   0.05894268  0.37505498  0.43307430
   0.31501451  0.70915519  0.34421828
   0.31528678  0.20891185  0.34422348
   0.94146214  0.12480626  0.56674055
   0.43819371  0.95754624  0.61119161
   0.56538393  0.03730675  0.25549845
   0.18281276  0.78079170  0.12431120
   0.06537119  0.03724691  0.25556315
   0.69151823  0.62510018  0.56670516
   0.43962628  0.61472358  0.16688464
   0.30804212  0.03817341  0.52226712
   0.68266666  0.28068732  0.12425541
   0.81751362  0.71033638  0.47749050
   0.43437026  0.13747195  0.83363569
   0.32214649  0.37556659  0.70015074
   0.68409571  0.63786826  0.83358146
   0.56179360  0.71247144  0.74447313
   0.93713425  0.29173821  0.38853995
   0.93832395  0.96713727  0.87585486
   0.93586089  0.96145666  0.74441725
   0.81657459  0.87413522  0.56673238
   0.80415654  0.87348894  0.29980330
   0.31532178  0.03724286  0.25560180
   0.43257911  0.28081903  0.12432856
   0.31293229  0.70791625  0.61141458
   0.43392038  0.62491407  0.43311363
   0.19617955  0.29640529  0.78839395
   0.57131662  0.04892482  0.78859443
   0.06989937  0.55025620  0.78859751
   0.80734306  0.88778017  0.83430257
   0.56099210  0.21294785  0.74435852
   0.56298186  0.20665080  0.61130126
   0.56345665  0.70684978  0.61131671
Direct configuration=     3
   0.05579661  0.70157467  0.21153404
   0.31598917  0.72060885  0.87579979
   0.68837384  0.95774414  0.61126552
   0.43800381  0.45729757  0.61128233
   0.43787381  0.28724196  0.25568329
   0.05988342  0.38697133  0.83387167
   0.30964101  0.88676199  0.83373988
   0.44495962  0.62592585  0.70013533
   0.06262094  0.21211537  0.74452578
   0.18083513  0.45099082  0.21134005
   0.56564945  0.20943962  0.47768095
   0.06546727  0.87422381  0.56667472
   0.56517816  0.22133991  0.87582784
   0.80938366  0.53385795  0.12459932
   0.43099145  0.95110821  0.21137281
   0.56541176  0.37462178  0.56672451
   0.81217038  0.04205146  0.38858160
   0.68483844  0.78937375  0.52212096
   0.44065402  0.45956652  0.47762631
   0.43767779  0.96193630  0.74445534
   0.44020043  0.62464581  0.56667138
   0.05961151  0.53381094  0.12462490
   0.30934480  0.03360904  0.12463491
   0.68869959  0.95888239  0.34432002
   0.68328482  0.78204060  0.12445277
   0.05610356  0.37320612  0.29981288
   0.68786297  0.46862567  0.87558014
   0.43102845  0.45103957  0.21136977
   0.80991923  0.37495686  0.43312646
   0.81974711  0.37574692  0.70014361
   0.56175706  0.54108742  0.65549001
   0.93496811  0.12507693  0.43311402
   0.56345721  0.53736971  0.25560987
   0.68878206  0.45890482  0.34430792
   0.18850188  0.61511474  0.16656968
   0.19381403  0.79802240  0.78851289
   0.44518146  0.12534402  0.70007858
   0.93133249  0.62309782  0.29976861
   0.31535985  0.22082988  0.87588829
   0.31544979  0.87431544  0.56667452
   0.81606706  0.22037481  0.87586419
   0.81174080  0.54115934  0.65558522
   0.55932245  0.53372396  0.12464504
   0.56324930  0.86503751  0.16649705
   0.18784548  0.28726102  0.25565898
   0.80996920  0.87502547  0.43310602
   0.56998182  0.37587184  0.70018054
   0.05934021  0.03366817  0.12461974
   0.31200760  0.54103815  0.65554862
   0.56381389  0.20888096  0.34427890
   0.18829646  0.95782759  0.61133799
   0.30602390  0.37318247  0.29980548
   0.43666019  0.79100140  0.65560799
   0.68764339  0.46223897  0.74444237
   0.06320774  0.36483522  0.16648720
   0.69518671  0.62594040  0.70019141
   0.31217363  0.54207102  0.38858316
   0.06589320  0.72096872  0.87581052
   0.93519114  0.63730661  0.83371741
   0.31878693  0.54885403  0.78868574
   0.30582353  0.20148505  0.21153114
   0.06570472  0.70955445  0.47767242
   0.55578904  0.20157044  0.21151138
   0.31297916  0.21177826  0.74429467
   0.06993133  0.37564227  0.70022737
   0.18508790  0.63653515  0.83360586
   0.06894323  0.04810270  0.78875953
   0.44028934  0.12476109  0.56668605
   0.93684733  0.29110221  0.65559956
   0.80576808  0.20167853  0.21148211
   0.93100314  0.95117372  0.21133961
   0.94041681  0.62446806  0.56674065
   0.80981690  0.38719715  0.83385589
   0.19510121  0.62577628  0.70008250
   0.56998898  0.87575328  0.70027278
   0.68695218  0.29103555  0.65563399
   0.31261408  0.20761303  0.61132768
   0.43759429  0.46225849  0.74442398
   0.43710001  0.79195157  0.38858708
   0.68797778  0.96225379  0.74445764
   0.80570375  0.70136895  0.21152145
   0.81369931  0.70749583  0.61130061
   0.43326568  0.78206416  0.12448201
   0.31234421  0.71226725  0.74435218
   0.31928921  0.04841797  0.78871796
   0.81204762  0.54192952  0.38859236
   0.68466282  0.28943049  0.52216383
   0.69336785  0.79756685  0.78853976
   0.18784004  0.78726947  0.25570200
   0.68859300  0.11497331  0.16653603
   0.69070775  0.95965624  0.47763711
   0.93871456  0.95882921  0.34431502
   0.80982102  0.03896763  0.52209740
   0.68501621  0.62498876  0.43311912
   0.43875600  0.45894604  0.34433870
   0.81295246  0.21203787  0.74443905
   0.43799681  0.96869892  0.87554410
   0.56559030  0.87458322  0.56671739
   0.80930144  0.03355547  0.12460357
   0.43135047  0.62316031  0.29978026
   0.81469029  0.72094219  0.87595280
   0.68827009  0.45764579  0.61127962
   0.55895548  0.38671165  0.83370884
   0.80604235  0.37324380  0.29979167
   0.18709621  0.29192319  0.38858217
   0.81925676  0.54905997  0.78883397
   0.18468174  0.78911493  0.52217369
   0.30607970  0.87317892  0.29982319
   0.18103587  0.95102441  0.21138021
   0.18764785  0.46180987  0.74448359
   0.43459970  0.28922120  0.52211273
   0.06381785  0.70880010  0.34429110
   0.18671914  0.79074629  0.65567222
   0.44424530  0.79786307  0.78860522
   0.68496497  0.12504516  0.43311390
   0.93477196  0.78921735  0.52217883
   0.68850321  0.61494697  0.16654271
   0.81380108  0.70876231  0.34427405
   0.93769994  0.46200019  0.74441892
   0.18874286  0.45877028  0.34432514
   0.56848640  0.54855193  0.78874826
   0.56326901  0.36489316  0.16648695
   0.56383206  0.70878492  0.34427431
   0.55606267  0.37328341  0.29980857
   0.18849592  0.46879141  0.87558904
   0.18838458  0.11510016  0.16654344
   0.44359996  0.29810273  0.78856950
   0.68788973  0.78727075  0.25567143
   0.93478062  0.13660340  0.83371531
   0.44068674  0.95961778  0.47764367
   0.56535000  0.72021336  0.87581016
   0.19069264  0.45961704  0.47770545
   0.93324469  0.28196211  0.12439655
   0.31211373  0.04200715  0.38858476
   0.06176428  0.04090646  0.65560283
   0.55992736  0.37504213  0.43309473
   0.93505100  0.62499525  0.43311554
   0.31324327  0.36511115  0.16655539
   0.94478131  0.12561940  0.70010159
   0.56179002  0.04096523  0.65558076
   0.55961785  0.53946889  0.52210130
   0.18120670  0.12318276  0.29976317
   0.43842996  0.11509153  0.16653343
   0.68136366  0.62321008  0.29977015
   0.93125917  0.12313206  0.29977458
   0.81520415  0.37430894  0.56665777
   0.05600356  0.87318435  0.29982695
   0.19022131  0.62454936  0.56671746
   0.94349105  0.79762266  0.78851613
   0.30902174  0.38629604  0.83375895
   0.93854219  0.46854633  0.87564089
   0.43512212  0.63629709  0.83362278
   0.06373319  0.20878208  0.34428777
   0.18921866  0.96771836  0.87563045
   0.93335255  0.78206621  0.12445715
   0.68710478  0.79186134  0.38856151
   0.93661937  0.79097679  0.65565109
   0.93843916  0.11510859  0.16649317
   0.43665255  0.29100561  0.65565502
   0.05577413  0.20134284  0.21149164
   0.68102072  0.95115308  0.21135242
   0.18135164  0.62309633  0.29980400
   0.82017974  0.87564476  0.70014854
   0.94520862  0.62559686  0.70015078
   0.19498414  0.12577662  0.70004621
   0.94062918  0.45962603  0.47767335
   0.81371275  0.20749454  0.61127172
   0.18503468  0.62510454  0.43314712
   0.43127360  0.12318563  0.29980894
   0.68122571  0.12308909  0.29976422
   0.56209683  0.54200815  0.38859755
   0.81378722  0.20879953  0.34428190
   0.43860829  0.46877032  0.87555268
   0.55972685  0.88654736  0.83379013
   0.31556102  0.20955400  0.47761947
   0.19073291  0.95968119  0.47769298
   0.05974776  0.88631136  0.83369267
   0.05962823  0.53916547  0.52218075
   0.94060281  0.95965086  0.47764914
   0.06319496  0.70764929  0.61126347
   0.55968860  0.03953685  0.52212555
   0.69438789  0.29805845  0.78856918
   0.81319745  0.36501857  0.16643577
   0.43489301  0.12505950  0.43312557
   0.06568165  0.20955637  0.47763982
   0.31170719  0.04093634  0.65551238
   0.43474245  0.78933303  0.52209654
   0.18527148  0.13740832  0.83369187
   0.18331583  0.28198193  0.12445025
   0.93879003  0.45888372  0.34431856
   0.31335925  0.86494938  0.16654900
   0.30578414  0.70151235  0.21154989
   0.93860932  0.61488860  0.16653588
   0.18821307  0.45785367  0.61127742
   0.06992874  0.87607666  0.70007011
   0.06181822  0.54085748  0.65564226
   0.30944887  0.53368716  0.12468416
   0.93715958  0.79190531  0.38857779
   0.94382484  0.29838436  0.78858544
   0.18666497  0.29108303  0.65558774
   0.93809229  0.95783653  0.61135986
   0.81360242  0.71216060  0.74442504
   0.68781143  0.28726743  0.25564921
   0.06296850  0.71201887  0.74444309
   0.68092377  0.45106571  0.21133312
   0.81559362  0.20945216  0.47764503