       N       E                     dE             d eps       ncg     rms          rms(c)
DAV:   1     0.303371198517E+05    0.30337E+05   -0.91523E+05 13790   0.214E+03
DAV:   2     0.156398877555E+04   -0.28773E+05   -0.28195E+05 13700   0.619E+02
DAV:   3    -0.188233742468E+04   -0.34463E+04   -0.30081E+04 19110   0.300E+02
DAV:   4    -0.260980085596E+04   -0.72746E+03   -0.66397E+03 25130   0.105E+02
DAV:   5    -0.274321705053E+04   -0.13342E+03   -0.12490E+03 23960   0.431E+01    0.207E+02
RMM:   6    -0.627495522985E+04   -0.35317E+04   -0.13288E+04 23959   0.261E+02    0.692E+02
RMM:   7    -0.439006567874E+04    0.18849E+04   -0.41484E+03 24670   0.105E+02    0.423E+02
RMM:   8    -0.112227942049E+05   -0.68327E+04   -0.25439E+04 23479   0.377E+02    0.111E+03
RMM:   9    -0.125706978711E+05   -0.13479E+04   -0.20402E+04 24793   0.186E+02    0.993E+02
RMM:  10    -0.124184137059E+05    0.15228E+03   -0.96285E+03 24577   0.190E+02    0.857E+02
RMM:  11    -0.929881225094E+04    0.31196E+04   -0.10128E+04 21420   0.206E+02    0.684E+02
RMM:  12    -0.758584153968E+04    0.17130E+04   -0.55601E+03 16443   0.194E+02    0.550E+02
RMM:  13    -0.491685821348E+04    0.26690E+04   -0.39108E+03 15008   0.125E+02    0.441E+02
RMM:  14    -0.449193762346E+04    0.42492E+03   -0.24409E+03 15259   0.101E+02    0.427E+02
RMM:  15    -0.395783287545E+04    0.53410E+03   -0.16163E+03 13755   0.887E+01    0.392E+02
RMM:  16    -0.216949376653E+04    0.17883E+04   -0.18900E+03 21275   0.104E+02    0.252E+02
RMM:  17    -0.248601820557E+04   -0.31652E+03   -0.21053E+03 24206   0.504E+01    0.242E+02
RMM:  18    -0.285707523733E+04   -0.37106E+03   -0.14713E+03 18904   0.631E+01    0.266E+02
RMM:  19    -0.226400750560E+04    0.59307E+03   -0.84015E+02 24460   0.475E+01    0.177E+02
RMM:  20    -0.218042644934E+04    0.83581E+02   -0.52131E+02 24822   0.404E+01    0.113E+02
RMM:  21    -0.233678509941E+04   -0.15636E+03   -0.35013E+02 24806   0.384E+01    0.171E+02
RMM:  22    -0.226959543156E+04    0.67190E+02   -0.47695E+02 25185   0.227E+01    0.108E+02
RMM:  23    -0.228009013294E+04   -0.10495E+02   -0.17329E+02 24341   0.227E+01    0.104E+02
RMM:  24    -0.228774028056E+04   -0.76501E+01   -0.13139E+02 24227   0.173E+01    0.953E+01
RMM:  25    -0.230832782032E+04   -0.20588E+02   -0.15142E+02 25097   0.153E+01    0.105E+02
RMM:  26    -0.232045884015E+04   -0.12131E+02   -0.31450E+02 24567   0.134E+01    0.991E+01
RMM:  27    -0.231631435147E+04    0.41445E+01   -0.31399E+02 24949   0.120E+01    0.849E+01
RMM:  28    -0.231069571250E+04    0.56186E+01   -0.32263E+02 23789   0.127E+01    0.734E+01
RMM:  29    -0.230882732206E+04    0.18684E+01   -0.31801E+02 23604   0.117E+01    0.596E+01
RMM:  30    -0.231848283516E+04   -0.96555E+01   -0.24919E+02 22515   0.103E+01    0.498E+01
RMM:  31    -0.233378387870E+04   -0.15301E+02   -0.20191E+02 23067   0.769E+00    0.446E+01
RMM:  32    -0.233310925836E+04    0.67462E+00   -0.10168E+02 22437   0.568E+00    0.432E+01
RMM:  33    -0.233464059047E+04   -0.15313E+01   -0.56971E+01 21529   0.392E+00    0.400E+01
RMM:  34    -0.233629358566E+04   -0.16530E+01   -0.27771E+01 21191   0.309E+00    0.402E+01
RMM:  35    -0.234239158034E+04   -0.60980E+01   -0.15471E+01 17035   0.392E+00    0.495E+01
RMM:  36    -0.234133708106E+04    0.10545E+01   -0.11071E+01 22387   0.153E+00    0.467E+01
RMM:  37    -0.234178044401E+04   -0.44336E+00   -0.39358E+00 16653   0.165E+00    0.470E+01
RMM:  38    -0.234084736676E+04    0.93308E+00   -0.35749E+00 16849   0.222E+00    0.443E+01
RMM:  39    -0.234218103342E+04   -0.13337E+01   -0.45647E+00 15593   0.319E+00    0.462E+01
RMM:  40    -0.234004145121E+04    0.21396E+01   -0.49752E+00 17803   0.270E+00    0.419E+01
RMM:  41    -0.233765122218E+04    0.23902E+01   -0.25178E+00 15644   0.231E+00    0.377E+01
RMM:  42    -0.233639433561E+04    0.12569E+01   -0.35975E+00 15689   0.294E+00    0.345E+01
RMM:  43    -0.233558387747E+04    0.81046E+00   -0.23237E+00 16486   0.222E+00    0.330E+01
RMM:  44    -0.233592120046E+04   -0.33732E+00   -0.18023E+00 17754   0.166E+00    0.335E+01
RMM:  45    -0.233522472602E+04    0.69647E+00   -0.11213E+00 16071   0.148E+00    0.309E+01
RMM:  46    -0.233552045244E+04   -0.29573E+00   -0.97268E-01 16994   0.128E+00    0.320E+01
RMM:  47    -0.233733090424E+04   -0.18105E+01   -0.12891E+00 16934   0.159E+00    0.368E+01
RMM:  48    -0.233503343828E+04    0.22975E+01   -0.15521E+00 18116   0.148E+00    0.312E+01
RMM:  49    -0.233288825684E+04    0.21452E+01   -0.13051E+00 15795   0.171E+00    0.248E+01
RMM:  50    -0.233165542944E+04    0.12328E+01   -0.17822E+00 21174   0.105E+00    0.192E+01
RMM:  51    -0.237167302488E+04   -0.40018E+02   -0.52274E+01 16233   0.822E+00    0.694E+01
RMM:  52    -0.234318179830E+04    0.28491E+02   -0.13244E+01 13777   0.763E+00    0.453E+01
RMM:  53    -0.242528443295E+04   -0.82103E+02   -0.31011E+01 15653   0.810E+00    0.121E+02
RMM:  54    -0.245565978056E+04   -0.30375E+02   -0.39811E+01 19626   0.610E+00    0.139E+02
RMM:  55    -0.241886638849E+04    0.36793E+02   -0.90864E+00 14819   0.559E+00    0.115E+02
RMM:  56    -0.237258426016E+04    0.46282E+02   -0.13208E+01 14258   0.719E+00    0.843E+01
RMM:  57    -0.234657251022E+04    0.26012E+02   -0.86467E+00 13890   0.577E+00    0.549E+01
RMM:  58    -0.234570594790E+04    0.86656E+00   -0.87676E+00 14434   0.556E+00    0.536E+01
RMM:  59    -0.233733426376E+04    0.83717E+01   -0.75324E+00 14989   0.458E+00    0.359E+01
RMM:  60    -0.233932737924E+04   -0.19931E+01   -0.38978E+00 14297   0.384E+00    0.402E+01
RMM:  61    -0.236537627455E+04   -0.26049E+02   -0.71608E+00 14350   0.534E+00    0.745E+01
RMM:  62    -0.233581336970E+04    0.29563E+02   -0.37756E+00 13725   0.441E+00    0.311E+01
RMM:  63    -0.233231269312E+04    0.35007E+01   -0.45934E+00 16051   0.290E+00    0.196E+01
RMM:  64    -0.233243976006E+04   -0.12707E+00   -0.41372E+00 18025   0.240E+00    0.193E+01
RMM:  65    -0.233201233859E+04    0.42742E+00   -0.12138E+00 14296   0.220E+00    0.170E+01
RMM:  66    -0.233169582780E+04    0.31651E+00   -0.19062E+00 16844   0.186E+00    0.147E+01
RMM:  67    -0.233113417759E+04    0.56165E+00   -0.87552E-01 14755   0.173E+00    0.100E+01
RMM:  68    -0.233117763604E+04   -0.43458E-01   -0.80327E-01 15444   0.142E+00    0.102E+01
RMM:  69    -0.233145410096E+04   -0.27646E+00   -0.11007E+00 16789   0.125E+00    0.116E+01
RMM:  70    -0.233145912882E+04   -0.50279E-02   -0.11596E+00 18396   0.111E+00    0.109E+01
RMM:  71    -0.233093225308E+04    0.52688E+00   -0.42085E-01 14558   0.124E+00    0.621E+00
RMM:  72    -0.233090031653E+04    0.31937E-01   -0.18790E-01 14334   0.988E-01    0.561E+00
RMM:  73    -0.233087949993E+04    0.20817E-01   -0.23290E-01 17013   0.563E-01    0.510E+00
RMM:  74    -0.233083996185E+04    0.39538E-01   -0.95434E-02 15383   0.486E-01    0.444E+00
RMM:  75    -0.233081924526E+04    0.20717E-01   -0.71610E-02 15949   0.387E-01    0.407E+00
RMM:  76    -0.233094408973E+04   -0.12484E+00   -0.19337E-01 14448   0.820E-01    0.659E+00
RMM:  77    -0.233077722264E+04    0.16687E+00   -0.67737E-02 13875   0.641E-01    0.364E+00
RMM:  78    -0.233074468838E+04    0.32534E-01   -0.52570E-02 16196   0.322E-01    0.258E+00
RMM:  79    -0.233073692979E+04    0.77586E-02   -0.24166E-02 14777   0.284E-01    0.221E+00
RMM:  80    -0.233072853547E+04    0.83943E-02   -0.17904E-02 14571   0.256E-01    0.169E+00
RMM:  81    -0.233086436927E+04   -0.13583E+00   -0.83394E-02 14030   0.588E-01    0.521E+00
RMM:  82    -0.233076230271E+04    0.10207E+00   -0.36464E-02 13772   0.494E-01    0.296E+00
RMM:  83    -0.233073473293E+04    0.27570E-01   -0.17974E-02 14124   0.309E-01    0.193E+00
RMM:  84    -0.233072710009E+04    0.76328E-02   -0.14005E-02 14358   0.248E-01    0.152E+00
RMM:  85    -0.233072838006E+04   -0.12800E-02   -0.19442E-02 15360   0.224E-01    0.151E+00
RMM:  86    -0.233074859962E+04   -0.20220E-01   -0.65243E-02 15000   0.432E-01    0.231E+00
RMM:  87    -0.233072217983E+04    0.26420E-01   -0.17752E-02 13780   0.340E-01    0.933E-01
RMM:  88    -0.233072008075E+04    0.20991E-02   -0.87619E-03 14951   0.167E-01    0.746E-01
RMM:  89    -0.233071927310E+04    0.80765E-03   -0.57788E-03 15130   0.129E-01    0.606E-01
RMM:  90    -0.233071917495E+04    0.98146E-04   -0.51870E-03 16098   0.106E-01    0.554E-01
RMM:  91    -0.233071922030E+04   -0.45345E-04   -0.37795E-03 14831   0.111E-01    0.538E-01
RMM:  92    -0.233071844663E+04    0.77367E-03   -0.18610E-03 14255   0.933E-02    0.373E-01
RMM:  93    -0.233071907684E+04   -0.63021E-03   -0.32655E-03 17375   0.685E-02    0.465E-01
RMM:  94    -0.233071840049E+04    0.67635E-03   -0.10626E-03 15074   0.559E-02    0.304E-01
RMM:  95    -0.233071816993E+04    0.23056E-03   -0.90189E-04 16808   0.401E-02    0.219E-01
RMM:  96    -0.233071820924E+04   -0.39311E-04   -0.74261E-04 14589   0.518E-02    0.234E-01
RMM:  97    -0.233071806531E+04    0.14394E-03   -0.42565E-04 14177   0.466E-02    0.159E-01
RMM:  98    -0.233071805589E+04    0.94188E-05   -0.37469E-04 15335   0.285E-02    0.142E-01
RMM:  99    -0.233071808268E+04   -0.26795E-04   -0.30185E-04 16169   0.182E-02    0.148E-01
RMM: 100    -0.233071802462E+04    0.58068E-04   -0.14253E-04 14055   0.177E-02    0.105E-01
RMM: 101    -0.233071801672E+04    0.78910E-05   -0.10836E-04 13383   0.198E-02    0.960E-02
RMM: 102    -0.233071800966E+04    0.70618E-05   -0.74404E-05 11280   0.166E-02
   1 F= -.23307180E+04 E0= -.23280082E+04  d E =-.233072E+04
       N       E                     dE             d eps       ncg     rms          rms(c)
DAV:   1    -0.233071839512E+04   -0.37840E-03   -0.92937E-02 15220   0.324E-01    0.920E-02
RMM:   2    -0.233099647487E+04   -0.27808E+00   -0.15812E-02 15674   0.181E-01    0.716E+00
RMM:   3    -0.233073728141E+04    0.25919E+00   -0.54921E-03 13873   0.152E-01    0.137E+00
RMM:   4    -0.233073931740E+04   -0.20360E-02   -0.44464E-03 13743   0.153E-01    0.191E+00
RMM:   5    -0.233074114289E+04   -0.18255E-02   -0.55265E-03 15292   0.111E-01    0.193E+00
RMM:   6    -0.233073062734E+04    0.10516E-01   -0.91634E-03 14808   0.158E-01    0.148E+00
RMM:   7    -0.233073117535E+04   -0.54801E-03   -0.85357E-03 15298   0.150E-01    0.149E+00
RMM:   8    -0.233071958685E+04    0.11588E-01   -0.31806E-03 13701   0.142E-01    0.377E-01
RMM:   9    -0.233071874502E+04    0.84183E-03   -0.11189E-03 13952   0.720E-02    0.245E-01
RMM:  10    -0.233071871438E+04    0.30644E-04   -0.96015E-04 15868   0.429E-02    0.219E-01
RMM:  11    -0.233071862575E+04    0.88625E-04   -0.65288E-04 14946   0.420E-02    0.161E-01
RMM:  12    -0.233071851520E+04    0.11055E-03   -0.22963E-04 13866   0.309E-02    0.914E-02
RMM:  13    -0.233071849821E+04    0.16986E-04   -0.19564E-04 14020   0.150E-02    0.632E-02
RMM:  14    -0.233071849039E+04    0.78205E-05   -0.48349E-05 10253   0.104E-02
   2 F= -.23307185E+04 E0= -.23280086E+04  d E =-.480731E-03
       N       E                     dE             d eps       ncg     rms          rms(c)
DAV:   1    -0.233071843951E+04    0.58704E-04   -0.83622E-01 14680   0.967E-01    0.157E-01
RMM:   2    -0.233075761290E+04   -0.39173E-01   -0.17667E-02 13999   0.268E-01    0.263E+00
RMM:   3    -0.233073958212E+04    0.18031E-01   -0.93554E-03 20276   0.964E-02    0.187E+00
RMM:   4    -0.233072948718E+04    0.10095E-01   -0.29786E-03 13738   0.119E-01    0.135E+00
RMM:   5    -0.233073018091E+04   -0.69372E-03   -0.29909E-03 16069   0.832E-02    0.135E+00
RMM:   6    -0.233072216380E+04    0.80171E-02   -0.28405E-03 16554   0.786E-02    0.701E-01
RMM:   7    -0.233072897718E+04   -0.68134E-02   -0.61482E-03 15687   0.114E-01    0.131E+00
RMM:   8    -0.233072137400E+04    0.76032E-02   -0.28988E-03 13978   0.108E-01    0.555E-01
RMM:   9    -0.233071994069E+04    0.14333E-02   -0.11284E-03 13717   0.804E-02    0.332E-01
RMM:  10    -0.233071964891E+04    0.29178E-03   -0.73050E-04 15176   0.430E-02    0.247E-01
RMM:  11    -0.233071961511E+04    0.33797E-04   -0.65968E-04 14959   0.426E-02    0.229E-01
RMM:  12    -0.233071949559E+04    0.11953E-03   -0.43362E-04 14425   0.376E-02    0.166E-01
RMM:  13    -0.233071937021E+04    0.12538E-03   -0.17577E-04 13571   0.305E-02    0.943E-02
RMM:  14    -0.233071935805E+04    0.12159E-04   -0.14805E-04 13876   0.169E-02    0.803E-02
RMM:  15    -0.233071935113E+04    0.69124E-05   -0.10283E-04 13067   0.164E-02    0.669E-02
RMM:  16    -0.233071932994E+04    0.21193E-04   -0.34401E-05  9178   0.138E-02    0.293E-02
RMM:  17    -0.233071932756E+04    0.23774E-05   -0.16424E-05  8335   0.781E-03
   3 F= -.23307193E+04 E0= -.23280101E+04  d E =-.131790E-02
       N       E                     dE             d eps       ncg     rms          rms(c)
DAV:   1    -0.233071955482E+04   -0.22488E-03   -0.12004E-01 14580   0.366E-01    0.571E-02
RMM:   2    -0.233072345552E+04   -0.39007E-02   -0.22711E-03 13863   0.983E-02    0.838E-01
RMM:   3    -0.233072189607E+04    0.15594E-02   -0.10086E-03 19561   0.342E-02    0.614E-01
RMM:   4    -0.233072309382E+04   -0.11977E-02   -0.36801E-04 13806   0.374E-02    0.779E-01
RMM:   5    -0.233072047534E+04    0.26185E-02   -0.29572E-04 13766   0.336E-02    0.346E-01
RMM:   6    -0.233072011002E+04    0.36532E-03   -0.36821E-04 14421   0.344E-02    0.283E-01
RMM:   7    -0.233072127957E+04   -0.11695E-02   -0.11173E-03 17992   0.408E-02    0.537E-01
RMM:   8    -0.233071992073E+04    0.13588E-02   -0.38631E-04 13602   0.408E-02    0.190E-01
RMM:   9    -0.233071975582E+04    0.16491E-03   -0.16753E-04 13534   0.298E-02    0.120E-01
RMM:  10    -0.233071972985E+04    0.25975E-04   -0.10817E-04 12872   0.150E-02    0.100E-01
RMM:  11    -0.233071973022E+04   -0.37428E-06   -0.68138E-05 11399   0.141E-02
   4 F= -.23307197E+04 E0= -.23280103E+04  d E =-.402659E-03
       N       E                     dE             d eps       ncg     rms          rms(c)
DAV:   1    -0.233071922496E+04    0.50489E-03   -0.10803E+00 14060   0.110E+00    0.173E-01
RMM:   2    -0.233073045515E+04   -0.11230E-01   -0.20113E-02 13815   0.301E-01    0.138E+00
RMM:   3    -0.233076153440E+04   -0.31079E-01   -0.87279E-03 19607   0.116E-01    0.271E+00
RMM:   4    -0.233073513920E+04    0.26395E-01   -0.22846E-03 13726   0.101E-01    0.161E+00
RMM:   5    -0.233072725637E+04    0.78828E-02   -0.23596E-03 15522   0.762E-02    0.106E+00
RMM:   6    -0.233072614908E+04    0.11073E-02   -0.32512E-03 13918   0.109E-01    0.995E-01
RMM:   7    -0.233072984132E+04   -0.36922E-02   -0.60085E-03 16294   0.116E-01    0.134E+00
RMM:   8    -0.233072569235E+04    0.41490E-02   -0.37739E-03 14436   0.110E-01    0.924E-01
RMM:   9    -0.233072127853E+04    0.44138E-02   -0.18666E-03 13708   0.100E-01    0.403E-01
RMM:  10    -0.233072051476E+04    0.76377E-03   -0.88037E-04 14921   0.491E-02    0.222E-01
RMM:  11    -0.233072060494E+04   -0.90178E-04   -0.80718E-04 15378   0.459E-02    0.255E-01
RMM:  12    -0.233072047798E+04    0.12696E-03   -0.67032E-04 15004   0.427E-02    0.190E-01
RMM:  13    -0.233072029219E+04    0.18579E-03   -0.22027E-04 13593   0.334E-02    0.851E-02
RMM:  14    -0.233072027655E+04    0.15648E-04   -0.16753E-04 14914   0.170E-02    0.603E-02
RMM:  15    -0.233072027990E+04   -0.33553E-05   -0.91412E-05 12786   0.167E-02
   5 F= -.23307203E+04 E0= -.23280113E+04  d E =-.952339E-03
       N       E                     dE             d eps       ncg     rms          rms(c)
DAV:   1    -0.233072040745E+04   -0.13091E-03   -0.15385E-01 14200   0.414E-01    0.731E-02
RMM:   2    -0.233073617965E+04   -0.15772E-01   -0.41957E-03 13904   0.137E-01    0.167E+00
RMM:   3    -0.233072493781E+04    0.11242E-01   -0.18887E-03 19318   0.495E-02    0.854E-01
RMM:   4    -0.233072238331E+04    0.25545E-02   -0.94169E-04 13684   0.693E-02    0.532E-01
RMM:   5    -0.233072382979E+04   -0.14465E-02   -0.10086E-03 17864   0.386E-02    0.772E-01
RMM:   6    -0.233072165053E+04    0.21793E-02   -0.75803E-04 13753   0.541E-02    0.438E-01
RMM:   7    -0.233072195338E+04   -0.30285E-03   -0.14877E-03 17750   0.506E-02    0.509E-01
RMM:   8    -0.233072218687E+04   -0.23348E-03   -0.93742E-04 14725   0.505E-02    0.519E-01
RMM:   9    -0.233072083642E+04    0.13505E-02   -0.42955E-04 13654   0.479E-02    0.214E-01
RMM:  10    -0.233072059703E+04    0.23939E-03   -0.19338E-04 13658   0.305E-02    0.938E-02
RMM:  11    -0.233072059840E+04   -0.13731E-05   -0.20016E-04 15734   0.181E-02    0.901E-02
RMM:  12    -0.233072058294E+04    0.15457E-04   -0.11967E-04 13624   0.172E-02    0.690E-02
RMM:  13    -0.233072056431E+04    0.18629E-04   -0.41617E-05  9646   0.142E-02    0.427E-02
RMM:  14    -0.233072056027E+04    0.40386E-05   -0.21329E-05  7786   0.959E-03
   6 F= -.23307206E+04 E0= -.23280116E+04  d E =-.280371E-03
       N       E                     dE             d eps       ncg     rms          rms(c)
DAV:   1    -0.233071992081E+04    0.64350E-03   -0.13854E+00 13840   0.124E+00    0.173E-01
RMM:   2    -0.233074035566E+04   -0.20435E-01   -0.20322E-02 13940   0.309E-01    0.191E+00
RMM:   3    -0.233073105516E+04    0.93005E-02   -0.60737E-03 19289   0.100E-01    0.127E+00
RMM:   4    -0.233072425258E+04    0.68026E-02   -0.20201E-03 13703   0.100E-01    0.726E-01
RMM:   5    -0.233073708824E+04   -0.12836E-01   -0.32489E-03 16410   0.812E-02    0.173E+00
RMM:   6    -0.233073505403E+04    0.20342E-02   -0.41607E-03 19799   0.671E-02    0.154E+00
RMM:   7    -0.233073283104E+04    0.22230E-02   -0.55322E-03 14558   0.127E-01    0.142E+00
RMM:   8    -0.233072389223E+04    0.89388E-02   -0.26880E-03 13710   0.114E-01    0.644E-01
RMM:   9    -0.233072164495E+04    0.22473E-02   -0.11857E-03 13707   0.836E-02    0.309E-01
RMM:  10    -0.233072139352E+04    0.25144E-03   -0.74314E-04 13828   0.551E-02    0.241E-01
RMM:  11    -0.233072145431E+04   -0.60790E-04   -0.10702E-03 14932   0.542E-02    0.239E-01
RMM:  12    -0.233072124457E+04    0.20974E-03   -0.43666E-04 13824   0.424E-02    0.150E-01
RMM:  13    -0.233072114418E+04    0.10039E-03   -0.26633E-04 14593   0.274E-02    0.737E-02
RMM:  14    -0.233072114216E+04    0.20219E-05   -0.20356E-04 15193   0.139E-02    0.596E-02
RMM:  15    -0.233072113748E+04    0.46822E-05   -0.51875E-05 10637   0.138E-02
   7 F= -.23307211E+04 E0= -.23280121E+04  d E =-.857579E-03
       N       E                     dE             d eps       ncg     rms          rms(c)
DAV:   1    -0.233072125776E+04   -0.11560E-03   -0.10834E-01 14080   0.348E-01    0.635E-02
RMM:   2    -0.233072320717E+04   -0.19494E-02   -0.28233E-03 13728   0.117E-01    0.578E-01
RMM:   3    -0.233072717201E+04   -0.39648E-02   -0.14891E-03 19425   0.472E-02    0.101E+00
RMM:   4    -0.233072358093E+04    0.35911E-02   -0.46061E-04 13676   0.488E-02    0.622E-01
RMM:   5    -0.233072227394E+04    0.13070E-02   -0.42544E-04 18193   0.249E-02    0.383E-01
RMM:   6    -0.233072205890E+04    0.21504E-03   -0.31146E-04 13695   0.337E-02    0.347E-01
RMM:   7    -0.233072221583E+04   -0.15693E-03   -0.67274E-04 14870   0.429E-02    0.385E-01
RMM:   8    -0.233072189971E+04    0.31612E-03   -0.57436E-04 15739   0.381E-02    0.295E-01
RMM:   9    -0.233072142704E+04    0.47268E-03   -0.21807E-04 13598   0.361E-02    0.100E-01
RMM:  10    -0.233072138448E+04    0.42553E-04   -0.85409E-05 12084   0.162E-02    0.607E-02
RMM:  11    -0.233072139246E+04   -0.79751E-05   -0.58127E-05 10864   0.132E-02
   8 F= -.23307214E+04 E0= -.23280123E+04  d E =-.254977E-03
       N       E                     dE             d eps       ncg     rms          rms(c)
DAV:   1    -0.233072121170E+04    0.17278E-03   -0.33807E-01 13900   0.615E-01    0.116E-01
RMM:   2    -0.233072958879E+04   -0.83771E-02   -0.88574E-03 14000   0.189E-01    0.121E+00
RMM:   3    -0.233075171942E+04   -0.22131E-01   -0.54300E-03 20274   0.734E-02    0.234E+00
RMM:   4    -0.233072414299E+04    0.27576E-01   -0.19481E-03 13702   0.997E-02    0.575E-01
RMM:   5    -0.233072927804E+04   -0.51350E-02   -0.16469E-03 14417   0.720E-02    0.119E+00
RMM:   6    -0.233072520216E+04    0.40759E-02   -0.22866E-03 18517   0.602E-02    0.759E-01
RMM:   7    -0.233072542437E+04   -0.22221E-03   -0.25429E-03 14691   0.854E-02    0.852E-01
RMM:   8    -0.233072424133E+04    0.11830E-02   -0.26453E-03 17176   0.702E-02    0.681E-01
RMM:   9    -0.233072198036E+04    0.22610E-02   -0.10744E-03 13697   0.749E-02    0.273E-01
RMM:  10    -0.233072166225E+04    0.31811E-03   -0.60759E-04 16333   0.350E-02    0.167E-01
RMM:  11    -0.233072166660E+04   -0.43567E-05   -0.44965E-04 15229   0.339E-02    0.168E-01
RMM:  12    -0.233072168382E+04   -0.17212E-04   -0.50045E-04 16249   0.311E-02    0.164E-01
RMM:  13    -0.233072155918E+04    0.12464E-03   -0.12996E-04 13134   0.245E-02    0.790E-02
RMM:  14    -0.233072153186E+04    0.27318E-04   -0.69251E-05 11387   0.141E-02    0.423E-02
RMM:  15    -0.233072153835E+04   -0.64864E-05   -0.55435E-05 10765   0.134E-02
   9 F= -.23307215E+04 E0= -.23280125E+04  d E =-.400868E-03
       N       E                     dE             d eps       ncg     rms          rms(c)
DAV:   1    -0.233072162075E+04   -0.88889E-04   -0.53443E-02 14040   0.244E-01    0.469E-02
RMM:   2    -0.233074065560E+04   -0.19035E-01   -0.18996E-03 14041   0.876E-02    0.185E+00
RMM:   3    -0.233072299738E+04    0.17658E-01   -0.72219E-04 16471   0.431E-02    0.367E-01
RMM:   4    -0.233072358821E+04   -0.59083E-03   -0.60654E-04 13690   0.568E-02    0.580E-01
RMM:   5    -0.233072337865E+04    0.20956E-03   -0.60093E-04 17572   0.320E-02    0.542E-01
RMM:   6    -0.233072305862E+04    0.32003E-03   -0.52362E-04 14482   0.404E-02    0.503E-01
RMM:   7    -0.233072227102E+04    0.78760E-03   -0.64437E-04 14613   0.447E-02    0.318E-01
RMM:   8    -0.233072187928E+04    0.39174E-03   -0.30097E-04 13608   0.411E-02    0.185E-01
RMM:   9    -0.233072169158E+04    0.18770E-03   -0.13365E-04 13424   0.290E-02    0.520E-02
RMM:  10    -0.233072169642E+04   -0.48468E-05   -0.73276E-05 11072   0.141E-02
  10 F= -.23307217E+04 E0= -.23280128E+04  d E =-.158076E-03
       N       E                     dE             d eps       ncg     rms          rms(c)
DAV:   1    -0.233072166530E+04    0.26283E-04   -0.48112E-01 13800   0.731E-01    0.134E-01
RMM:   2    -0.233080454310E+04   -0.82878E-01   -0.23840E-02 15517   0.241E-01    0.362E+00
RMM:   3    -0.233076183312E+04    0.42710E-01   -0.72465E-03 15780   0.139E-01    0.269E+00
RMM:   4    -0.233074100464E+04    0.20828E-01   -0.27458E-03 13750   0.113E-01    0.180E+00
RMM:   5    -0.233072528304E+04    0.15722E-01   -0.16023E-03 14613   0.717E-02    0.708E-01
RMM:   6    -0.233072419564E+04    0.10874E-02   -0.43119E-03 13710   0.139E-01    0.608E-01
RMM:   7    -0.233072775815E+04   -0.35625E-02   -0.43517E-03 15232   0.106E-01    0.103E+00
RMM:   8    -0.233072433340E+04    0.34247E-02   -0.26021E-03 16466   0.686E-02    0.619E-01
RMM:   9    -0.233072267598E+04    0.16574E-02   -0.10629E-03 14332   0.646E-02    0.323E-01
RMM:  10    -0.233072260479E+04    0.71190E-04   -0.11033E-03 18351   0.349E-02    0.304E-01
RMM:  11    -0.233072246164E+04    0.14315E-03   -0.54641E-04 17121   0.313E-02    0.259E-01
RMM:  12    -0.233072214095E+04    0.32069E-03   -0.17944E-04 13520   0.287E-02    0.120E-01
RMM:  13    -0.233072207808E+04    0.62873E-04   -0.80660E-05 12059   0.175E-02    0.663E-02
RMM:  14    -0.233072206914E+04    0.89371E-05   -0.55791E-05 10485   0.124E-02
  11 F= -.23307221E+04 E0= -.23280131E+04  d E =-.530790E-03
       N       E                     dE             d eps       ncg     rms          rms(c)
DAV:   1    -0.233072081195E+04    0.12661E-02   -0.19259E+00 13700   0.146E+00    0.207E-01
RMM:   2    -0.233074331096E+04   -0.22499E-01   -0.28671E-02 13942   0.364E-01    0.201E+00
RMM:   3    -0.233074829078E+04   -0.49798E-02   -0.95061E-03 19491   0.122E-01    0.212E+00
RMM:   4    -0.233074877567E+04   -0.48489E-03   -0.26625E-03 13746   0.108E-01    0.216E+00
RMM:   5    -0.233072965949E+04    0.19116E-01   -0.32472E-03 16663   0.802E-02    0.104E+00
RMM:   6    -0.233072905942E+04    0.60007E-03   -0.46602E-03 13881   0.133E-01    0.105E+00
RMM:   7    -0.233074345447E+04   -0.14395E-01   -0.10663E-02 15977   0.151E-01    0.196E+00
RMM:   8    -0.233072654249E+04    0.16912E-01   -0.39853E-03 14103   0.124E-01    0.781E-01
RMM:   9    -0.233072322677E+04    0.33157E-02   -0.20257E-03 13724   0.110E-01    0.364E-01
RMM:  10    -0.233072296275E+04    0.26403E-03   -0.11504E-03 15754   0.516E-02    0.311E-01
RMM:  11    -0.233072277822E+04    0.18453E-03   -0.10770E-03 15313   0.503E-02    0.236E-01
RMM:  12    -0.233072263361E+04    0.14461E-03   -0.54955E-04 14412   0.429E-02    0.175E-01
RMM:  13    -0.233072252271E+04    0.11090E-03   -0.26525E-04 14601   0.276E-02    0.107E-01
RMM:  14    -0.233072251094E+04    0.11770E-04   -0.19456E-04 14912   0.187E-02    0.915E-02
RMM:  15    -0.233072249763E+04    0.13304E-04   -0.11048E-04 13240   0.169E-02    0.774E-02
RMM:  16    -0.233072246907E+04    0.28563E-04   -0.35579E-05  9269   0.140E-02    0.347E-02
RMM:  17    -0.233072246599E+04    0.30841E-05   -0.16661E-05  8198   0.752E-03
  12 F= -.23307225E+04 E0= -.23280136E+04  d E =-.927637E-03
       N       E                     dE             d eps       ncg     rms          rms(c)
DAV:   1    -0.233072263426E+04   -0.16519E-03   -0.32720E-01 13800   0.601E-01    0.903E-02
RMM:   2    -0.233073460295E+04   -0.11969E-01   -0.58594E-03 13923   0.164E-01    0.145E+00
RMM:   3    -0.233072653761E+04    0.80653E-02   -0.20860E-03 18466   0.627E-02    0.768E-01
RMM:   4    -0.233072844802E+04   -0.19104E-02   -0.78176E-04 13698   0.660E-02    0.100E+00
RMM:   5    -0.233072410382E+04    0.43442E-02   -0.63647E-04 18283   0.317E-02    0.433E-01
RMM:   6    -0.233072501669E+04   -0.91287E-03   -0.95415E-04 14589   0.527E-02    0.614E-01
RMM:   7    -0.233072538497E+04   -0.36828E-03   -0.15960E-03 14930   0.658E-02    0.649E-01
RMM:   8    -0.233072387007E+04    0.15149E-02   -0.77058E-04 13776   0.558E-02    0.401E-01
RMM:   9    -0.233072303654E+04    0.83354E-03   -0.33406E-04 13672   0.468E-02    0.145E-01
RMM:  10    -0.233072299553E+04    0.41011E-04   -0.15351E-04 13992   0.232E-02    0.132E-01
RMM:  11    -0.233072298282E+04    0.12705E-04   -0.15011E-04 13948   0.192E-02    0.118E-01
RMM:  12    -0.233072294323E+04    0.39593E-04   -0.86142E-05 12297   0.187E-02    0.829E-02
RMM:  13    -0.233072291835E+04    0.24874E-04   -0.36295E-05  9171   0.150E-02    0.539E-02
RMM:  14    -0.233072291272E+04    0.56361E-05   -0.16790E-05  7881   0.799E-03
  13 F= -.23307229E+04 E0= -.23280141E+04  d E =-.446732E-03
       N       E                     dE             d eps       ncg     rms          rms(c)
DAV:   1    -0.233072137704E+04    0.15413E-02   -0.29440E+00 13700   0.180E+00    0.255E-01
RMM:   2    -0.233075947679E+04   -0.38100E-01   -0.44057E-02 13934   0.454E-01    0.254E+00
RMM:   3    -0.233075409365E+04    0.53831E-02   -0.14956E-02 19468   0.152E-01    0.227E+00
RMM:   4    -0.233072876175E+04    0.25332E-01   -0.47936E-03 13702   0.165E-01    0.911E-01
RMM:   5    -0.233076707011E+04   -0.38308E-01   -0.56755E-03 19463   0.863E-02    0.283E+00
RMM:   6    -0.233074713483E+04    0.19935E-01   -0.84258E-03 17949   0.116E-01    0.197E+00
RMM:   7    -0.233074320910E+04    0.39257E-02   -0.99133E-03 14004   0.187E-01    0.177E+00
RMM:   8    -0.233073161501E+04    0.11594E-01   -0.53825E-03 13726   0.156E-01    0.117E+00
RMM:   9    -0.233072590544E+04    0.57096E-02   -0.23607E-03 13703   0.120E-01    0.591E-01
RMM:  10    -0.233072574374E+04    0.16169E-03   -0.17796E-03 14350   0.767E-02    0.603E-01
RMM:  11    -0.233072445272E+04    0.12910E-02   -0.15385E-03 13871   0.767E-02    0.320E-01
RMM:  12    -0.233072402388E+04    0.42884E-03   -0.67580E-04 13719   0.608E-02    0.195E-01
RMM:  13    -0.233072389741E+04    0.12647E-03   -0.28607E-04 14010   0.338E-02    0.143E-01
RMM:  14    -0.233072390673E+04   -0.93188E-05   -0.34564E-04 16973   0.230E-02    0.138E-01
RMM:  15    -0.233072385103E+04    0.55703E-04   -0.13239E-04 13472   0.204E-02    0.922E-02
RMM:  16    -0.233072380859E+04    0.42439E-04   -0.50255E-05 10425   0.160E-02    0.385E-02
RMM:  17    -0.233072380563E+04    0.29563E-05   -0.25641E-05  8871   0.970E-03
  14 F= -.23307238E+04 E0= -.23280148E+04  d E =-.133965E-02
       N       E                     dE             d eps       ncg     rms          rms(c)
DAV:   1    -0.233071386231E+04    0.99463E-02   -0.11774E+01 13700   0.361E+00    0.512E-01
RMM:   2    -0.233085169742E+04   -0.13784E+00   -0.17836E-01 13915   0.918E-01    0.482E+00
RMM:   3    -0.233086940585E+04   -0.17708E-01   -0.59293E-02 19541   0.295E-01    0.501E+00
RMM:   4    -0.233099943397E+04   -0.13003E+00   -0.18313E-02 13903   0.283E-01    0.695E+00
RMM:   5    -0.233074634690E+04    0.25309E+00   -0.14877E-02 14393   0.232E-01    0.166E+00
RMM:   6    -0.233082941299E+04   -0.83066E-01   -0.44275E-02 15548   0.319E-01    0.443E+00
RMM:   7    -0.233077850344E+04    0.50910E-01   -0.39111E-02 13993   0.374E-01    0.295E+00
RMM:   8    -0.233075626458E+04    0.22239E-01   -0.20336E-02 13708   0.308E-01    0.239E+00
RMM:   9    -0.233073125638E+04    0.25008E-01   -0.79702E-03 13743   0.214E-01    0.109E+00
RMM:  10    -0.233073042981E+04    0.82657E-03   -0.63226E-03 14640   0.139E-01    0.112E+00
RMM:  11    -0.233072652105E+04    0.39088E-02   -0.54592E-03 14310   0.135E-01    0.673E-01
RMM:  12    -0.233072443534E+04    0.20857E-02   -0.21567E-03 13715   0.109E-01    0.364E-01
RMM:  13    -0.233072404585E+04    0.38949E-03   -0.98886E-04 14085   0.645E-02    0.278E-01
RMM:  14    -0.233072413723E+04   -0.91383E-04   -0.13099E-03 15944   0.529E-02    0.288E-01
RMM:  15    -0.233072385936E+04    0.27787E-03   -0.46562E-04 14114   0.433E-02    0.175E-01
RMM:  16    -0.233072376003E+04    0.99330E-04   -0.30717E-04 15348   0.274E-02    0.110E-01
RMM:  17    -0.233072374556E+04    0.14475E-04   -0.22810E-04 15312   0.181E-02    0.876E-02
RMM:  18    -0.233072374621E+04   -0.65262E-06   -0.12427E-04 13487   0.172E-02    0.803E-02
RMM:  19    -0.233072371975E+04    0.26463E-04   -0.40721E-05  9752   0.145E-02    0.419E-02
RMM:  20    -0.233072371539E+04    0.43582E-05   -0.18682E-05  8608   0.853E-03
  15 F= -.23307237E+04 E0= -.23280147E+04  d E =-.124940E-02
       N       E                     dE             d eps       ncg     rms          rms(c)
DAV:   1    -0.233072054176E+04    0.31780E-02   -0.43251E+00 13700   0.218E+00    0.309E-01
RMM:   2    -0.233077001337E+04   -0.49472E-01   -0.64919E-02 13918   0.552E-01    0.286E+00
RMM:   3    -0.233079314896E+04   -0.23136E-01   -0.21422E-02 19634   0.168E-01    0.353E+00
RMM:   4    -0.233078204388E+04    0.11105E-01   -0.66100E-03 13866   0.171E-01    0.317E+00
RMM:   5    -0.233074367010E+04    0.38374E-01   -0.56908E-03 14134   0.145E-01    0.183E+00
RMM:   6    -0.233073973339E+04    0.39367E-02   -0.10056E-02 15657   0.158E-01    0.168E+00
RMM:   7    -0.233075058846E+04   -0.10855E-01   -0.19818E-02 14663   0.237E-01    0.210E+00
RMM:   8    -0.233073348625E+04    0.17102E-01   -0.83088E-03 13769   0.191E-01    0.123E+00
RMM:   9    -0.233072537227E+04    0.81140E-02   -0.32797E-03 13703   0.142E-01    0.456E-01
RMM:  10    -0.233072479679E+04    0.57547E-03   -0.16500E-03 14411   0.747E-02    0.378E-01
RMM:  11    -0.233072457396E+04    0.22284E-03   -0.17143E-03 14326   0.745E-02    0.299E-01
RMM:  12    -0.233072442069E+04    0.15327E-03   -0.11302E-03 14396   0.630E-02    0.249E-01
RMM:  13    -0.233072413005E+04    0.29063E-03   -0.42718E-04 13836   0.449E-02    0.119E-01
RMM:  14    -0.233072414060E+04   -0.10549E-04   -0.46116E-04 17798   0.239E-02    0.119E-01
RMM:  15    -0.233072411886E+04    0.21738E-04   -0.18544E-04 14316   0.237E-02    0.956E-02
RMM:  16    -0.233072407881E+04    0.40058E-04   -0.82536E-05 12438   0.199E-02    0.541E-02
RMM:  17    -0.233072406610E+04    0.12703E-04   -0.29984E-05  8974   0.111E-02    0.285E-02
RMM:  18    -0.233072406817E+04   -0.20682E-05   -0.21493E-05  8120   0.855E-03
  16 F= -.23307241E+04 E0= -.23280151E+04  d E =-.160219E-02
       N       E                     dE             d eps       ncg     rms          rms(c)
DAV:   1    -0.233072419062E+04   -0.12452E-03   -0.23522E-01 13800   0.510E-01    0.722E-02
RMM:   2    -0.233072872303E+04   -0.45324E-02   -0.35760E-03 13906   0.132E-01    0.879E-01
RMM:   3    -0.233072580947E+04    0.29136E-02   -0.99632E-04 18969   0.404E-02    0.491E-01
RMM:   4    -0.233073166670E+04   -0.58572E-02   -0.40524E-04 14370   0.356E-02    0.115E+00
RMM:   5    -0.233072524073E+04    0.64260E-02   -0.42619E-04 13661   0.421E-02    0.344E-01
RMM:   6    -0.233072597837E+04   -0.73764E-03   -0.81763E-04 15428   0.445E-02    0.541E-01
RMM:   7    -0.233072512002E+04    0.85836E-03   -0.82758E-04 13752   0.570E-02    0.342E-01
RMM:   8    -0.233072469549E+04    0.42453E-03   -0.35993E-04 13601   0.449E-02    0.223E-01
RMM:   9    -0.233072448880E+04    0.20669E-03   -0.14241E-04 13498   0.291E-02    0.132E-01
RMM:  10    -0.233072443800E+04    0.50800E-04   -0.51938E-05 10168   0.149E-02    0.946E-02
RMM:  11    -0.233072441550E+04    0.22503E-04   -0.61838E-05 11350   0.158E-02    0.692E-02
RMM:  12    -0.233072440729E+04    0.82115E-05   -0.48582E-05 10064   0.149E-02
  17 F= -.23307244E+04 E0= -.23280154E+04  d E =-.339117E-03
       N       E                     dE             d eps       ncg     rms          rms(c)
DAV:   1    -0.233072353042E+04    0.88508E-03   -0.21190E+00 13700   0.153E+00    0.205E-01
RMM:   2    -0.233076179215E+04   -0.38262E-01   -0.28494E-02 13946   0.375E-01    0.260E+00
RMM:   3    -0.233073387371E+04    0.27918E-01   -0.66983E-03 19544   0.101E-01    0.117E+00
RMM:   4    -0.233076244038E+04   -0.28567E-01   -0.41501E-03 14429   0.110E-01    0.255E+00
RMM:   5    -0.233073328661E+04    0.29154E-01   -0.36788E-03 13859   0.118E-01    0.114E+00
RMM:   6    -0.233073910256E+04   -0.58160E-02   -0.84334E-03 16551   0.127E-01    0.161E+00
RMM:   7    -0.233073095446E+04    0.81481E-02   -0.54070E-03 13736   0.152E-01    0.970E-01
RMM:   8    -0.233072826312E+04    0.26913E-02   -0.24363E-03 13757   0.106E-01    0.678E-01
RMM:   9    -0.233072585939E+04    0.24037E-02   -0.11691E-03 13710   0.818E-02    0.331E-01
RMM:  10    -0.233072562131E+04    0.23808E-03   -0.74820E-04 14230   0.506E-02    0.266E-01
RMM:  11    -0.233072546966E+04    0.15164E-03   -0.85991E-04 14913   0.482E-02    0.195E-01
RMM:  12    -0.233072543651E+04    0.33158E-04   -0.45237E-04 14196   0.390E-02    0.182E-01
RMM:  13    -0.233072530150E+04    0.13500E-03   -0.17944E-04 13498   0.286E-02    0.106E-01
RMM:  14    -0.233072529785E+04    0.36553E-05   -0.17231E-04 13825   0.149E-02    0.100E-01
RMM:  15    -0.233072526622E+04    0.31622E-04   -0.83018E-05 12268   0.163E-02    0.619E-02
RMM:  16    -0.233072524773E+04    0.18495E-04   -0.34569E-05  9118   0.130E-02    0.273E-02
RMM:  17    -0.233072524652E+04    0.12087E-05   -0.17659E-05  8034   0.774E-03
  18 F= -.23307252E+04 E0= -.23280162E+04  d E =-.117835E-02
       N       E                     dE             d eps       ncg     rms          rms(c)
DAV:   1    -0.233071955788E+04    0.56898E-02   -0.84742E+00 13700   0.306E+00    0.405E-01
RMM:   2    -0.233080057337E+04   -0.81015E-01   -0.11183E-01 13949   0.743E-01    0.370E+00
RMM:   3    -0.233076534248E+04    0.35231E-01   -0.24854E-02 19387   0.200E-01    0.257E+00
RMM:   4    -0.233088532959E+04   -0.11999E+00   -0.11727E-02 15018   0.170E-01    0.528E+00
RMM:   5    -0.233074986326E+04    0.13547E+00   -0.13487E-02 13776   0.232E-01    0.184E+00
RMM:   6    -0.233080669516E+04   -0.56832E-01   -0.38251E-02 16370   0.268E-01    0.388E+00
RMM:   7    -0.233074557862E+04    0.61117E-01   -0.18372E-02 13730   0.289E-01    0.176E+00
RMM:   8    -0.233073667363E+04    0.89050E-02   -0.77247E-03 13732   0.199E-01    0.124E+00
RMM:   9    -0.233072941452E+04    0.72591E-02   -0.37356E-03 13800   0.133E-01    0.730E-01
RMM:  10    -0.233072911274E+04    0.30178E-03   -0.47073E-03 14925   0.112E-01    0.689E-01
RMM:  11    -0.233072819581E+04    0.91692E-03   -0.31558E-03 14709   0.979E-02    0.540E-01
RMM:  12    -0.233072692945E+04    0.12664E-02   -0.12525E-03 13725   0.783E-02    0.283E-01
RMM:  13    -0.233072668228E+04    0.24718E-03   -0.88938E-04 15212   0.474E-02    0.200E-01
RMM:  14    -0.233072665897E+04    0.23304E-04   -0.68781E-04 17134   0.311E-02    0.180E-01
RMM:  15    -0.233072661412E+04    0.44849E-04   -0.35679E-04 15741   0.288E-02    0.142E-01
RMM:  16    -0.233072654180E+04    0.72327E-04   -0.12388E-04 13486   0.220E-02    0.862E-02
RMM:  17    -0.233072653432E+04    0.74710E-05   -0.10372E-04 12436   0.121E-02    0.726E-02
RMM:  18    -0.233072651950E+04    0.14830E-04   -0.39146E-05  9972   0.127E-02    0.460E-02
RMM:  19    -0.233072651133E+04    0.81699E-05   -0.20383E-05  7937   0.108E-02
  19 F= -.23307265E+04 E0= -.23280176E+04  d E =-.244315E-02
       N       E                     dE             d eps       ncg     rms          rms(c)
DAV:   1    -0.233069781094E+04    0.28709E-01   -0.33883E+01 13700   0.612E+00    0.841E-01
RMM:   2    -0.233109665201E+04   -0.39884E+00   -0.48328E-01 13944   0.155E+00    0.834E+00
RMM:   3    -0.233090339447E+04    0.19326E+00   -0.11013E-01 19084   0.446E-01    0.536E+00
RMM:   4    -0.233171051594E+04   -0.80712E+00   -0.61225E-02 14873   0.396E-01    0.131E+01
RMM:   5    -0.233081514365E+04    0.89537E+00   -0.63441E-02 13979   0.481E-01    0.326E+00
RMM:   6    -0.233102229179E+04   -0.20715E+00   -0.13472E-01 14348   0.657E-01    0.735E+00
RMM:   7    -0.233083504134E+04    0.18725E+00   -0.57520E-02 13713   0.537E-01    0.428E+00
RMM:   8    -0.233079485838E+04    0.40183E-01   -0.26934E-02 13805   0.341E-01    0.331E+00
RMM:   9    -0.233074943529E+04    0.45423E-01   -0.20105E-02 13750   0.326E-01    0.196E+00
RMM:  10    -0.233074578161E+04    0.36537E-02   -0.23646E-02 14045   0.295E-01    0.176E+00
RMM:  11    -0.233073305450E+04    0.12727E-01   -0.90530E-03 13715   0.226E-01    0.103E+00
RMM:  12    -0.233072829404E+04    0.47605E-02   -0.31954E-03 14038   0.123E-01    0.473E-01
RMM:  13    -0.233072795219E+04    0.34185E-03   -0.25642E-03 15492   0.749E-02    0.413E-01
RMM:  14    -0.233072773534E+04    0.21684E-03   -0.19108E-03 15184   0.720E-02    0.343E-01
RMM:  15    -0.233072727971E+04    0.45564E-03   -0.75781E-04 14014   0.602E-02    0.185E-01
RMM:  16    -0.233072720889E+04    0.70816E-04   -0.55593E-04 15546   0.359E-02    0.135E-01
RMM:  17    -0.233072724750E+04   -0.38610E-04   -0.52281E-04 16411   0.315E-02    0.144E-01
RMM:  18    -0.233072718698E+04    0.60517E-04   -0.21083E-04 14178   0.273E-02    0.907E-02
RMM:  19    -0.233072716024E+04    0.26740E-04   -0.13156E-04 13321   0.177E-02    0.530E-02
RMM:  20    -0.233072716317E+04   -0.29231E-05   -0.76159E-05 11604   0.107E-02
  20 F= -.23307272E+04 E0= -.23280183E+04  d E =-.309499E-02
       N       E                     dE             d eps       ncg     rms          rms(c)
DAV:   1    -0.233072328052E+04    0.38797E-02   -0.48680E+00 13700   0.232E+00    0.308E-01
RMM:   2    -0.233085118888E+04   -0.12791E+00   -0.66738E-02 13950   0.568E-01    0.471E+00
RMM:   3    -0.233074640781E+04    0.10478E+00   -0.15108E-02 19117   0.164E-01    0.170E+00
RMM:   4    -0.233079393787E+04   -0.47530E-01   -0.72472E-03 14603   0.145E-01    0.344E+00
RMM:   5    -0.233075352031E+04    0.40418E-01   -0.91528E-03 13768   0.192E-01    0.209E+00
RMM:   6    -0.233075227609E+04    0.12442E-02   -0.19655E-02 16338   0.198E-01    0.214E+00
RMM:   7    -0.233073945377E+04    0.12822E-01   -0.11545E-02 13739   0.227E-01    0.142E+00
RMM:   8    -0.233073358292E+04    0.58709E-02   -0.48233E-03 13710   0.158E-01    0.104E+00
RMM:   9    -0.233072864044E+04    0.49425E-02   -0.21181E-03 13746   0.111E-01    0.464E-01
RMM:  10    -0.233072823860E+04    0.40183E-03   -0.17633E-03 14701   0.738E-02    0.446E-01
RMM:  11    -0.233072825092E+04   -0.12317E-04   -0.19087E-03 15554   0.687E-02    0.425E-01
RMM:  12    -0.233072742077E+04    0.83015E-03   -0.66381E-04 13699   0.569E-02    0.191E-01
RMM:  13    -0.233072731389E+04    0.10688E-03   -0.48416E-04 15213   0.343E-02    0.143E-01
RMM:  14    -0.233072731535E+04   -0.14525E-05   -0.33230E-04 16783   0.225E-02    0.137E-01
RMM:  15    -0.233072724354E+04    0.71802E-04   -0.10183E-04 12777   0.208E-02    0.711E-02
RMM:  16    -0.233072723090E+04    0.12639E-04   -0.47278E-05 10210   0.138E-02    0.545E-02
RMM:  17    -0.233072722790E+04    0.30089E-05   -0.30944E-05  8901   0.106E-02
  21 F= -.23307272E+04 E0= -.23280183E+04  d E =-.315972E-02
       N       E                     dE             d eps       ncg     rms          rms(c)
DAV:   1    -0.233072694403E+04    0.28687E-03   -0.12409E+00 13700   0.117E+00    0.156E-01
RMM:   2    -0.233075458083E+04   -0.27637E-01   -0.17282E-02 13948   0.289E-01    0.220E+00
RMM:   3    -0.233073444895E+04    0.20132E-01   -0.41485E-03 19080   0.848E-02    0.103E+00
RMM:   4    -0.233074519074E+04   -0.10742E-01   -0.18208E-03 14773   0.699E-02    0.175E+00
RMM:   5    -0.233073378002E+04    0.11411E-01   -0.22480E-03 13748   0.968E-02    0.967E-01
RMM:   6    -0.233073336729E+04    0.41273E-03   -0.41352E-03 15642   0.102E-01    0.981E-01
RMM:   7    -0.233073723210E+04   -0.38648E-02   -0.52025E-03 14935   0.117E-01    0.126E+00
RMM:   8    -0.233072927636E+04    0.79557E-02   -0.19613E-03 13707   0.101E-01    0.427E-01
RMM:   9    -0.233072811679E+04    0.11596E-02   -0.83553E-04 13720   0.705E-02    0.182E-01
RMM:  10    -0.233072808034E+04    0.36453E-04   -0.55247E-04 14765   0.404E-02    0.163E-01
RMM:  11    -0.233072819109E+04   -0.11075E-03   -0.62774E-04 17261   0.326E-02    0.212E-01
RMM:  12    -0.233072803995E+04    0.15113E-03   -0.23057E-04 13669   0.304E-02    0.124E-01
RMM:  13    -0.233072797118E+04    0.68770E-04   -0.13182E-04 13465   0.201E-02    0.631E-02
RMM:  14    -0.233072796131E+04    0.98707E-05   -0.73504E-05 11433   0.123E-02
  22 F= -.23307280E+04 E0= -.23280193E+04  d E =-.733419E-03
       N       E                     dE             d eps       ncg     rms          rms(c)
DAV:   1    -0.233072050391E+04    0.74673E-02   -0.11173E+01 13700   0.351E+00    0.466E-01
RMM:   2    -0.233078707631E+04   -0.66572E-01   -0.14620E-01 13950   0.852E-01    0.333E+00
RMM:   3    -0.233078738589E+04   -0.30958E-03   -0.33232E-02 19456   0.232E-01    0.313E+00
RMM:   4    -0.233090236863E+04   -0.11498E+00   -0.11863E-02 14153   0.206E-01    0.557E+00
RMM:   5    -0.233078530216E+04    0.11707E+00   -0.23393E-02 17124   0.204E-01    0.293E+00
RMM:   6    -0.233079245274E+04   -0.71506E-02   -0.33078E-02 14045   0.340E-01    0.328E+00
RMM:   7    -0.233082071871E+04   -0.28266E-01   -0.36780E-02 14614   0.319E-01    0.405E+00
RMM:   8    -0.233074065209E+04    0.80067E-01   -0.12773E-02 13701   0.275E-01    0.120E+00
RMM:   9    -0.233073269471E+04    0.79574E-02   -0.61743E-03 13769   0.183E-01    0.747E-01
RMM:  10    -0.233073396661E+04   -0.12719E-02   -0.71240E-03 14598   0.149E-01    0.891E-01
RMM:  11    -0.233073144363E+04    0.25230E-02   -0.33007E-03 13994   0.114E-01    0.558E-01
RMM:  12    -0.233073004562E+04    0.13980E-02   -0.14758E-03 13894   0.829E-02    0.290E-01
RMM:  13    -0.233072983268E+04    0.21294E-03   -0.12073E-03 16647   0.433E-02    0.201E-01
RMM:  14    -0.233072987798E+04   -0.45293E-04   -0.72685E-04 17234   0.356E-02    0.207E-01
RMM:  15    -0.233072966791E+04    0.21007E-03   -0.21763E-04 13963   0.299E-02    0.745E-02
RMM:  16    -0.233072965064E+04    0.17273E-04   -0.13935E-04 14014   0.185E-02    0.473E-02
RMM:  17    -0.233072965718E+04   -0.65414E-05   -0.90328E-05 12292   0.140E-02
  23 F= -.23307297E+04 E0= -.23280213E+04  d E =-.242928E-02
       N       E                     dE             d eps       ncg     rms          rms(c)
DAV:   1    -0.233069149212E+04    0.38159E-01   -0.44671E+01 13700   0.703E+00    0.975E-01
RMM:   2    -0.233113354032E+04   -0.44205E+00   -0.65074E-01 13944   0.180E+00    0.870E+00
RMM:   3    -0.233098355808E+04    0.14998E+00   -0.15364E-01 19206   0.521E-01    0.646E+00
RMM:   4    -0.233162846039E+04   -0.64490E+00   -0.64820E-02 13859   0.518E-01    0.127E+01
RMM:   5    -0.233098029924E+04    0.64816E+00   -0.11586E-01 18543   0.417E-01    0.627E+00
RMM:   6    -0.233104570790E+04   -0.65409E-01   -0.13540E-01 14065   0.680E-01    0.739E+00
RMM:   7    -0.233103089114E+04    0.14817E-01   -0.12559E-01 14114   0.658E-01    0.737E+00
RMM:   8    -0.233079310161E+04    0.23779E+00   -0.49906E-02 13704   0.534E-01    0.296E+00
RMM:   9    -0.233075926388E+04    0.33838E-01   -0.32566E-02 13762   0.404E-01    0.224E+00
RMM:  10    -0.233074640882E+04    0.12855E-01   -0.29972E-02 13836   0.347E-01    0.163E+00
RMM:  11    -0.233073328824E+04    0.13121E-01   -0.10665E-02 13703   0.259E-01    0.686E-01
RMM:  12    -0.233073138728E+04    0.19010E-02   -0.44741E-03 14515   0.123E-01    0.414E-01
RMM:  13    -0.233073200776E+04   -0.62048E-03   -0.43728E-03 18557   0.743E-02    0.501E-01
RMM:  14    -0.233073196473E+04    0.43029E-04   -0.19753E-03 15029   0.719E-02    0.481E-01
RMM:  15    -0.233073077632E+04    0.11884E-02   -0.77290E-04 13707   0.632E-02    0.136E-01
RMM:  16    -0.233073077312E+04    0.32034E-05   -0.67283E-04 15851   0.382E-02    0.128E-01
RMM:  17    -0.233073084763E+04   -0.74509E-04   -0.57473E-04 15640   0.368E-02    0.156E-01
RMM:  18    -0.233073076521E+04    0.82421E-04   -0.22045E-04 14026   0.304E-02    0.935E-02
RMM:  19    -0.233073075310E+04    0.12104E-04   -0.18209E-04 14677   0.193E-02    0.736E-02
RMM:  20    -0.233073076037E+04   -0.72694E-05   -0.13643E-04 13898   0.166E-02    0.750E-02
RMM:  21    -0.233073074749E+04    0.12883E-04   -0.65281E-05 11447   0.163E-02    0.537E-02
RMM:  22    -0.233073073920E+04    0.82870E-05   -0.26156E-05  9070   0.104E-02
  24 F= -.23307307E+04 E0= -.23280231E+04  d E =-.351131E-02
       N       E                     dE             d eps       ncg     rms          rms(c)
DAV:   1    -0.233072491143E+04    0.58361E-02   -0.85675E+00 13700   0.307E+00    0.401E-01
RMM:   2    -0.233074903447E+04   -0.24123E-01   -0.10849E-01 13947   0.737E-01    0.188E+00
RMM:   3    -0.233081302118E+04   -0.63987E-01   -0.24327E-02 19608   0.184E-01    0.378E+00
RMM:   4    -0.233081299338E+04    0.27801E-04   -0.12212E-02 14082   0.208E-01    0.375E+00
RMM:   5    -0.233078846578E+04    0.24528E-01   -0.16658E-02 16473   0.188E-01    0.309E+00
RMM:   6    -0.233078058883E+04    0.78770E-02   -0.23629E-02 15148   0.246E-01    0.293E+00
RMM:   7    -0.233078739895E+04   -0.68101E-02   -0.26285E-02 14408   0.286E-01    0.310E+00
RMM:   8    -0.233073887998E+04    0.48519E-01   -0.93306E-03 13708   0.230E-01    0.975E-01
RMM:   9    -0.233073449118E+04    0.43888E-02   -0.48301E-03 13756   0.161E-01    0.704E-01
RMM:  10    -0.233073486765E+04   -0.37647E-03   -0.47409E-03 15039   0.112E-01    0.739E-01
RMM:  11    -0.233073315916E+04    0.17085E-02   -0.28668E-03 14306   0.989E-02    0.467E-01
RMM:  12    -0.233073215430E+04    0.10049E-02   -0.11872E-03 13803   0.772E-02    0.239E-01
RMM:  13    -0.233073208578E+04    0.68517E-04   -0.97136E-04 16604   0.385E-02    0.203E-01
RMM:  14    -0.233073205589E+04    0.29891E-04   -0.52886E-04 17370   0.285E-02    0.175E-01
RMM:  15    -0.233073193877E+04    0.11712E-03   -0.15919E-04 13745   0.234E-02    0.971E-02
RMM:  16    -0.233073189742E+04    0.41348E-04   -0.73676E-05 11575   0.160E-02    0.483E-02
RMM:  17    -0.233073190135E+04   -0.39286E-05   -0.53986E-05 10637   0.120E-02
  25 F= -.23307319E+04 E0= -.23280245E+04  d E =-.116215E-02
       N       E                     dE             d eps       ncg     rms          rms(c)
DAV:   1    -0.233070525423E+04    0.26643E-01   -0.32244E+01 13700   0.597E+00    0.813E-01
RMM:   2    -0.233101357203E+04   -0.30832E+00   -0.45115E-01 13946   0.150E+00    0.725E+00
RMM:   3    -0.233088342358E+04    0.13015E+00   -0.10292E-01 19173   0.430E-01    0.495E+00
RMM:   4    -0.233134521297E+04   -0.46179E+00   -0.48001E-02 13789   0.456E-01    0.105E+01
RMM:   5    -0.233091240248E+04    0.43281E+00   -0.83971E-02 19008   0.335E-01    0.531E+00
RMM:   6    -0.233098514523E+04   -0.72743E-01   -0.99646E-02 14220   0.567E-01    0.667E+00
RMM:   7    -0.233091418088E+04    0.70964E-01   -0.74152E-02 13841   0.551E-01    0.567E+00
RMM:   8    -0.233077239784E+04    0.14178E+00   -0.31622E-02 13743   0.408E-01    0.241E+00
RMM:   9    -0.233075380621E+04    0.18592E-01   -0.24700E-02 13714   0.355E-01    0.194E+00
RMM:  10    -0.233075305057E+04    0.75564E-03   -0.23378E-02 14235   0.284E-01    0.190E+00
RMM:  11    -0.233073801120E+04    0.15039E-01   -0.98470E-03 13706   0.220E-01    0.932E-01
RMM:  12    -0.233073336236E+04    0.46488E-02   -0.40124E-03 13742   0.149E-01    0.375E-01
RMM:  13    -0.233073325944E+04    0.10292E-03   -0.33230E-03 16957   0.733E-02    0.341E-01
RMM:  14    -0.233073314739E+04    0.11205E-03   -0.17472E-03 15688   0.651E-02    0.285E-01
RMM:  15    -0.233073277487E+04    0.37252E-03   -0.58312E-04 13997   0.495E-02    0.133E-01
RMM:  16    -0.233073275895E+04    0.15920E-04   -0.50567E-04 16502   0.315E-02    0.104E-01
RMM:  17    -0.233073281163E+04   -0.52678E-04   -0.40931E-04 15851   0.302E-02    0.129E-01
RMM:  18    -0.233073276729E+04    0.44339E-04   -0.14536E-04 13514   0.257E-02    0.924E-02
RMM:  19    -0.233073274564E+04    0.21656E-04   -0.87450E-05 12097   0.159E-02    0.611E-02
RMM:  20    -0.233073274864E+04   -0.30001E-05   -0.66683E-05 11072   0.125E-02
  26 F= -.23307327E+04 E0= -.23280255E+04  d E =-.200943E-02
       N       E                     dE             d eps       ncg     rms          rms(c)
DAV:   1    -0.233073195942E+04    0.78622E-03   -0.20872E+00 13700   0.152E+00    0.223E-01
RMM:   2    -0.233075815540E+04   -0.26196E-01   -0.33953E-02 13910   0.396E-01    0.211E+00
RMM:   3    -0.233077864100E+04   -0.20486E-01   -0.13611E-02 20076   0.119E-01    0.281E+00
RMM:   4    -0.233075099487E+04    0.27646E-01   -0.52747E-03 13706   0.170E-01    0.169E+00
RMM:   5    -0.233073836577E+04    0.12629E-01   -0.37092E-03 17557   0.859E-02    0.862E-01
RMM:   6    -0.233074421801E+04   -0.58522E-02   -0.85531E-03 14090   0.177E-01    0.136E+00
RMM:   7    -0.233074416859E+04    0.49422E-04   -0.77897E-03 16743   0.129E-01    0.137E+00
RMM:   8    -0.233073865014E+04    0.55185E-02   -0.29538E-03 13725   0.116E-01    0.913E-01
RMM:   9    -0.233073450611E+04    0.41440E-02   -0.15206E-03 14080   0.758E-02    0.361E-01
RMM:  10    -0.233073411862E+04    0.38749E-03   -0.15905E-03 16488   0.586E-02    0.252E-01
RMM:  11    -0.233073440879E+04   -0.29017E-03   -0.14518E-03 17165   0.511E-02    0.350E-01
RMM:  12    -0.233073404043E+04    0.36835E-03   -0.56075E-04 13822   0.469E-02    0.226E-01
RMM:  13    -0.233073381422E+04    0.22621E-03   -0.26347E-04 13669   0.347E-02    0.126E-01
RMM:  14    -0.233073380589E+04    0.83291E-05   -0.29277E-04 17105   0.204E-02    0.113E-01
RMM:  15    -0.233073377949E+04    0.26399E-04   -0.12693E-04 13661   0.208E-02    0.907E-02
RMM:  16    -0.233073373949E+04    0.40005E-04   -0.57681E-05 10968   0.164E-02    0.383E-02
RMM:  17    -0.233073373672E+04    0.27701E-05   -0.27837E-05  8879   0.898E-03
  27 F= -.23307337E+04 E0= -.23280261E+04  d E =-.988082E-03
       N       E                     dE             d eps       ncg     rms          rms(c)
DAV:   1    -0.233073279797E+04    0.94152E-03   -0.14343E+00 13700   0.126E+00    0.181E-01
RMM:   2    -0.233077107902E+04   -0.38281E-01   -0.23164E-02 13938   0.326E-01    0.260E+00
RMM:   3    -0.233074961798E+04    0.21461E-01   -0.82709E-03 19477   0.108E-01    0.159E+00
RMM:   4    -0.233077880007E+04   -0.29182E-01   -0.37562E-03 14733   0.104E-01    0.281E+00
RMM:   5    -0.233073640650E+04    0.42394E-01   -0.28570E-03 13724   0.115E-01    0.475E-01
RMM:   6    -0.233075427408E+04   -0.17868E-01   -0.97646E-03 16396   0.136E-01    0.194E+00
RMM:   7    -0.233073994242E+04    0.14332E-01   -0.56231E-03 14728   0.134E-01    0.990E-01
RMM:   8    -0.233073715287E+04    0.27896E-02   -0.26276E-03 13753   0.108E-01    0.728E-01
RMM:   9    -0.233073456420E+04    0.25887E-02   -0.11963E-03 13758   0.749E-02    0.296E-01
RMM:  10    -0.233073434609E+04    0.21811E-03   -0.10187E-03 15010   0.542E-02    0.259E-01
RMM:  11    -0.233073443218E+04   -0.86094E-04   -0.13451E-03 17428   0.465E-02    0.277E-01
RMM:  12    -0.233073420502E+04    0.22716E-03   -0.41967E-04 13727   0.415E-02    0.190E-01
RMM:  13    -0.233073404612E+04    0.15890E-03   -0.21174E-04 13770   0.305E-02    0.955E-02
RMM:  14    -0.233073404932E+04   -0.32051E-05   -0.26366E-04 16182   0.187E-02    0.894E-02
RMM:  15    -0.233073404441E+04    0.49146E-05   -0.14072E-04 14177   0.188E-02    0.785E-02
RMM:  16    -0.233073401794E+04    0.26467E-04   -0.49405E-05 10462   0.150E-02    0.403E-02
RMM:  17    -0.233073401530E+04    0.26479E-05   -0.23681E-05  8752   0.820E-03
  28 F= -.23307340E+04 E0= -.23280260E+04  d E =-.126666E-02
       N       E                     dE             d eps       ncg     rms          rms(c)
DAV:   1    -0.233073388468E+04    0.13326E-03   -0.59235E-01 13700   0.812E-01    0.119E-01
RMM:   2    -0.233074729675E+04   -0.13412E-01   -0.94452E-03 13888   0.209E-01    0.156E+00
RMM:   3    -0.233074145407E+04    0.58427E-02   -0.38205E-03 20208   0.621E-02    0.108E+00
RMM:   4    -0.233073662877E+04    0.48253E-02   -0.16106E-03 13703   0.933E-02    0.615E-01
RMM:   5    -0.233073926622E+04   -0.26374E-02   -0.17973E-03 18657   0.524E-02    0.922E-01
RMM:   6    -0.233073905490E+04    0.21132E-03   -0.17332E-03 17820   0.552E-02    0.912E-01
RMM:   7    -0.233073687545E+04    0.21795E-02   -0.22245E-03 13929   0.894E-02    0.637E-01
RMM:   8    -0.233073516603E+04    0.17094E-02   -0.10118E-03 13707   0.730E-02    0.339E-01
RMM:   9    -0.233073468512E+04    0.48091E-03   -0.40816E-04 13697   0.506E-02    0.210E-01
RMM:  10    -0.233073463224E+04    0.52874E-04   -0.20915E-04 13926   0.267E-02    0.197E-01
RMM:  11    -0.233073450294E+04    0.12930E-03   -0.21258E-04 13729   0.284E-02    0.121E-01
RMM:  12    -0.233073446769E+04    0.35252E-04   -0.18609E-04 13941   0.261E-02    0.936E-02
RMM:  13    -0.233073443003E+04    0.37661E-04   -0.73442E-05 12106   0.189E-02    0.520E-02
RMM:  14    -0.233073442638E+04    0.36430E-05   -0.40997E-05  9841   0.102E-02
  29 F= -.23307344E+04 E0= -.23280265E+04  d E =-.411088E-03
       N       E                     dE             d eps       ncg     rms          rms(c)
DAV:   1    -0.233073427368E+04    0.15635E-03   -0.24678E-01 13740   0.525E-01    0.812E-02
RMM:   2    -0.233074231863E+04   -0.80449E-02   -0.42083E-03 13886   0.135E-01    0.123E+00
RMM:   3    -0.233073941319E+04    0.29054E-02   -0.18709E-03 20058   0.452E-02    0.905E-01
RMM:   4    -0.233073688938E+04    0.25238E-02   -0.75563E-04 13673   0.588E-02    0.636E-01
RMM:   5    -0.233073750454E+04   -0.61517E-03   -0.68487E-04 14948   0.431E-02    0.726E-01
RMM:   6    -0.233073538683E+04    0.21177E-02   -0.74898E-04 16828   0.399E-02    0.384E-01
RMM:   7    -0.233073538943E+04   -0.26000E-05   -0.10867E-03 13747   0.650E-02    0.383E-01
RMM:   8    -0.233073514752E+04    0.24191E-03   -0.58097E-04 13987   0.476E-02    0.319E-01
RMM:   9    -0.233073479642E+04    0.35109E-03   -0.25249E-04 13602   0.369E-02    0.221E-01
RMM:  10    -0.233073460660E+04    0.18983E-03   -0.11104E-04 13008   0.224E-02    0.132E-01
RMM:  11    -0.233073456201E+04    0.44591E-04   -0.11344E-04 13246   0.187E-02    0.973E-02
RMM:  12    -0.233073455789E+04    0.41174E-05   -0.13212E-04 13968   0.189E-02    0.922E-02
RMM:  13    -0.233073452295E+04    0.34942E-04   -0.42739E-05  9692   0.154E-02    0.503E-02
RMM:  14    -0.233073451853E+04    0.44197E-05   -0.18736E-05  7756   0.941E-03
  30 F= -.23307345E+04 E0= -.23280267E+04  d E =-.503231E-03
       N       E                     dE             d eps       ncg     rms          rms(c)
DAV:   1    -0.233073444707E+04    0.75875E-04   -0.31694E-01 13700   0.594E-01    0.955E-02
RMM:   2    -0.233078837388E+04   -0.53927E-01   -0.71821E-03 14078   0.173E-01    0.313E+00
RMM:   3    -0.233074240034E+04    0.45974E-01   -0.28612E-03 17268   0.814E-02    0.104E+00
RMM:   4    -0.233074505619E+04   -0.26558E-02   -0.15768E-03 14106   0.759E-02    0.133E+00
RMM:   5    -0.233073879222E+04    0.62640E-02   -0.13407E-03 13747   0.771E-02    0.854E-01
RMM:   6    -0.233073616160E+04    0.26306E-02   -0.18960E-03 15445   0.729E-02    0.493E-01
RMM:   7    -0.233073558150E+04    0.58010E-03   -0.17909E-03 13808   0.858E-02    0.368E-01
RMM:   8    -0.233073507667E+04    0.50484E-03   -0.64639E-04 13700   0.645E-02    0.244E-01
RMM:   9    -0.233073483326E+04    0.24341E-03   -0.19552E-04 13634   0.312E-02    0.141E-01
RMM:  10    -0.233073478178E+04    0.51481E-04   -0.12518E-04 13340   0.211E-02    0.105E-01
RMM:  11    -0.233073489016E+04   -0.10838E-03   -0.20095E-04 14955   0.188E-02    0.173E-01
RMM:  12    -0.233073480195E+04    0.88203E-04   -0.10671E-04 12848   0.194E-02    0.110E-01
RMM:  13    -0.233073474472E+04    0.57236E-04   -0.52983E-05 10627   0.172E-02    0.637E-02
RMM:  14    -0.233073473245E+04    0.12264E-04   -0.18844E-05  7861   0.940E-03    0.466E-02
RMM:  15    -0.233073472834E+04    0.41148E-05   -0.17073E-05  7843   0.880E-03
  31 F= -.23307347E+04 E0= -.23280271E+04  d E =-.209813E-03
       N       E                     dE             d eps       ncg     rms          rms(c)
DAV:   1    -0.233073462468E+04    0.10777E-03   -0.16032E-01 13780   0.422E-01    0.660E-02
RMM:   2    -0.233075024810E+04   -0.15623E-01   -0.33470E-03 14064   0.121E-01    0.165E+00
RMM:   3    -0.233073701796E+04    0.13230E-01   -0.12109E-03 18375   0.464E-02    0.589E-01
RMM:   4    -0.233073952856E+04   -0.25106E-02   -0.60577E-04 14152   0.462E-02    0.908E-01
RMM:   5    -0.233073666141E+04    0.28671E-02   -0.51702E-04 13735   0.450E-02    0.577E-01
RMM:   6    -0.233073534236E+04    0.13191E-02   -0.62933E-04 14430   0.453E-02    0.304E-01
RMM:   7    -0.233073581753E+04   -0.47517E-03   -0.10778E-03 14494   0.580E-02    0.427E-01
RMM:   8    -0.233073545139E+04    0.36614E-03   -0.45434E-04 13668   0.442E-02    0.324E-01
RMM:   9    -0.233073495769E+04    0.49371E-03   -0.17844E-04 13531   0.326E-02    0.175E-01
RMM:  10    -0.233073489360E+04    0.64085E-04   -0.99721E-05 12790   0.208E-02    0.150E-01
RMM:  11    -0.233073486085E+04    0.32747E-04   -0.11494E-04 13196   0.166E-02    0.123E-01
RMM:  12    -0.233073479967E+04    0.61181E-04   -0.67125E-05 11408   0.162E-02    0.648E-02
RMM:  13    -0.233073478143E+04    0.18249E-04   -0.29604E-05  8454   0.137E-02    0.384E-02
RMM:  14    -0.233073478259E+04   -0.11697E-05   -0.16241E-05  7832   0.825E-03
  32 F= -.23307348E+04 E0= -.23280273E+04  d E =-.264068E-03
       N       E                     dE             d eps       ncg     rms          rms(c)
DAV:   1    -0.233073470008E+04    0.81348E-04   -0.23188E-01 13700   0.508E-01    0.812E-02
RMM:   2    -0.233074817695E+04   -0.13477E-01   -0.45508E-03 13837   0.148E-01    0.158E+00
RMM:   3    -0.233074164752E+04    0.65294E-02   -0.23983E-03 20141   0.518E-02    0.106E+00
RMM:   4    -0.233073914957E+04    0.24980E-02   -0.95154E-04 13670   0.643E-02    0.844E-01
RMM:   5    -0.233073889036E+04    0.25921E-03   -0.81809E-04 14396   0.499E-02    0.850E-01
RMM:   6    -0.233073547918E+04    0.34112E-02   -0.81891E-04 14621   0.508E-02    0.299E-01
RMM:   7    -0.233073677783E+04   -0.12987E-02   -0.19568E-03 15629   0.687E-02    0.573E-01
RMM:   8    -0.233073589571E+04    0.88212E-03   -0.88696E-04 14082   0.577E-02    0.389E-01
RMM:   9    -0.233073517668E+04    0.71903E-03   -0.35197E-04 13627   0.432E-02    0.220E-01
RMM:  10    -0.233073497384E+04    0.20284E-03   -0.15372E-04 13527   0.262E-02    0.124E-01
RMM:  11    -0.233073496839E+04    0.54516E-05   -0.19686E-04 15224   0.188E-02    0.116E-01
RMM:  12    -0.233073492591E+04    0.42478E-04   -0.11284E-04 13443   0.180E-02    0.753E-02
RMM:  13    -0.233073490163E+04    0.24284E-04   -0.42097E-05  9660   0.149E-02    0.428E-02
RMM:  14    -0.233073490011E+04    0.15181E-05   -0.21554E-05  8117   0.932E-03
  33 F= -.23307349E+04 E0= -.23280274E+04  d E =-.117515E-03
       N       E                     dE             d eps       ncg     rms          rms(c)
DAV:   1    -0.233073483557E+04    0.66055E-04   -0.90247E-02 13800   0.317E-01    0.549E-02
RMM:   2    -0.233073647865E+04   -0.16431E-02   -0.19098E-03 13798   0.943E-02    0.556E-01
RMM:   3    -0.233073841628E+04   -0.19376E-02   -0.60216E-04 17544   0.363E-02    0.798E-01
RMM:   4    -0.233073611856E+04    0.22977E-02   -0.34413E-04 15512   0.277E-02    0.440E-01
RMM:   5    -0.233073570997E+04    0.40858E-03   -0.26685E-04 13588   0.356E-02    0.365E-01
RMM:   6    -0.233073571944E+04   -0.94656E-05   -0.33792E-04 17316   0.219E-02    0.372E-01
RMM:   7    -0.233073553284E+04    0.18660E-03   -0.45529E-04 13888   0.404E-02    0.325E-01
RMM:   8    -0.233073528945E+04    0.24340E-03   -0.35364E-04 14441   0.342E-02    0.240E-01
RMM:   9    -0.233073507220E+04    0.21725E-03   -0.14845E-04 13416   0.281E-02    0.162E-01
RMM:  10    -0.233073497639E+04    0.95810E-04   -0.64620E-05 11412   0.187E-02    0.104E-01
RMM:  11    -0.233073495182E+04    0.24568E-04   -0.40902E-05  9483   0.128E-02    0.809E-02
RMM:  12    -0.233073493820E+04    0.13618E-04   -0.47537E-05 10114   0.135E-02    0.616E-02
RMM:  13    -0.233073492088E+04    0.17321E-04   -0.21711E-05  7750   0.121E-02    0.297E-02
RMM:  14    -0.233073491840E+04    0.24787E-05   -0.10720E-05  7455   0.749E-03
  34 F= -.23307349E+04 E0= -.23280273E+04  d E =-.135806E-03
       N       E                     dE             d eps       ncg     rms          rms(c)
DAV:   1    -0.233073482269E+04    0.98191E-04   -0.19890E-01 13700   0.471E-01    0.712E-02
RMM:   2    -0.233073712491E+04   -0.23022E-02   -0.34059E-03 13910   0.125E-01    0.622E-01
RMM:   3    -0.233074177251E+04   -0.46476E-02   -0.13094E-03 18922   0.487E-02    0.110E+00
RMM:   4    -0.233073670813E+04    0.50644E-02   -0.30327E-04 14076   0.336E-02    0.541E-01
RMM:   5    -0.233073573293E+04    0.97520E-03   -0.42073E-04 13690   0.442E-02    0.349E-01
RMM:   6    -0.233073751125E+04   -0.17783E-02   -0.70170E-04 18987   0.294E-02    0.671E-01
RMM:   7    -0.233073592035E+04    0.15909E-02   -0.83351E-04 13812   0.554E-02    0.392E-01
RMM:   8    -0.233073534464E+04    0.57571E-03   -0.45704E-04 13797   0.457E-02    0.234E-01
RMM:   9    -0.233073526099E+04    0.83652E-04   -0.19797E-04 13565   0.329E-02    0.214E-01
RMM:  10    -0.233073506351E+04    0.19748E-03   -0.99023E-05 12694   0.218E-02    0.108E-01
RMM:  11    -0.233073502947E+04    0.34039E-04   -0.93479E-05 12624   0.182E-02    0.828E-02
RMM:  12    -0.233073502149E+04    0.79859E-05   -0.75911E-05 11737   0.170E-02
  35 F= -.23307350E+04 E0= -.23280272E+04  d E =-.103086E-03
       N       E                     dE             d eps       ncg     rms          rms(c)
DAV:   1    -0.233073496923E+04    0.60246E-04   -0.24322E-02 13850   0.168E-01    0.517E-02
RMM:   2    -0.233078956358E+04   -0.54594E-01   -0.29767E-03 15073   0.877E-02    0.318E+00
RMM:   3    -0.233074030550E+04    0.49258E-01   -0.13477E-03 14372   0.691E-02    0.812E-01
RMM:   4    -0.233074046575E+04   -0.16025E-03   -0.10800E-03 13659   0.716E-02    0.976E-01
RMM:   5    -0.233073885939E+04    0.16064E-02   -0.69498E-04 13847   0.513E-02    0.821E-01
RMM:   6    -0.233073652664E+04    0.23328E-02   -0.13543E-03 14173   0.678E-02    0.511E-01
RMM:   7    -0.233073644653E+04    0.80103E-04   -0.14994E-03 13873   0.756E-02    0.483E-01
RMM:   8    -0.233073567033E+04    0.77620E-03   -0.72914E-04 13992   0.549E-02    0.330E-01
RMM:   9    -0.233073528570E+04    0.38463E-03   -0.30133E-04 13636   0.409E-02    0.224E-01
RMM:  10    -0.233073501817E+04    0.26753E-03   -0.15041E-04 13513   0.274E-02    0.683E-02
RMM:  11    -0.233073500154E+04    0.16628E-04   -0.76395E-05 10850   0.129E-02    0.511E-02
RMM:  12    -0.233073501075E+04   -0.92129E-05   -0.78807E-05 11980   0.146E-02
  36 F= -.23307350E+04 E0= -.23280272E+04  d E =-.923524E-04
