 288 288   0   0
  0.1280206E+02  0.9726678E-09  0.8423550E-09  0.4500000E-08  0.2500000E-15
  1.000000000000000E-004
  CAR 
 unknown system                          
      6.83408618     -6.03354058  301      4.31791534      1.00000000
     -6.034  0.0000E+00  0.0000E+00
     -5.991  0.0000E+00  0.0000E+00
     -5.948  0.0000E+00  0.0000E+00
     -5.905  0.0000E+00  0.0000E+00
     -5.862  0.0000E+00  0.0000E+00
     -5.819  0.0000E+00  0.0000E+00
     -5.776  0.0000E+00  0.0000E+00
     -5.733  0.0000E+00  0.0000E+00
     -5.690  0.0000E+00  0.0000E+00
     -5.648  0.0000E+00  0.0000E+00
     -5.605  0.0000E+00  0.0000E+00
     -5.562  0.0000E+00  0.0000E+00
     -5.519  0.0000E+00  0.0000E+00
     -5.476  0.0000E+00  0.0000E+00
     -5.433  0.0000E+00  0.0000E+00
     -5.390  0.1941E-15  0.8327E-17
     -5.347  0.4756E-14  0.2123E-15
     -5.304  0.1019E-12  0.4581E-14
     -5.261  0.1859E-11  0.8430E-13
     -5.219  0.2885E-10  0.1322E-11
     -5.176  0.3810E-09  0.1766E-10
     -5.133  0.4281E-08  0.2013E-09
     -5.090  0.4095E-07  0.1958E-08
     -5.047  0.3335E-06  0.1626E-07
     -5.004  0.2314E-05  0.1155E-06
     -4.961  0.1370E-04  0.7030E-06
     -4.918  0.6923E-04  0.3673E-05
     -4.875  0.2996E-03  0.1652E-04
     -4.833  0.1113E-02  0.6427E-04
     -4.790  0.3570E-02  0.2174E-03
     -4.747  0.9949E-02  0.6441E-03
     -4.704  0.2433E-01  0.1688E-02
     -4.661  0.5281E-01  0.3953E-02
     -4.618  0.1032E+00  0.8377E-02
     -4.575  0.1837E+00  0.1626E-01
     -4.532  0.3016E+00  0.2919E-01
     -4.489  0.4601E+00  0.4893E-01
     -4.447  0.6557E+00  0.7705E-01
     -4.404  0.8776E+00  0.1147E+00
     -4.361  0.1108E+01  0.1622E+00
     -4.318  0.1325E+01  0.2191E+00
     -4.275  0.1510E+01  0.2838E+00
     -4.232  0.1649E+01  0.3545E+00
     -4.189  0.1746E+01  0.4294E+00
     -4.146  0.1817E+01  0.5074E+00
     -4.103  0.1889E+01  0.5884E+00
     -4.061  0.1991E+01  0.6738E+00
     -4.018  0.2142E+01  0.7657E+00
     -3.975  0.2347E+01  0.8663E+00
     -3.932  0.2585E+01  0.9772E+00
     -3.889  0.2821E+01  0.1098E+01
     -3.846  0.3016E+01  0.1228E+01
     -3.803  0.3137E+01  0.1362E+01
     -3.760  0.3174E+01  0.1498E+01
     -3.717  0.3143E+01  0.1633E+01
     -3.674  0.3087E+01  0.1765E+01
     -3.632  0.3056E+01  0.1897E+01
     -3.589  0.3091E+01  0.2029E+01
     -3.546  0.3210E+01  0.2167E+01
     -3.503  0.3404E+01  0.2313E+01
     -3.460  0.3638E+01  0.2469E+01
     -3.417  0.3868E+01  0.2635E+01
     -3.374  0.4053E+01  0.2809E+01
     -3.331  0.4166E+01  0.2987E+01
     -3.288  0.4206E+01  0.3168E+01
     -3.246  0.4193E+01  0.3348E+01
     -3.203  0.4169E+01  0.3526E+01
     -3.160  0.4181E+01  0.3706E+01
     -3.117  0.4264E+01  0.3889E+01
     -3.074  0.4430E+01  0.4079E+01
     -3.031  0.4660E+01  0.4278E+01
     -2.988  0.4915E+01  0.4489E+01
     -2.945  0.5145E+01  0.4710E+01
     -2.902  0.5309E+01  0.4938E+01
     -2.860  0.5385E+01  0.5169E+01
     -2.817  0.5393E+01  0.5400E+01
     -2.774  0.5381E+01  0.5631E+01
     -2.731  0.5403E+01  0.5863E+01
     -2.688  0.5482E+01  0.6098E+01
     -2.645  0.5589E+01  0.6337E+01
     -2.602  0.5662E+01  0.6580E+01
     -2.559  0.5653E+01  0.6823E+01
     -2.516  0.5576E+01  0.7062E+01
     -2.473  0.5514E+01  0.7298E+01
     -2.431  0.5584E+01  0.7538E+01
     -2.388  0.5868E+01  0.7790E+01
     -2.345  0.6361E+01  0.8062E+01
     -2.302  0.6943E+01  0.8360E+01
     -2.259  0.7419E+01  0.8678E+01
     -2.216  0.7613E+01  0.9005E+01
     -2.173  0.7480E+01  0.9326E+01
     -2.130  0.7139E+01  0.9632E+01
     -2.087  0.6824E+01  0.9925E+01
     -2.045  0.6752E+01  0.1021E+02
     -2.002  0.7017E+01  0.1052E+02
     -1.959  0.7556E+01  0.1084E+02
     -1.916  0.8182E+01  0.1119E+02
     -1.873  0.8681E+01  0.1156E+02
     -1.830  0.8913E+01  0.1194E+02
     -1.787  0.8885E+01  0.1233E+02
     -1.744  0.8730E+01  0.1270E+02
     -1.701  0.8620E+01  0.1307E+02
     -1.659  0.8662E+01  0.1344E+02
     -1.616  0.8858E+01  0.1382E+02
     -1.573  0.9141E+01  0.1421E+02
     -1.530  0.9440E+01  0.1462E+02
     -1.487  0.9721E+01  0.1504E+02
     -1.444  0.9980E+01  0.1546E+02
     -1.401  0.1022E+02  0.1590E+02
     -1.358  0.1041E+02  0.1635E+02
     -1.315  0.1057E+02  0.1680E+02
     -1.273  0.1075E+02  0.1726E+02
     -1.230  0.1111E+02  0.1774E+02
     -1.187  0.1179E+02  0.1825E+02
     -1.144  0.1280E+02  0.1879E+02
     -1.101  0.1394E+02  0.1939E+02
     -1.058  0.1490E+02  0.2003E+02
     -1.015  0.1542E+02  0.2069E+02
     -0.972  0.1553E+02  0.2136E+02
     -0.929  0.1553E+02  0.2203E+02
     -0.886  0.1585E+02  0.2270E+02
     -0.844  0.1678E+02  0.2342E+02
     -0.801  0.1837E+02  0.2421E+02
     -0.758  0.2049E+02  0.2509E+02
     -0.715  0.2304E+02  0.2608E+02
     -0.672  0.2609E+02  0.2720E+02
     -0.629  0.2978E+02  0.2848E+02
     -0.586  0.3410E+02  0.2994E+02
     -0.543  0.3869E+02  0.3160E+02
     -0.500  0.4303E+02  0.3344E+02
     -0.458  0.4666E+02  0.3545E+02
     -0.415  0.4941E+02  0.3756E+02
     -0.372  0.5148E+02  0.3977E+02
     -0.329  0.5313E+02  0.4205E+02
     -0.286  0.5457E+02  0.4439E+02
     -0.243  0.5580E+02  0.4679E+02
     -0.200  0.5674E+02  0.4922E+02
     -0.157  0.5730E+02  0.5168E+02
     -0.114  0.5755E+02  0.5415E+02
     -0.072  0.5764E+02  0.5662E+02
     -0.029  0.5782E+02  0.5910E+02
      0.014  0.5829E+02  0.6160E+02
      0.057  0.5924E+02  0.6414E+02
      0.100  0.6089E+02  0.6675E+02
      0.143  0.6335E+02  0.6947E+02
      0.186  0.6655E+02  0.7232E+02
      0.229  0.7018E+02  0.7533E+02
      0.272  0.7380E+02  0.7850E+02
      0.314  0.7707E+02  0.8180E+02
      0.357  0.7983E+02  0.8523E+02
      0.400  0.8208E+02  0.8875E+02
      0.443  0.8386E+02  0.9234E+02
      0.486  0.8519E+02  0.9600E+02
      0.529  0.8605E+02  0.9969E+02
      0.572  0.8641E+02  0.1034E+03
      0.615  0.8633E+02  0.1071E+03
      0.658  0.8589E+02  0.1108E+03
      0.701  0.8512E+02  0.1144E+03
      0.743  0.8398E+02  0.1180E+03
      0.786  0.8242E+02  0.1216E+03
      0.829  0.8056E+02  0.1250E+03
      0.872  0.7875E+02  0.1284E+03
      0.915  0.7735E+02  0.1317E+03
      0.958  0.7654E+02  0.1350E+03
      1.001  0.7620E+02  0.1383E+03
      1.044  0.7598E+02  0.1415E+03
      1.087  0.7556E+02  0.1448E+03
      1.129  0.7483E+02  0.1480E+03
      1.172  0.7394E+02  0.1512E+03
      1.215  0.7328E+02  0.1543E+03
      1.258  0.7314E+02  0.1574E+03
      1.301  0.7348E+02  0.1606E+03
      1.344  0.7386E+02  0.1638E+03
      1.387  0.7369E+02  0.1669E+03
      1.430  0.7263E+02  0.1700E+03
      1.473  0.7090E+02  0.1731E+03
      1.515  0.6912E+02  0.1760E+03
      1.558  0.6794E+02  0.1789E+03
      1.601  0.6779E+02  0.1819E+03
      1.644  0.6870E+02  0.1848E+03
      1.687  0.7047E+02  0.1878E+03
      1.730  0.7276E+02  0.1909E+03
      1.773  0.7525E+02  0.1942E+03
      1.816  0.7769E+02  0.1975E+03
      1.859  0.7995E+02  0.2009E+03
      1.901  0.8197E+02  0.2045E+03
      1.944  0.8377E+02  0.2080E+03
      1.987  0.8539E+02  0.2117E+03
      2.030  0.8692E+02  0.2154E+03
      2.073  0.8843E+02  0.2192E+03
      2.116  0.8998E+02  0.2231E+03
      2.159  0.9158E+02  0.2270E+03
      2.202  0.9324E+02  0.2310E+03
      2.245  0.9498E+02  0.2351E+03
      2.288  0.9694E+02  0.2392E+03
      2.330  0.9941E+02  0.2435E+03
      2.373  0.1026E+03  0.2479E+03
      2.416  0.1066E+03  0.2525E+03
      2.459  0.1110E+03  0.2572E+03
      2.502  0.1155E+03  0.2622E+03
      2.545  0.1196E+03  0.2673E+03
      2.588  0.1230E+03  0.2726E+03
      2.631  0.1256E+03  0.2780E+03
      2.674  0.1273E+03  0.2834E+03
      2.716  0.1284E+03  0.2889E+03
      2.759  0.1292E+03  0.2945E+03
      2.802  0.1303E+03  0.3001E+03
      2.845  0.1322E+03  0.3057E+03
      2.888  0.1349E+03  0.3115E+03
      2.931  0.1382E+03  0.3175E+03
      2.974  0.1408E+03  0.3235E+03
      3.017  0.1412E+03  0.3296E+03
      3.060  0.1384E+03  0.3355E+03
      3.102  0.1321E+03  0.3412E+03
      3.145  0.1233E+03  0.3465E+03
      3.188  0.1138E+03  0.3513E+03
      3.231  0.1051E+03  0.3558E+03
      3.274  0.9848E+02  0.3601E+03
      3.317  0.9413E+02  0.3641E+03
      3.360  0.9184E+02  0.3680E+03
      3.403  0.9100E+02  0.3719E+03
      3.446  0.9080E+02  0.3758E+03
      3.489  0.9044E+02  0.3797E+03
      3.531  0.8935E+02  0.3836E+03
      3.574  0.8748E+02  0.3873E+03
      3.617  0.8537E+02  0.3910E+03
      3.660  0.8391E+02  0.3946E+03
      3.703  0.8385E+02  0.3982E+03
      3.746  0.8537E+02  0.4018E+03
      3.789  0.8805E+02  0.4056E+03
      3.832  0.9114E+02  0.4095E+03
      3.875  0.9401E+02  0.4135E+03
      3.917  0.9637E+02  0.4177E+03
      3.960  0.9829E+02  0.4219E+03
      4.003  0.9994E+02  0.4262E+03
      4.046  0.1013E+03  0.4305E+03
      4.089  0.1023E+03  0.4349E+03
      4.132  0.1026E+03  0.4393E+03
      4.175  0.1022E+03  0.4437E+03
      4.218  0.1012E+03  0.4480E+03
      4.261  0.1001E+03  0.4523E+03
      4.303  0.9911E+02  0.4566E+03
      4.346  0.9862E+02  0.4608E+03
      4.389  0.9869E+02  0.4650E+03
      4.432  0.9918E+02  0.4693E+03
      4.475  0.9978E+02  0.4736E+03
      4.518  0.1001E+03  0.4779E+03
      4.561  0.9995E+02  0.4822E+03
      4.604  0.9927E+02  0.4864E+03
      4.647  0.9841E+02  0.4906E+03
      4.689  0.9786E+02  0.4948E+03
      4.732  0.9816E+02  0.4990E+03
      4.775  0.9959E+02  0.5033E+03
      4.818  0.1021E+03  0.5077E+03
      4.861  0.1052E+03  0.5122E+03
      4.904  0.1084E+03  0.5168E+03
      4.947  0.1111E+03  0.5216E+03
      4.990  0.1127E+03  0.5264E+03
      5.033  0.1125E+03  0.5313E+03
      5.076  0.1097E+03  0.5360E+03
      5.118  0.1031E+03  0.5404E+03
      5.161  0.9209E+02  0.5443E+03
      5.204  0.7709E+02  0.5476E+03
      5.247  0.5963E+02  0.5502E+03
      5.290  0.4209E+02  0.5520E+03
      5.333  0.2685E+02  0.5532E+03
      5.376  0.1535E+02  0.5538E+03
      5.419  0.7816E+01  0.5542E+03
      5.462  0.3530E+01  0.5543E+03
      5.504  0.1410E+01  0.5544E+03
      5.547  0.4966E+00  0.5544E+03
      5.590  0.1542E+00  0.5544E+03
      5.633  0.4214E-01  0.5544E+03
      5.676  0.1013E-01  0.5544E+03
      5.719  0.2143E-02  0.5544E+03
      5.762  0.3980E-03  0.5544E+03
      5.805  0.6481E-04  0.5544E+03
      5.848  0.9235E-05  0.5544E+03
      5.890  0.1148E-05  0.5544E+03
      5.933  0.1242E-06  0.5544E+03
      5.976  0.1166E-07  0.5544E+03
      6.019  0.9468E-09  0.5544E+03
      6.062  0.6632E-10  0.5544E+03
      6.105  0.3999E-11  0.5544E+03
      6.148  0.2059E-12  0.5544E+03
      6.191  0.8671E-14  0.5544E+03
      6.234  0.3236E-15  0.5544E+03
      6.276  0.0000E+00  0.5544E+03
      6.319  0.0000E+00  0.5544E+03
      6.362  0.0000E+00  0.5544E+03
      6.405  0.0000E+00  0.5544E+03
      6.448  0.0000E+00  0.5544E+03
      6.491  0.0000E+00  0.5544E+03
      6.534  0.0000E+00  0.5544E+03
      6.577  0.0000E+00  0.5544E+03
      6.620  0.0000E+00  0.5544E+03
      6.663  0.0000E+00  0.5544E+03
      6.705  0.0000E+00  0.5544E+03
      6.748  0.0000E+00  0.5544E+03
      6.791  0.0000E+00  0.5544E+03
      6.834  0.0000E+00  0.5544E+03
