<?xml version="1.0" encoding="ISO-8859-1"?>
<modeling>
 <generator>
  <i name="program" type="string">vasp </i>
  <i name="version" type="string">5.4.4.18Apr17-6-g9f103f2a35  </i>
  <i name="subversion" type="string">(build Sep 27 2018 12:46:37) complex + VL-xray_ parallel </i>
  <i name="platform" type="string">LLNL_Quartz_ifc </i>
  <i name="date" type="string">2021 09 26 </i>
  <i name="time" type="string">22:14:34 </i>
 </generator>
 <incar>
  <i type="int" name="ISTART">     2</i>
  <i type="string" name="PREC">accurate</i>
  <i type="string" name="ALGO"> Fast</i>
  <i type="int" name="ICHARG">     2</i>
  <i type="int" name="INIWAV">     1</i>
  <i type="int" name="NELM">   100</i>
  <i type="int" name="NELMIN">     4</i>
  <i type="int" name="IBRION">     2</i>
  <i name="EDIFF">      0.00000100</i>
  <i type="int" name="NSW">     5</i>
  <i type="int" name="ISIF">     2</i>
  <i type="int" name="ISYM">     2</i>
  <i name="ENCUT">    450.00000000</i>
  <i name="POTIM">      0.25000000</i>
  <i type="string" name="LREAL"> Auto</i>
  <i type="int" name="ISMEAR">     0</i>
  <i name="SIGMA">      0.15000000</i>
  <i type="logical" name="LWAVE"> F  </i>
  <i type="logical" name="LCHARG"> F  </i>
  <i type="int" name="ICORELEVEL">     0</i>
  <i type="int" name="CLNT">     1</i>
  <i type="int" name="CLN">     1</i>
  <i type="int" name="INCAR     ">     0</i>
  <i name="CLZ">      0.00000000</i>
  <v type="int" name="KPOINT_BSE">    -1     0     0     0</v>
  <i type="int" name="NELM">   100</i>
 </incar>
 <structure name="primitive_cell" >
  <crystal>
   <varray name="basis" >
    <v>       9.72667804       0.00000000       0.00000000 </v>
    <v>       0.00000000       8.42355028       0.00000000 </v>
    <v>       0.00000000       0.00000000      45.00000000 </v>
   </varray>
   <i name="volume">   3686.99226691 </i>
   <varray name="rec_basis" >
    <v>       0.10281002       0.00000000       0.00000000 </v>
    <v>       0.00000000       0.11871479       0.00000000 </v>
    <v>       0.00000000       0.00000000       0.02222222 </v>
   </varray>
  </crystal>
  <varray name="positions" >
   <v>       0.06187847       0.03142543       0.12446556 </v>
   <v>       0.18355226       0.11237373       0.16686385 </v>
   <v>       0.05545606      -0.13403793       0.16675663 </v>
   <v>       0.18629782      -0.21155388       0.12432619 </v>
   <v>      -0.06624466      -0.21169180       0.12466915 </v>
   <v>      -0.06800247       0.11340490       0.16706208 </v>
   <v>      -0.18720565       0.03112403       0.12445621 </v>
   <v>       0.31105570       0.03219324       0.12439823 </v>
   <v>       0.18521941       0.28733639       0.12443387 </v>
   <v>      -0.06518510       0.28770377       0.12443532 </v>
   <v>       0.30487754      -0.13513366       0.16620087 </v>
   <v>       0.05515878       0.36618834       0.16683321 </v>
   <v>      -0.19486901      -0.13470830       0.16654971 </v>
   <v>       0.43229775       0.11331359       0.16683009 </v>
   <v>       0.30665899       0.36484862       0.16688704 </v>
   <v>      -0.05854880      -0.04456280       0.21180733 </v>
   <v>       0.43423929      -0.21243223       0.12459180 </v>
   <v>       0.18280102      -0.38648082       0.16658957 </v>
   <v>       0.18982285      -0.04444497       0.21195855 </v>
   <v>       0.06504098       0.20522749       0.21166790 </v>
   <v>      -0.06736836      -0.38678391       0.16678878 </v>
   <v>      -0.31561663      -0.21102925       0.12462825 </v>
   <v>       0.06219026      -0.46914196       0.12441057 </v>
   <v>      -0.31725797       0.11278349       0.16711300 </v>
   <v>       0.43420243       0.28756883       0.12449906 </v>
   <v>      -0.19523485       0.36633356       0.16645779 </v>
   <v>      -0.31431685       0.28793049       0.12432231 </v>
   <v>       0.06660408      -0.29417762       0.21187246 </v>
   <v>      -0.18502759       0.20478035       0.21163748 </v>
   <v>      -0.18745329      -0.46926759       0.12438043 </v>
   <v>      -0.43758946       0.03271839       0.12458560 </v>
   <v>       0.31564000       0.20558990       0.21157214 </v>
   <v>       0.31198097      -0.46873834       0.12425875 </v>
   <v>      -0.44446864      -0.13447576       0.16657150 </v>
   <v>      -0.18341669      -0.29471479       0.21179377 </v>
   <v>       0.43187630      -0.38655106       0.16667184 </v>
   <v>      -0.31071668      -0.04430012       0.21208940 </v>
   <v>       0.31543662      -0.29572663       0.21230994 </v>
   <v>       0.44013292      -0.04382870       0.21222955 </v>
   <v>      -0.06007568       0.45501386       0.21194002 </v>
   <v>       0.18970019       0.45502717       0.21167328 </v>
   <v>      -0.31711642      -0.38800603       0.16680808 </v>
   <v>      -0.44420492       0.36582993       0.16678123 </v>
   <v>       0.05897532       0.03820755       0.25613904 </v>
   <v>       0.18430076      -0.21073307       0.25596043 </v>
   <v>      -0.06652612      -0.21130204       0.25584343 </v>
   <v>       0.30911842       0.03768173       0.25584423 </v>
   <v>      -0.43356649       0.20347291       0.21177974 </v>
   <v>      -0.19075073       0.03823598       0.25610040 </v>
   <v>      -0.43730242      -0.47046124       0.12488643 </v>
   <v>       0.18401730       0.28944975       0.25614472 </v>
   <v>      -0.31010336       0.45519199       0.21200554 </v>
   <v>      -0.06584214       0.28931812       0.25610297 </v>
   <v>       0.43976081       0.45525122       0.21189957 </v>
   <v>      -0.43429318      -0.29559268       0.21179215 </v>
   <v>       0.05951450      -0.46195285       0.25598647 </v>
   <v>       0.43362964      -0.21062010       0.25607676 </v>
   <v>      -0.31589776      -0.21060707       0.25610585 </v>
   <v>       0.43415516       0.28962819       0.25604759 </v>
   <v>      -0.31611512       0.28955537       0.25613016 </v>
   <v>       0.30847241      -0.46172841       0.25580177 </v>
   <v>      -0.44071523       0.03877949       0.25587995 </v>
   <v>      -0.19118077      -0.46169519       0.25626131 </v>
   <v>       0.06923726      -0.12562199       0.30045865 </v>
   <v>      -0.05512193       0.12391589       0.30031532 </v>
   <v>       0.19456543       0.12449996       0.30044278 </v>
   <v>      -0.18077101      -0.12514583       0.30042250 </v>
   <v>       0.31926802      -0.12578484       0.30022972 </v>
   <v>       0.06910670       0.37482617       0.30041277 </v>
   <v>      -0.05573755      -0.37539748       0.30013758 </v>
   <v>      -0.44164052      -0.46163855       0.25609052 </v>
   <v>      -0.30509569       0.12423861       0.30038667 </v>
   <v>       0.19432156      -0.37543990       0.30045220 </v>
   <v>      -0.18077356       0.37464690       0.30033337 </v>
   <v>       0.44408688       0.12468121       0.30047476 </v>
   <v>       0.31991562       0.37352410       0.30031285 </v>
   <v>      -0.30584582      -0.37503045       0.30031375 </v>
   <v>      -0.43063672      -0.12571265       0.30050143 </v>
   <v>       0.44511639      -0.37550624       0.30039741 </v>
   <v>      -0.43082581       0.37379013       0.30038337 </v>
   <v>      -0.06606200      -0.04844686       0.34490815 </v>
   <v>       0.18384825      -0.04763903       0.34509985 </v>
   <v>       0.05882958       0.20288538       0.34497715 </v>
   <v>       0.05851014      -0.29791765       0.34496922 </v>
   <v>       0.30869432       0.20244509       0.34488603 </v>
   <v>      -0.19108201       0.20250887       0.34509161 </v>
   <v>       0.30879004      -0.29795609       0.34494279 </v>
   <v>       0.43355520      -0.04728367       0.34508088 </v>
   <v>      -0.19132385      -0.29731681       0.34507970 </v>
   <v>      -0.31639700      -0.04829519       0.34488753 </v>
   <v>       0.18357349       0.45268799       0.34505983 </v>
   <v>      -0.06635963       0.45231208       0.34494239 </v>
   <v>      -0.44116065       0.20271277       0.34490911 </v>
   <v>       0.43379377       0.45267833       0.34511656 </v>
   <v>      -0.31638790       0.45230970       0.34510113 </v>
   <v>       0.06555562       0.03761723      -0.12463066 </v>
   <v>      -0.44125483      -0.29755828       0.34501744 </v>
   <v>       0.18757221      -0.20468084      -0.12429928 </v>
   <v>      -0.06266459      -0.20606035      -0.12478198 </v>
   <v>      -0.18698735       0.03984032      -0.12454826 </v>
   <v>       0.31462484       0.03934202      -0.12441469 </v>
   <v>       0.18831351       0.29457827      -0.12426939 </v>
   <v>      -0.06459065       0.29633127      -0.12469895 </v>
   <v>       0.06643789       0.03784449       0.38911059 </v>
   <v>       0.43681487      -0.20424116      -0.12425968 </v>
   <v>       0.06444638      -0.46124859      -0.12443286 </v>
   <v>      -0.31538294      -0.20393683      -0.12447802 </v>
   <v>       0.43649278       0.29653099      -0.12398494 </v>
   <v>      -0.31401059       0.29750184      -0.12420443 </v>
   <v>      -0.05874805      -0.21241746       0.38905021 </v>
   <v>       0.19287758      -0.21246880       0.38902689 </v>
   <v>      -0.18197262       0.03886975       0.38925066 </v>
   <v>      -0.05883611       0.28669997       0.38896111 </v>
   <v>       0.31639643       0.03715169       0.38902178 </v>
   <v>       0.19124721       0.28774296       0.38905386 </v>
   <v>       0.31412155      -0.46128271      -0.12422508 </v>
   <v>      -0.18668887      -0.46144293      -0.12440143 </v>
   <v>      -0.43659589       0.03900318      -0.12422485 </v>
   <v>      -0.30827381      -0.21228731       0.38906697 </v>
   <v>       0.06700322      -0.46166426       0.38919677 </v>
   <v>      -0.30857646       0.28735507       0.38905498 </v>
   <v>       0.44140048      -0.21227555       0.38908284 </v>
   <v>       0.44155063       0.28766114       0.38911560 </v>
   <v>      -0.18374244      -0.46251347       0.38907802 </v>
   <v>      -0.43366130       0.03793325       0.38909605 </v>
   <v>       0.31618064      -0.46215797       0.38905255 </v>
   <v>      -0.43638986      -0.46088554      -0.12430890 </v>
   <v>      -0.05821035      -0.03638760      -0.16640673 </v>
   <v>       0.19128011      -0.03743108      -0.16670562 </v>
   <v>       0.06654765       0.21375941      -0.16636324 </v>
   <v>       0.06629465      -0.28495967      -0.16643556 </v>
   <v>      -0.18205411       0.21392769      -0.16662703 </v>
   <v>       0.31670073       0.21255240      -0.16684140 </v>
   <v>      -0.43366127      -0.46233298       0.38907952 </v>
   <v>      -0.18315325      -0.28573158      -0.16694718 </v>
   <v>      -0.30852128      -0.03793194      -0.16681388 </v>
   <v>       0.31756130      -0.28742029      -0.16719444 </v>
   <v>       0.44254218      -0.03793605      -0.16687934 </v>
   <v>      -0.05835676       0.46293920      -0.16647703 </v>
   <v>       0.19160026       0.46269923      -0.16682911 </v>
   <v>       0.06210082      -0.12911893       0.43445892 </v>
   <v>       0.18753222       0.12004384       0.43440675 </v>
   <v>      -0.06297931       0.12000280       0.43457345 </v>
   <v>      -0.43381608       0.21301329      -0.16696116 </v>
   <v>      -0.30831889       0.46169216      -0.16691937 </v>
   <v>       0.44166829       0.46227860      -0.16686298 </v>
   <v>      -0.18842080      -0.12909658       0.43422166 </v>
   <v>       0.31201833      -0.12964093       0.43449744 </v>
   <v>      -0.43372088      -0.28738504      -0.16696149 </v>
   <v>       0.06268885       0.37113544       0.43440159 </v>
   <v>      -0.06261752      -0.37966898       0.43446439 </v>
   <v>       0.18698135      -0.37982539       0.43446831 </v>
   <v>      -0.31219708       0.11959314       0.43437093 </v>
   <v>       0.43698235       0.12064579       0.43437256 </v>
   <v>      -0.18833190       0.37122818       0.43422389 </v>
   <v>       0.31237380       0.37032945       0.43444499 </v>
   <v>      -0.31216937      -0.37965165       0.43446453 </v>
   <v>       0.43691383      -0.37913000       0.43444039 </v>
   <v>      -0.43771432      -0.12963205       0.43447745 </v>
   <v>      -0.43798649       0.37074557       0.43444141 </v>
   <v>       0.06006390      -0.12716178      -0.21181888 </v>
   <v>       0.18468797       0.12191776      -0.21168394 </v>
   <v>      -0.06492026       0.12272927      -0.21168701 </v>
   <v>       0.31103744      -0.12830766      -0.21190593 </v>
   <v>      -0.19038879      -0.12753182      -0.21181753 </v>
   <v>       0.06058584       0.37318898      -0.21185593 </v>
   <v>       0.43498824       0.12131370      -0.21143311 </v>
   <v>       0.18558984      -0.37893262      -0.21183266 </v>
   <v>      -0.06568901      -0.37720932      -0.21187367 </v>
   <v>       0.31037536       0.37200104      -0.21168180 </v>
   <v>      -0.31651300       0.12195095      -0.21171924 </v>
   <v>      -0.18948638       0.37342048      -0.21182794 </v>
   <v>       0.43374515      -0.37830509      -0.21146198 </v>
   <v>      -0.44018468      -0.12776416      -0.21167514 </v>
   <v>      -0.31549857      -0.37841357      -0.21170114 </v>
   <v>       0.18734771      -0.04423503       0.47869333 </v>
   <v>      -0.06284590      -0.04469415       0.47871753 </v>
   <v>       0.06252025       0.20587449       0.47865198 </v>
   <v>      -0.43981152       0.37186283      -0.21162709 </v>
   <v>       0.06226700      -0.29426014       0.47855773 </v>
   <v>      -0.18779203       0.20571788       0.47868298 </v>
   <v>       0.31232224       0.20569433       0.47871221 </v>
   <v>      -0.18758712      -0.29421809       0.47863145 </v>
   <v>       0.31220790      -0.29419166       0.47865349 </v>
   <v>      -0.31251070      -0.04442041       0.47867730 </v>
   <v>       0.43719618      -0.04417688       0.47864238 </v>
   <v>      -0.06270256       0.45557930       0.47867101 </v>
   <v>       0.18730718       0.45574723       0.47867482 </v>
   <v>      -0.43778808       0.20565766       0.47864225 </v>
   <v>       0.43741802       0.45580762       0.47856579 </v>
   <v>      -0.31295078       0.45566632       0.47863705 </v>
   <v>      -0.43764420      -0.29421314       0.47863902 </v>
   <v>       0.06571684       0.03989982      -0.25606845 </v>
   <v>      -0.05941387      -0.21002322      -0.25585809 </v>
   <v>       0.19011690      -0.20923899      -0.25597456 </v>
   <v>      -0.18436913       0.04005729      -0.25605895 </v>
   <v>      -0.06001318       0.29000469      -0.25594111 </v>
   <v>       0.31556159       0.04071446      -0.25614853 </v>
   <v>       0.19067705       0.28984621      -0.25603199 </v>
   <v>       0.06548492      -0.46011776      -0.25601060 </v>
   <v>      -0.30972391      -0.20934657      -0.25599905 </v>
   <v>       0.43996070      -0.20888822      -0.25589804 </v>
   <v>      -0.30946754       0.29036495      -0.25606997 </v>
   <v>       0.44012964       0.29077458      -0.25602301 </v>
   <v>      -0.18437504      -0.46006224      -0.25603290 </v>
   <v>       0.31553496      -0.45969780      -0.25609777 </v>
   <v>      -0.43418345       0.04052651      -0.25609477 </v>
   <v>       0.06165399      -0.12870053      -0.47861940 </v>
   <v>       0.18669827       0.12149839      -0.47861235 </v>
   <v>      -0.06349253       0.12153037      -0.47858407 </v>
   <v>      -0.18849931      -0.12867916      -0.47866432 </v>
   <v>       0.31165113      -0.12822500      -0.47861630 </v>
   <v>       0.06143960       0.37226448      -0.47864673 </v>
   <v>      -0.06350728      -0.37838952      -0.47859818 </v>
   <v>       0.18673901      -0.37861981      -0.47857843 </v>
   <v>       0.43666982       0.12154309      -0.47862570 </v>
   <v>      -0.31340547       0.12159980      -0.47863477 </v>
   <v>      -0.18823600       0.37189365      -0.47864509 </v>
   <v>       0.31145143       0.37183257      -0.47859792 </v>
   <v>      -0.43426270      -0.45943485      -0.25610651 </v>
   <v>       0.43655467      -0.37811628      -0.47869684 </v>
   <v>      -0.31345439      -0.37863768      -0.47872167 </v>
   <v>      -0.43822083      -0.12803518      -0.47858436 </v>
   <v>      -0.43831668       0.37164130      -0.47860266 </v>
   <v>       0.18502917      -0.04195906      -0.30036545 </v>
   <v>      -0.06482912      -0.04181661      -0.30043381 </v>
   <v>       0.06042819       0.20805222      -0.30040928 </v>
   <v>       0.06038411      -0.29205955      -0.30043417 </v>
   <v>       0.31039911       0.20790180      -0.30036476 </v>
   <v>      -0.18955373       0.20787010      -0.30036762 </v>
   <v>       0.31034496      -0.29233126      -0.30040528 </v>
   <v>      -0.18958418      -0.29203723      -0.30042515 </v>
   <v>       0.43526200      -0.04211595      -0.30043044 </v>
   <v>      -0.31485704      -0.04211307      -0.30040570 </v>
   <v>       0.18509733       0.45804971      -0.30040580 </v>
   <v>      -0.06481129       0.45805398      -0.30044760 </v>
   <v>      -0.43950941       0.20782013      -0.30041593 </v>
   <v>       0.43541063       0.45799605      -0.30044040 </v>
   <v>      -0.31509385       0.45793765      -0.30043146 </v>
   <v>      -0.06312235      -0.04263809      -0.43456087 </v>
   <v>       0.18698450      -0.04284506      -0.43453100 </v>
   <v>       0.06229046       0.20733249      -0.43463823 </v>
   <v>      -0.43956255      -0.29228059      -0.30043631 </v>
   <v>       0.06185901      -0.29370217      -0.43447848 </v>
   <v>      -0.18869560       0.20681734      -0.43454423 </v>
   <v>       0.31145688       0.20653098      -0.43450304 </v>
   <v>       0.31151421      -0.29272369      -0.43456426 </v>
   <v>      -0.18849459      -0.29338237      -0.43453337 </v>
   <v>       0.43697487      -0.04290442      -0.43461898 </v>
   <v>      -0.31253503      -0.04290260      -0.43451009 </v>
   <v>       0.18736048       0.45719516      -0.43452582 </v>
   <v>      -0.06334751       0.45667098      -0.43441315 </v>
   <v>      -0.43765950       0.20715413      -0.43451052 </v>
   <v>      -0.31316006       0.45696941      -0.43459487 </v>
   <v>       0.43690674       0.45702148      -0.43449338 </v>
   <v>      -0.43776807      -0.29278714      -0.43448525 </v>
   <v>       0.06641804      -0.12515865      -0.34511190 </v>
   <v>      -0.05865291       0.12492905      -0.34506871 </v>
   <v>       0.19136576       0.12500555      -0.34508264 </v>
   <v>      -0.18357831      -0.12506400      -0.34509078 </v>
   <v>       0.31649156      -0.12509441      -0.34507510 </v>
   <v>       0.06641380       0.37480899      -0.34509169 </v>
   <v>      -0.05851866      -0.37491351      -0.34511797 </v>
   <v>       0.19141941      -0.37499596      -0.34505085 </v>
   <v>      -0.30866848       0.12495075      -0.34507832 </v>
   <v>      -0.18350212       0.37490002      -0.34510175 </v>
   <v>       0.44149450       0.12490119      -0.34514021 </v>
   <v>       0.31652077       0.37466271      -0.34511144 </v>
   <v>      -0.30867857      -0.37512368      -0.34504569 </v>
   <v>      -0.43365816      -0.12536068      -0.34509445 </v>
   <v>       0.44153657      -0.37506880      -0.34508975 </v>
   <v>      -0.43358949       0.37478293      -0.34509069 </v>
   <v>       0.05881246       0.03790616      -0.38916205 </v>
   <v>       0.18365482      -0.21203215      -0.38913460 </v>
   <v>      -0.06631913      -0.21238727      -0.38907430 </v>
   <v>       0.30861614       0.03796468      -0.38904887 </v>
   <v>      -0.19120558       0.03791923      -0.38911302 </v>
   <v>       0.18380266       0.28801046      -0.38906838 </v>
   <v>      -0.06630087       0.28787497      -0.38911804 </v>
   <v>       0.43367683      -0.21193791      -0.38912105 </v>
   <v>       0.05866651      -0.46218346      -0.38907036 </v>
   <v>       0.43371075       0.28793123      -0.38914095 </v>
   <v>      -0.31625645      -0.21213159      -0.38911870 </v>
   <v>      -0.31634810       0.28805309      -0.38911239 </v>
   <v>       0.30871855      -0.46212841      -0.38910352 </v>
   <v>      -0.19125105      -0.46202533      -0.38907217 </v>
   <v>      -0.44111598       0.03815062      -0.38901791 </v>
   <v>      -0.44129937      -0.46202200      -0.38910130 </v>
  </varray>
 </structure>
 <varray name="primitive_index" >
  <v type="int" >        1 </v>
  <v type="int" >      125 </v>
  <v type="int" >       60 </v>
  <v type="int" >       83 </v>
  <v type="int" >       44 </v>
  <v type="int" >       26 </v>
  <v type="int" >      202 </v>
  <v type="int" >      256 </v>
  <v type="int" >      111 </v>
  <v type="int" >      155 </v>
  <v type="int" >      277 </v>
  <v type="int" >       51 </v>
  <v type="int" >      288 </v>
  <v type="int" >      182 </v>
  <v type="int" >      108 </v>
  <v type="int" >      212 </v>
  <v type="int" >      170 </v>
  <v type="int" >       20 </v>
  <v type="int" >      146 </v>
  <v type="int" >       50 </v>
  <v type="int" >      104 </v>
  <v type="int" >      163 </v>
  <v type="int" >      176 </v>
  <v type="int" >      166 </v>
  <v type="int" >      117 </v>
  <v type="int" >      284 </v>
  <v type="int" >      145 </v>
  <v type="int" >      250 </v>
  <v type="int" >      167 </v>
  <v type="int" >      205 </v>
  <v type="int" >      114 </v>
  <v type="int" >      249 </v>
  <v type="int" >       91 </v>
  <v type="int" >      192 </v>
  <v type="int" >      213 </v>
  <v type="int" >      174 </v>
  <v type="int" >       92 </v>
  <v type="int" >      276 </v>
  <v type="int" >      229 </v>
  <v type="int" >      175 </v>
  <v type="int" >      189 </v>
  <v type="int" >       97 </v>
  <v type="int" >       30 </v>
  <v type="int" >      185 </v>
  <v type="int" >      200 </v>
  <v type="int" >       52 </v>
  <v type="int" >      179 </v>
  <v type="int" >      103 </v>
  <v type="int" >       24 </v>
  <v type="int" >      283 </v>
  <v type="int" >      112 </v>
  <v type="int" >      261 </v>
  <v type="int" >      127 </v>
  <v type="int" >      139 </v>
  <v type="int" >      243 </v>
  <v type="int" >      168 </v>
  <v type="int" >      137 </v>
  <v type="int" >      118 </v>
  <v type="int" >      265 </v>
  <v type="int" >       58 </v>
  <v type="int" >      275 </v>
  <v type="int" >      221 </v>
  <v type="int" >       81 </v>
  <v type="int" >      214 </v>
  <v type="int" >      135 </v>
  <v type="int" >      215 </v>
  <v type="int" >       72 </v>
  <v type="int" >       98 </v>
  <v type="int" >      226 </v>
  <v type="int" >      178 </v>
  <v type="int" >       28 </v>
  <v type="int" >      109 </v>
  <v type="int" >      263 </v>
  <v type="int" >      220 </v>
  <v type="int" >      159 </v>
  <v type="int" >      242 </v>
  <v type="int" >      130 </v>
  <v type="int" >      210 </v>
  <v type="int" >      101 </v>
  <v type="int" >      171 </v>
  <v type="int" >      194 </v>
  <v type="int" >      258 </v>
  <v type="int" >       47 </v>
  <v type="int" >      216 </v>
  <v type="int" >       86 </v>
  <v type="int" >      207 </v>
  <v type="int" >      208 </v>
  <v type="int" >      172 </v>
  <v type="int" >       73 </v>
  <v type="int" >       25 </v>
  <v type="int" >      116 </v>
  <v type="int" >       12 </v>
  <v type="int" >      219 </v>
  <v type="int" >      206 </v>
  <v type="int" >       48 </v>
  <v type="int" >      282 </v>
  <v type="int" >      164 </v>
  <v type="int" >      268 </v>
  <v type="int" >      281 </v>
  <v type="int" >       14 </v>
  <v type="int" >      245 </v>
  <v type="int" >      120 </v>
  <v type="int" >      280 </v>
  <v type="int" >      124 </v>
  <v type="int" >      150 </v>
  <v type="int" >      266 </v>
  <v type="int" >       29 </v>
  <v type="int" >      255 </v>
  <v type="int" >      191 </v>
  <v type="int" >      190 </v>
  <v type="int" >      287 </v>
  <v type="int" >      279 </v>
  <v type="int" >       13 </v>
  <v type="int" >      165 </v>
  <v type="int" >      248 </v>
  <v type="int" >       18 </v>
  <v type="int" >      231 </v>
  <v type="int" >      161 </v>
  <v type="int" >       45 </v>
  <v type="int" >      273 </v>
  <v type="int" >       84 </v>
  <v type="int" >      264 </v>
  <v type="int" >        4 </v>
  <v type="int" >      123 </v>
  <v type="int" >       16 </v>
  <v type="int" >       67 </v>
  <v type="int" >       64 </v>
  <v type="int" >       17 </v>
  <v type="int" >        7 </v>
  <v type="int" >      259 </v>
  <v type="int" >      134 </v>
  <v type="int" >        6 </v>
  <v type="int" >       39 </v>
  <v type="int" >      222 </v>
  <v type="int" >      253 </v>
  <v type="int" >       88 </v>
  <v type="int" >        5 </v>
  <v type="int" >      110 </v>
  <v type="int" >       36 </v>
  <v type="int" >      181 </v>
  <v type="int" >      285 </v>
  <v type="int" >      160 </v>
  <v type="int" >      158 </v>
  <v type="int" >      143 </v>
  <v type="int" >       82 </v>
  <v type="int" >       74 </v>
  <v type="int" >      235 </v>
  <v type="int" >       23 </v>
  <v type="int" >      241 </v>
  <v type="int" >      218 </v>
  <v type="int" >      131 </v>
  <v type="int" >      238 </v>
  <v type="int" >      257 </v>
  <v type="int" >      201 </v>
  <v type="int" >       80 </v>
  <v type="int" >      113 </v>
  <v type="int" >      232 </v>
  <v type="int" >      278 </v>
  <v type="int" >       69 </v>
  <v type="int" >      251 </v>
  <v type="int" >      197 </v>
  <v type="int" >        3 </v>
  <v type="int" >      149 </v>
  <v type="int" >      224 </v>
  <v type="int" >       55 </v>
  <v type="int" >      254 </v>
  <v type="int" >       49 </v>
  <v type="int" >      272 </v>
  <v type="int" >      132 </v>
  <v type="int" >      138 </v>
  <v type="int" >      188 </v>
  <v type="int" >       57 </v>
  <v type="int" >      184 </v>
  <v type="int" >       33 </v>
  <v type="int" >       66 </v>
  <v type="int" >       94 </v>
  <v type="int" >      236 </v>
  <v type="int" >      223 </v>
  <v type="int" >      106 </v>
  <v type="int" >      157 </v>
  <v type="int" >       21 </v>
  <v type="int" >      230 </v>
  <v type="int" >      234 </v>
  <v type="int" >       99 </v>
  <v type="int" >       75 </v>
  <v type="int" >      105 </v>
  <v type="int" >      269 </v>
  <v type="int" >      244 </v>
  <v type="int" >      237 </v>
  <v type="int" >      156 </v>
  <v type="int" >      199 </v>
  <v type="int" >      169 </v>
  <v type="int" >        9 </v>
  <v type="int" >       46 </v>
  <v type="int" >      262 </v>
  <v type="int" >      151 </v>
  <v type="int" >      187 </v>
  <v type="int" >      239 </v>
  <v type="int" >       11 </v>
  <v type="int" >      211 </v>
  <v type="int" >       43 </v>
  <v type="int" >       31 </v>
  <v type="int" >       19 </v>
  <v type="int" >       71 </v>
  <v type="int" >       87 </v>
  <v type="int" >      102 </v>
  <v type="int" >      267 </v>
  <v type="int" >       27 </v>
  <v type="int" >      140 </v>
  <v type="int" >      286 </v>
  <v type="int" >       10 </v>
  <v type="int" >      144 </v>
  <v type="int" >      107 </v>
  <v type="int" >      203 </v>
  <v type="int" >       68 </v>
  <v type="int" >      119 </v>
  <v type="int" >       34 </v>
  <v type="int" >      177 </v>
  <v type="int" >      183 </v>
  <v type="int" >      270 </v>
  <v type="int" >      252 </v>
  <v type="int" >      195 </v>
  <v type="int" >       77 </v>
  <v type="int" >      247 </v>
  <v type="int" >      173 </v>
  <v type="int" >      225 </v>
  <v type="int" >       37 </v>
  <v type="int" >      274 </v>
  <v type="int" >       63 </v>
  <v type="int" >      233 </v>
  <v type="int" >      154 </v>
  <v type="int" >      141 </v>
  <v type="int" >       38 </v>
  <v type="int" >       54 </v>
  <v type="int" >      246 </v>
  <v type="int" >      152 </v>
  <v type="int" >       53 </v>
  <v type="int" >      193 </v>
  <v type="int" >       76 </v>
  <v type="int" >      129 </v>
  <v type="int" >      162 </v>
  <v type="int" >       62 </v>
  <v type="int" >      133 </v>
  <v type="int" >       65 </v>
  <v type="int" >      271 </v>
  <v type="int" >       93 </v>
  <v type="int" >       90 </v>
  <v type="int" >       32 </v>
  <v type="int" >       56 </v>
  <v type="int" >       95 </v>
  <v type="int" >       59 </v>
  <v type="int" >       42 </v>
  <v type="int" >        8 </v>
  <v type="int" >      228 </v>
  <v type="int" >       70 </v>
  <v type="int" >      186 </v>
  <v type="int" >      196 </v>
  <v type="int" >      122 </v>
  <v type="int" >      121 </v>
  <v type="int" >       79 </v>
  <v type="int" >        2 </v>
  <v type="int" >      198 </v>
  <v type="int" >      240 </v>
  <v type="int" >      153 </v>
  <v type="int" >      209 </v>
  <v type="int" >       35 </v>
  <v type="int" >      204 </v>
  <v type="int" >       85 </v>
  <v type="int" >      227 </v>
  <v type="int" >       89 </v>
  <v type="int" >       40 </v>
  <v type="int" >       78 </v>
  <v type="int" >      142 </v>
  <v type="int" >       15 </v>
  <v type="int" >      136 </v>
  <v type="int" >      148 </v>
  <v type="int" >      217 </v>
  <v type="int" >       61 </v>
  <v type="int" >      100 </v>
  <v type="int" >       96 </v>
  <v type="int" >      126 </v>
  <v type="int" >      115 </v>
  <v type="int" >      180 </v>
  <v type="int" >      147 </v>
  <v type="int" >       41 </v>
  <v type="int" >       22 </v>
  <v type="int" >      260 </v>
  <v type="int" >      128 </v>
 </varray>
 <kpoints>
  <generation param="Gamma">
   <v type="int" name="divisions">       4        4        1 </v>
   <v name="usershift">      0.00000000       0.00000000       0.00000000 </v>
   <v name="genvec1">      0.25000000       0.00000000       0.00000000 </v>
   <v name="genvec2">      0.00000000       0.25000000       0.00000000 </v>
   <v name="genvec3">      0.00000000       0.00000000       1.00000000 </v>
   <v name="shift">      0.00000000       0.00000000       0.00000000 </v>
  </generation>
  <varray name="kpointlist" >
   <v>       0.00000000       0.00000000       0.00000000 </v>
   <v>       0.25000000       0.00000000       0.00000000 </v>
   <v>       0.50000000       0.00000000       0.00000000 </v>
   <v>       0.00000000       0.25000000       0.00000000 </v>
   <v>       0.25000000       0.25000000       0.00000000 </v>
   <v>       0.50000000       0.25000000       0.00000000 </v>
   <v>      -0.25000000       0.25000000       0.00000000 </v>
   <v>       0.00000000       0.50000000       0.00000000 </v>
   <v>       0.25000000       0.50000000       0.00000000 </v>
   <v>       0.50000000       0.50000000       0.00000000 </v>
  </varray>
  <varray name="weights" >
   <v>       0.06250000 </v>
   <v>       0.12500000 </v>
   <v>       0.06250000 </v>
   <v>       0.12500000 </v>
   <v>       0.12500000 </v>
   <v>       0.12500000 </v>
   <v>       0.12500000 </v>
   <v>       0.06250000 </v>
   <v>       0.12500000 </v>
   <v>       0.06250000 </v>
  </varray>
 </kpoints>
 <parameters>
  <separator name="general" >
   <i type="string" name="SYSTEM">unknown system</i>
   <i type="logical" name="LCOMPAT"> F  </i>
  </separator>
  <separator name="electronic" >
   <i type="string" name="PREC">accura</i>
   <i name="ENMAX">    450.00000000</i>
   <i name="ENAUG">    838.43500000</i>
   <i name="EDIFF">      0.00000100</i>
   <i type="int" name="IALGO">    68</i>
   <i type="int" name="IWAVPR">    11</i>
   <i type="int" name="NBANDS">  1386</i>
   <i name="NELECT">   2290.00000000</i>
   <i type="int" name="TURBO">     0</i>
   <i type="int" name="IRESTART">     0</i>
   <i type="int" name="NREBOOT">     0</i>
   <i type="int" name="NMIN">     0</i>
   <i name="EREF">      0.00000000</i>
   <separator name="electronic smearing" >
    <i type="int" name="ISMEAR">     0</i>
    <i name="SIGMA">      0.15000000</i>
    <i name="KSPACING">      0.50000000</i>
    <i type="logical" name="KGAMMA"> T  </i>
   </separator>
   <separator name="electronic projectors" >
    <i type="logical" name="LREAL"> T  </i>
    <v name="ROPT">     -0.00025000     -0.00025000</v>
    <i type="int" name="LMAXPAW">  -100</i>
    <i type="int" name="LMAXMIX">     2</i>
    <i type="logical" name="NLSPLINE"> F  </i>
   </separator>
   <separator name="electronic startup" >
    <i type="int" name="ISTART">     0</i>
    <i type="int" name="ICHARG">     2</i>
    <i type="int" name="INIWAV">     1</i>
   </separator>
   <separator name="electronic spin" >
    <i type="int" name="ISPIN">     1</i>
    <i type="logical" name="LNONCOLLINEAR"> F  </i>
    <v name="MAGMOM">      1.00000000      1.00000000      1.00000000      1.00000000      1.00000000      1.00000000      1.00000000      1.00000000      1.00000000      1.00000000      1.00000000      1.00000000      1.00000000      1.00000000      1.00000000      1.00000000      1.00000000      1.00000000      1.00000000      1.00000000
      1.00000000      1.00000000      1.00000000      1.00000000      1.00000000      1.00000000      1.00000000      1.00000000      1.00000000      1.00000000      1.00000000      1.00000000      1.00000000      1.00000000      1.00000000      1.00000000      1.00000000      1.00000000      1.00000000      1.00000000
      1.00000000      1.00000000      1.00000000      1.00000000      1.00000000      1.00000000      1.00000000      1.00000000      1.00000000      1.00000000      1.00000000      1.00000000      1.00000000      1.00000000      1.00000000      1.00000000      1.00000000      1.00000000      1.00000000      1.00000000
      1.00000000      1.00000000      1.00000000      1.00000000      1.00000000      1.00000000      1.00000000      1.00000000      1.00000000      1.00000000      1.00000000      1.00000000      1.00000000      1.00000000      1.00000000      1.00000000      1.00000000      1.00000000      1.00000000      1.00000000
      1.00000000      1.00000000      1.00000000      1.00000000      1.00000000      1.00000000      1.00000000      1.00000000      1.00000000      1.00000000      1.00000000      1.00000000      1.00000000      1.00000000      1.00000000      1.00000000      1.00000000      1.00000000      1.00000000      1.00000000
      1.00000000      1.00000000      1.00000000      1.00000000      1.00000000      1.00000000      1.00000000      1.00000000      1.00000000      1.00000000      1.00000000      1.00000000      1.00000000      1.00000000      1.00000000      1.00000000      1.00000000      1.00000000      1.00000000      1.00000000
      1.00000000      1.00000000      1.00000000      1.00000000      1.00000000      1.00000000      1.00000000      1.00000000      1.00000000      1.00000000      1.00000000      1.00000000      1.00000000      1.00000000      1.00000000      1.00000000      1.00000000      1.00000000      1.00000000      1.00000000
      1.00000000      1.00000000      1.00000000      1.00000000      1.00000000      1.00000000      1.00000000      1.00000000      1.00000000      1.00000000      1.00000000      1.00000000      1.00000000      1.00000000      1.00000000      1.00000000      1.00000000      1.00000000      1.00000000      1.00000000
      1.00000000      1.00000000      1.00000000      1.00000000      1.00000000      1.00000000      1.00000000      1.00000000      1.00000000      1.00000000      1.00000000      1.00000000      1.00000000      1.00000000      1.00000000      1.00000000      1.00000000      1.00000000      1.00000000      1.00000000
      1.00000000      1.00000000      1.00000000      1.00000000      1.00000000      1.00000000      1.00000000      1.00000000      1.00000000      1.00000000      1.00000000      1.00000000      1.00000000      1.00000000      1.00000000      1.00000000      1.00000000      1.00000000      1.00000000      1.00000000
      1.00000000      1.00000000      1.00000000      1.00000000      1.00000000      1.00000000      1.00000000      1.00000000      1.00000000      1.00000000      1.00000000      1.00000000      1.00000000      1.00000000      1.00000000      1.00000000      1.00000000      1.00000000      1.00000000      1.00000000
      1.00000000      1.00000000      1.00000000      1.00000000      1.00000000      1.00000000      1.00000000      1.00000000      1.00000000      1.00000000      1.00000000      1.00000000      1.00000000      1.00000000      1.00000000      1.00000000      1.00000000      1.00000000      1.00000000      1.00000000
      1.00000000      1.00000000      1.00000000      1.00000000      1.00000000      1.00000000      1.00000000      1.00000000      1.00000000      1.00000000      1.00000000      1.00000000      1.00000000      1.00000000      1.00000000      1.00000000      1.00000000      1.00000000      1.00000000      1.00000000
      1.00000000      1.00000000      1.00000000      1.00000000      1.00000000      1.00000000      1.00000000      1.00000000      1.00000000      1.00000000      1.00000000      1.00000000      1.00000000      1.00000000      1.00000000      1.00000000      1.00000000      1.00000000      1.00000000      1.00000000
      1.00000000      1.00000000      1.00000000      1.00000000      1.00000000      1.00000000      1.00000000      1.00000000</v>
    <i name="NUPDOWN">     -1.00000000</i>
    <i type="logical" name="LSORBIT"> F  </i>
    <v name="SAXIS">      0.00000000      0.00000000      1.00000000</v>
    <i type="logical" name="LSPIRAL"> F  </i>
    <v name="QSPIRAL">      0.00000000      0.00000000      0.00000000</v>
    <i type="logical" name="LZEROZ"> F  </i>
   </separator>
   <separator name="electronic exchange-correlation" >
    <i type="logical" name="LASPH"> F  </i>
    <i type="logical" name="LMETAGGA"> F  </i>
   </separator>
   <separator name="electronic convergence" >
    <i type="int" name="NELM">   100</i>
    <i type="int" name="NELMDL">     0</i>
    <i type="int" name="NELMIN">     4</i>
    <i name="ENINI">    450.00000000</i>
    <separator name="electronic convergence detail" >
     <i type="logical" name="LDIAG"> T  </i>
     <i type="logical" name="LSUBROT"> F  </i>
     <i name="WEIMIN">      0.00100000</i>
     <i name="EBREAK">      0.00000000</i>
     <i name="DEPER">      0.30000000</i>
     <i type="int" name="NRMM">     4</i>
     <i name="TIME">      0.40000000</i>
    </separator>
   </separator>
   <separator name="electronic mixer" >
    <i name="AMIX">      0.40000000</i>
    <i name="BMIX">      1.00000000</i>
    <i name="AMIN">      0.10000000</i>
    <i name="AMIX_MAG">      1.60000000</i>
    <i name="BMIX_MAG">      1.00000000</i>
    <separator name="electronic mixer details" >
     <i type="int" name="IMIX">     4</i>
     <i type="logical" name="MIXFIRST"> F  </i>
     <i type="int" name="MAXMIX">   -45</i>
     <i name="WC">    100.00000000</i>
     <i type="int" name="INIMIX">     1</i>
     <i type="int" name="MIXPRE">     1</i>
     <i type="int" name="MREMOVE">     5</i>
    </separator>
   </separator>
   <separator name="electronic dipolcorrection" >
    <i type="logical" name="LDIPOL"> F  </i>
    <i type="logical" name="LMONO"> F  </i>
    <i type="int" name="IDIPOL">     0</i>
    <i name="EPSILON">      1.00000000</i>
    <v name="DIPOL">   -100.00000000   -100.00000000   -100.00000000</v>
    <i name="EFIELD">      0.00000000</i>
   </separator>
  </separator>
  <separator name="grids" >
   <i type="int" name="NGX">    70</i>
   <i type="int" name="NGY">    60</i>
   <i type="int" name="NGZ">   320</i>
   <i type="int" name="NGXF">   140</i>
   <i type="int" name="NGYF">   120</i>
   <i type="int" name="NGZF">   640</i>
   <i type="logical" name="ADDGRID"> F  </i>
  </separator>
  <separator name="ionic" >
   <i type="int" name="NSW">     5</i>
   <i type="int" name="IBRION">     2</i>
   <i type="int" name="MDALGO">     0</i>
   <i type="int" name="ISIF">     2</i>
   <i name="PSTRESS">      0.00000000</i>
   <i name="EDIFFG">      0.00001000</i>
   <i type="int" name="NFREE">     1</i>
   <i name="POTIM">      0.25000000</i>
   <i name="SMASS">     -3.00000000</i>
   <i name="SCALEE">      1.00000000</i>
  </separator>
  <separator name="ionic md" >
   <i name="TEBEG">      0.00010000</i>
   <i name="TEEND">      0.00010000</i>
   <i type="int" name="NBLOCK">     1</i>
   <i type="int" name="KBLOCK">     5</i>
   <i type="int" name="NPACO">   256</i>
   <i name="APACO">     16.00000000</i>
  </separator>
  <separator name="symmetry" >
   <i type="int" name="ISYM">     2</i>
   <i name="SYMPREC">      0.00001000</i>
  </separator>
  <separator name="dos" >
   <i type="int" name="LORBIT">     0</i>
   <v name="RWIGS">     -1.00000000     -1.00000000</v>
   <i type="int" name="NEDOS">   301</i>
   <i name="EMIN">     10.00000000</i>
   <i name="EMAX">    -10.00000000</i>
   <i name="EFERMI">      0.00000000</i>
  </separator>
  <separator name="writing" >
   <i type="int" name="NWRITE">     2</i>
   <i type="logical" name="LWAVE"> F  </i>
   <i type="logical" name="LDOWNSAMPLE"> F  </i>
   <i type="logical" name="LCHARG"> F  </i>
   <i type="logical" name="LPARD"> F  </i>
   <i type="logical" name="LVTOT"> F  </i>
   <i type="logical" name="LVHAR"> F  </i>
   <i type="logical" name="LELF"> F  </i>
   <i type="logical" name="LOPTICS"> F  </i>
   <v name="STM">      0.00000000      0.00000000      0.00000000      0.00000000      0.00000000      0.00000000      0.00000000</v>
  </separator>
  <separator name="performance" >
   <i type="int" name="NPAR">    14</i>
   <i type="int" name="NSIM">     4</i>
   <i type="int" name="NBLK">    -1</i>
   <i type="logical" name="LPLANE"> T  </i>
   <i type="logical" name="LSCALAPACK"> T  </i>
   <i type="logical" name="LSCAAWARE"> T  </i>
   <i type="logical" name="LSCALU"> F  </i>
   <i type="logical" name="LASYNC"> F  </i>
   <i type="logical" name="LORBITALREAL"> F  </i>
  </separator>
  <separator name="miscellaneous" >
   <i type="int" name="IDIOT">     3</i>
   <i type="int" name="ISPECIAL">     0</i>
   <i type="logical" name="LMUSIC"> F  </i>
   <v name="POMASS">     55.84700000     54.93800000</v>
   <v name="DARWINR">      0.00000000      0.00000000</v>
   <v name="DARWINV">      1.00000000      1.00000000</v>
   <i type="logical" name="LCORR"> T  </i>
  </separator>
  <i type="logical" name="GGA_COMPAT"> T  </i>
  <i type="logical" name="LBERRY"> F  </i>
  <i type="int" name="ICORELEVEL">     0</i>
  <i type="logical" name="LDAU"> F  </i>
  <i type="int" name="I_CONSTRAINED_M">     0</i>
  <separator name="electronic exchange-correlation" >
   <i type="string" name="GGA">--</i>
   <i type="int" name="VOSKOWN">     0</i>
   <i type="logical" name="LHFCALC"> F  </i>
   <i type="string" name="PRECFOCK"></i>
   <i type="logical" name="LSYMGRAD"> F  </i>
   <i type="logical" name="LHFONE"> F  </i>
   <i type="logical" name="LRHFCALC"> F  </i>
   <i type="logical" name="LTHOMAS"> F  </i>
   <i type="logical" name="LMODELHF"> F  </i>
   <i name="ENCUT4O">     -1.00000000</i>
   <i type="int" name="EXXOEP">     0</i>
   <i type="int" name="FOURORBIT">     0</i>
   <i name="AEXX">      0.00000000</i>
   <i name="HFALPHA">      0.00000000</i>
   <i name="MCALPHA">      0.00000000</i>
   <i name="ALDAX">      1.00000000</i>
   <i name="AGGAX">      1.00000000</i>
   <i name="ALDAC">      1.00000000</i>
   <i name="AGGAC">      1.00000000</i>
   <i type="int" name="NKREDX">     1</i>
   <i type="int" name="NKREDY">     1</i>
   <i type="int" name="NKREDZ">     1</i>
   <i type="logical" name="SHIFTRED"> F  </i>
   <i type="logical" name="ODDONLY"> F  </i>
   <i type="logical" name="EVENONLY"> F  </i>
   <i type="int" name="LMAXFOCK">     0</i>
   <i type="int" name="NMAXFOCKAE">     0</i>
   <i type="logical" name="LFOCKAEDFT"> F  </i>
   <i name="HFSCREEN">      0.00000000</i>
   <i name="HFSCREENC">      0.00000000</i>
   <i type="int" name="NBANDSGWLOW">     0</i>
  </separator>
  <separator name="vdW DFT" >
   <i type="logical" name="LUSE_VDW"> F  </i>
   <i name="Zab_VDW">     -0.84910000</i>
   <i name="PARAM1">      0.12340000</i>
   <i name="PARAM2">      1.00000000</i>
   <i name="PARAM3">      0.00000000</i>
  </separator>
  <separator name="model GW" >
   <i type="int" name="MODEL_GW">     0</i>
   <i name="MODEL_EPS0">      7.68123389</i>
   <i name="MODEL_ALPHA">      1.00000000</i>
  </separator>
  <separator name="linear response parameters" >
   <i type="logical" name="LEPSILON"> F  </i>
   <i type="logical" name="LRPA"> F  </i>
   <i type="logical" name="LNABLA"> F  </i>
   <i type="logical" name="LVEL"> F  </i>
   <i type="int" name="KINTER">     0</i>
   <i name="CSHIFT">      0.10000000</i>
   <i name="OMEGAMAX">     -1.00000000</i>
   <i name="DEG_THRESHOLD">      0.00200000</i>
   <i name="RTIME">     -0.10000000</i>
   <i name="WPLASMAI">      0.00000000</i>
   <v name="DFIELD">      0.00000000      0.00000000      0.00000000</v>
   <v name="WPLASMA">      0.00000000      0.00000000      0.00000000      0.00000000      0.00000000      0.00000000      0.00000000      0.00000000      0.00000000</v>
  </separator>
  <separator name="orbital magnetization" >
   <i type="logical" name="NUCIND"> F  </i>
   <v name="MAGPOS">      0.00000000      0.00000000      0.00000000</v>
   <i type="logical" name="LNICSALL"> T  </i>
   <i type="logical" name="ORBITALMAG"> F  </i>
   <i type="logical" name="LMAGBLOCH"> F  </i>
   <i type="logical" name="LCHIMAG"> F  </i>
   <i type="logical" name="LGAUGE"> T  </i>
   <i type="int" name="MAGATOM">     0</i>
   <v name="MAGDIPOL">      0.00000000      0.00000000      0.00000000</v>
   <v name="AVECCONST">      0.00000000      0.00000000      0.00000000</v>
  </separator>
  <separator name="response functions" >
   <i type="logical" name="LADDER"> F  </i>
   <i type="logical" name="LRPAFORCE"> F  </i>
   <i type="logical" name="LFXC"> F  </i>
   <i type="logical" name="LHARTREE"> T  </i>
   <i type="int" name="IBSE">     0</i>
   <v type="int" name="KPOINT">    -1     0     0     0</v>
   <i type="logical" name="LTCTE"> F  </i>
   <i type="logical" name="LTETE"> F  </i>
   <i type="logical" name="LTRIPLET"> F  </i>
   <i type="logical" name="LFXCEPS"> F  </i>
   <i type="logical" name="LFXHEG"> F  </i>
   <i type="int" name="NATURALO">     2</i>
   <i type="logical" name="L2ORDER"> F  </i>
   <i type="logical" name="LMP2LT"> F  </i>
   <i type="logical" name="LUSEW"> F  </i>
   <i name="ENCUTGW">     -2.00000000</i>
   <i name="ENCUTGWSOFT">     -2.00000000</i>
   <i name="ENCUTLF">     -1.00000000</i>
   <i type="int" name="LMAXMP2">    -1</i>
   <i name="SCISSOR">      0.00000000</i>
   <i type="int" name="NOMEGA">     0</i>
   <i type="int" name="NOMEGAR">     0</i>
   <i type="int" name="NBANDSGW">    -1</i>
   <i type="int" name="NBANDSO">    -1</i>
   <i type="int" name="NBANDSV">    -1</i>
   <i type="int" name="NELM">   100</i>
   <i type="int" name="NELMHF">     1</i>
   <i type="int" name="DIM">     3</i>
   <i type="int" name="ANTIRES">     0</i>
   <i name="OMEGAMAX">    -30.00000000</i>
   <i name="OMEGAMIN">    -30.00000000</i>
   <i name="OMEGATL">   -200.00000000</i>
   <i type="int" name="OMEGAGRID">   140</i>
   <i name="CSHIFT">     -0.10000000</i>
   <i type="logical" name="SELFENERGY"> F  </i>
   <i type="logical" name="LSPECTRAL"> F  </i>
   <i type="logical" name="LSPECTRALGW"> F  </i>
   <i type="logical" name="LSINGLES"> F  </i>
   <i type="logical" name="LFERMIGW"> F  </i>
   <i type="logical" name="ODDONLYGW"> F  </i>
   <i type="logical" name="EVENONLYGW"> F  </i>
   <i type="int" name="NKREDLFX">     1</i>
   <i type="int" name="NKREDLFY">     1</i>
   <i type="int" name="NKREDLFZ">     1</i>
   <i type="int" name="MAXMEM">  2800</i>
   <i type="int" name="TELESCOPE">     0</i>
   <i type="int" name="TAUPAR">     1</i>
   <i type="int" name="OMEGAPAR">    -1</i>
   <i name="LAMBDA">      1.00000000</i>
  </separator>
  <separator name="External order field" >
   <i name="OFIELD_KAPPA">      0.00000000</i>
   <v name="OFIELD_K">      0.00000000      0.00000000      0.00000000</v>
   <i name="OFIELD_Q6_NEAR">      0.00000000</i>
   <i name="OFIELD_Q6_FAR">      0.00000000</i>
   <i name="OFIELD_A">      0.00000000</i>
  </separator>
 </parameters>
 <atominfo>
  <atoms>     288 </atoms>
  <types>       2 </types>
  <array name="atoms" >
   <dimension dim="1">ion</dimension>
   <field type="string">element</field>
   <field type="int">atomtype</field>
   <set>
    <rc><c>Fe</c><c>   1</c></rc>
    <rc><c>Fe</c><c>   1</c></rc>
    <rc><c>Fe</c><c>   1</c></rc>
    <rc><c>Fe</c><c>   1</c></rc>
    <rc><c>Fe</c><c>   1</c></rc>
    <rc><c>Fe</c><c>   1</c></rc>
    <rc><c>Fe</c><c>   1</c></rc>
    <rc><c>Fe</c><c>   1</c></rc>
    <rc><c>Fe</c><c>   1</c></rc>
    <rc><c>Fe</c><c>   1</c></rc>
    <rc><c>Fe</c><c>   1</c></rc>
    <rc><c>Fe</c><c>   1</c></rc>
    <rc><c>Fe</c><c>   1</c></rc>
    <rc><c>Fe</c><c>   1</c></rc>
    <rc><c>Fe</c><c>   1</c></rc>
    <rc><c>Fe</c><c>   1</c></rc>
    <rc><c>Fe</c><c>   1</c></rc>
    <rc><c>Fe</c><c>   1</c></rc>
    <rc><c>Fe</c><c>   1</c></rc>
    <rc><c>Fe</c><c>   1</c></rc>
    <rc><c>Fe</c><c>   1</c></rc>
    <rc><c>Fe</c><c>   1</c></rc>
    <rc><c>Fe</c><c>   1</c></rc>
    <rc><c>Fe</c><c>   1</c></rc>
    <rc><c>Fe</c><c>   1</c></rc>
    <rc><c>Fe</c><c>   1</c></rc>
    <rc><c>Fe</c><c>   1</c></rc>
    <rc><c>Fe</c><c>   1</c></rc>
    <rc><c>Fe</c><c>   1</c></rc>
    <rc><c>Fe</c><c>   1</c></rc>
    <rc><c>Fe</c><c>   1</c></rc>
    <rc><c>Fe</c><c>   1</c></rc>
    <rc><c>Fe</c><c>   1</c></rc>
    <rc><c>Fe</c><c>   1</c></rc>
    <rc><c>Fe</c><c>   1</c></rc>
    <rc><c>Fe</c><c>   1</c></rc>
    <rc><c>Fe</c><c>   1</c></rc>
    <rc><c>Fe</c><c>   1</c></rc>
    <rc><c>Fe</c><c>   1</c></rc>
    <rc><c>Fe</c><c>   1</c></rc>
    <rc><c>Fe</c><c>   1</c></rc>
    <rc><c>Fe</c><c>   1</c></rc>
    <rc><c>Fe</c><c>   1</c></rc>
    <rc><c>Fe</c><c>   1</c></rc>
    <rc><c>Fe</c><c>   1</c></rc>
    <rc><c>Fe</c><c>   1</c></rc>
    <rc><c>Fe</c><c>   1</c></rc>
    <rc><c>Fe</c><c>   1</c></rc>
    <rc><c>Fe</c><c>   1</c></rc>
    <rc><c>Fe</c><c>   1</c></rc>
    <rc><c>Fe</c><c>   1</c></rc>
    <rc><c>Fe</c><c>   1</c></rc>
    <rc><c>Fe</c><c>   1</c></rc>
    <rc><c>Fe</c><c>   1</c></rc>
    <rc><c>Fe</c><c>   1</c></rc>
    <rc><c>Fe</c><c>   1</c></rc>
    <rc><c>Fe</c><c>   1</c></rc>
    <rc><c>Fe</c><c>   1</c></rc>
    <rc><c>Fe</c><c>   1</c></rc>
    <rc><c>Fe</c><c>   1</c></rc>
    <rc><c>Fe</c><c>   1</c></rc>
    <rc><c>Fe</c><c>   1</c></rc>
    <rc><c>Fe</c><c>   1</c></rc>
    <rc><c>Fe</c><c>   1</c></rc>
    <rc><c>Fe</c><c>   1</c></rc>
    <rc><c>Fe</c><c>   1</c></rc>
    <rc><c>Fe</c><c>   1</c></rc>
    <rc><c>Fe</c><c>   1</c></rc>
    <rc><c>Fe</c><c>   1</c></rc>
    <rc><c>Fe</c><c>   1</c></rc>
    <rc><c>Fe</c><c>   1</c></rc>
    <rc><c>Fe</c><c>   1</c></rc>
    <rc><c>Fe</c><c>   1</c></rc>
    <rc><c>Fe</c><c>   1</c></rc>
    <rc><c>Fe</c><c>   1</c></rc>
    <rc><c>Fe</c><c>   1</c></rc>
    <rc><c>Fe</c><c>   1</c></rc>
    <rc><c>Fe</c><c>   1</c></rc>
    <rc><c>Fe</c><c>   1</c></rc>
    <rc><c>Fe</c><c>   1</c></rc>
    <rc><c>Fe</c><c>   1</c></rc>
    <rc><c>Fe</c><c>   1</c></rc>
    <rc><c>Fe</c><c>   1</c></rc>
    <rc><c>Fe</c><c>   1</c></rc>
    <rc><c>Fe</c><c>   1</c></rc>
    <rc><c>Fe</c><c>   1</c></rc>
    <rc><c>Fe</c><c>   1</c></rc>
    <rc><c>Fe</c><c>   1</c></rc>
    <rc><c>Fe</c><c>   1</c></rc>
    <rc><c>Fe</c><c>   1</c></rc>
    <rc><c>Fe</c><c>   1</c></rc>
    <rc><c>Fe</c><c>   1</c></rc>
    <rc><c>Fe</c><c>   1</c></rc>
    <rc><c>Fe</c><c>   1</c></rc>
    <rc><c>Fe</c><c>   1</c></rc>
    <rc><c>Fe</c><c>   1</c></rc>
    <rc><c>Fe</c><c>   1</c></rc>
    <rc><c>Fe</c><c>   1</c></rc>
    <rc><c>Fe</c><c>   1</c></rc>
    <rc><c>Fe</c><c>   1</c></rc>
    <rc><c>Fe</c><c>   1</c></rc>
    <rc><c>Fe</c><c>   1</c></rc>
    <rc><c>Fe</c><c>   1</c></rc>
    <rc><c>Fe</c><c>   1</c></rc>
    <rc><c>Fe</c><c>   1</c></rc>
    <rc><c>Fe</c><c>   1</c></rc>
    <rc><c>Fe</c><c>   1</c></rc>
    <rc><c>Fe</c><c>   1</c></rc>
    <rc><c>Fe</c><c>   1</c></rc>
    <rc><c>Fe</c><c>   1</c></rc>
    <rc><c>Fe</c><c>   1</c></rc>
    <rc><c>Fe</c><c>   1</c></rc>
    <rc><c>Fe</c><c>   1</c></rc>
    <rc><c>Fe</c><c>   1</c></rc>
    <rc><c>Fe</c><c>   1</c></rc>
    <rc><c>Fe</c><c>   1</c></rc>
    <rc><c>Fe</c><c>   1</c></rc>
    <rc><c>Fe</c><c>   1</c></rc>
    <rc><c>Fe</c><c>   1</c></rc>
    <rc><c>Fe</c><c>   1</c></rc>
    <rc><c>Fe</c><c>   1</c></rc>
    <rc><c>Fe</c><c>   1</c></rc>
    <rc><c>Fe</c><c>   1</c></rc>
    <rc><c>Fe</c><c>   1</c></rc>
    <rc><c>Fe</c><c>   1</c></rc>
    <rc><c>Fe</c><c>   1</c></rc>
    <rc><c>Fe</c><c>   1</c></rc>
    <rc><c>Fe</c><c>   1</c></rc>
    <rc><c>Fe</c><c>   1</c></rc>
    <rc><c>Fe</c><c>   1</c></rc>
    <rc><c>Fe</c><c>   1</c></rc>
    <rc><c>Fe</c><c>   1</c></rc>
    <rc><c>Fe</c><c>   1</c></rc>
    <rc><c>Fe</c><c>   1</c></rc>
    <rc><c>Fe</c><c>   1</c></rc>
    <rc><c>Fe</c><c>   1</c></rc>
    <rc><c>Fe</c><c>   1</c></rc>
    <rc><c>Fe</c><c>   1</c></rc>
    <rc><c>Fe</c><c>   1</c></rc>
    <rc><c>Fe</c><c>   1</c></rc>
    <rc><c>Fe</c><c>   1</c></rc>
    <rc><c>Fe</c><c>   1</c></rc>
    <rc><c>Fe</c><c>   1</c></rc>
    <rc><c>Fe</c><c>   1</c></rc>
    <rc><c>Fe</c><c>   1</c></rc>
    <rc><c>Fe</c><c>   1</c></rc>
    <rc><c>Fe</c><c>   1</c></rc>
    <rc><c>Fe</c><c>   1</c></rc>
    <rc><c>Fe</c><c>   1</c></rc>
    <rc><c>Fe</c><c>   1</c></rc>
    <rc><c>Fe</c><c>   1</c></rc>
    <rc><c>Fe</c><c>   1</c></rc>
    <rc><c>Fe</c><c>   1</c></rc>
    <rc><c>Fe</c><c>   1</c></rc>
    <rc><c>Fe</c><c>   1</c></rc>
    <rc><c>Fe</c><c>   1</c></rc>
    <rc><c>Fe</c><c>   1</c></rc>
    <rc><c>Fe</c><c>   1</c></rc>
    <rc><c>Fe</c><c>   1</c></rc>
    <rc><c>Fe</c><c>   1</c></rc>
    <rc><c>Fe</c><c>   1</c></rc>
    <rc><c>Fe</c><c>   1</c></rc>
    <rc><c>Fe</c><c>   1</c></rc>
    <rc><c>Fe</c><c>   1</c></rc>
    <rc><c>Fe</c><c>   1</c></rc>
    <rc><c>Fe</c><c>   1</c></rc>
    <rc><c>Fe</c><c>   1</c></rc>
    <rc><c>Fe</c><c>   1</c></rc>
    <rc><c>Fe</c><c>   1</c></rc>
    <rc><c>Fe</c><c>   1</c></rc>
    <rc><c>Fe</c><c>   1</c></rc>
    <rc><c>Fe</c><c>   1</c></rc>
    <rc><c>Fe</c><c>   1</c></rc>
    <rc><c>Fe</c><c>   1</c></rc>
    <rc><c>Fe</c><c>   1</c></rc>
    <rc><c>Fe</c><c>   1</c></rc>
    <rc><c>Fe</c><c>   1</c></rc>
    <rc><c>Fe</c><c>   1</c></rc>
    <rc><c>Fe</c><c>   1</c></rc>
    <rc><c>Fe</c><c>   1</c></rc>
    <rc><c>Fe</c><c>   1</c></rc>
    <rc><c>Fe</c><c>   1</c></rc>
    <rc><c>Fe</c><c>   1</c></rc>
    <rc><c>Fe</c><c>   1</c></rc>
    <rc><c>Fe</c><c>   1</c></rc>
    <rc><c>Fe</c><c>   1</c></rc>
    <rc><c>Fe</c><c>   1</c></rc>
    <rc><c>Fe</c><c>   1</c></rc>
    <rc><c>Fe</c><c>   1</c></rc>
    <rc><c>Fe</c><c>   1</c></rc>
    <rc><c>Fe</c><c>   1</c></rc>
    <rc><c>Fe</c><c>   1</c></rc>
    <rc><c>Fe</c><c>   1</c></rc>
    <rc><c>Fe</c><c>   1</c></rc>
    <rc><c>Fe</c><c>   1</c></rc>
    <rc><c>Fe</c><c>   1</c></rc>
    <rc><c>Fe</c><c>   1</c></rc>
    <rc><c>Fe</c><c>   1</c></rc>
    <rc><c>Fe</c><c>   1</c></rc>
    <rc><c>Fe</c><c>   1</c></rc>
    <rc><c>Fe</c><c>   1</c></rc>
    <rc><c>Fe</c><c>   1</c></rc>
    <rc><c>Fe</c><c>   1</c></rc>
    <rc><c>Fe</c><c>   1</c></rc>
    <rc><c>Fe</c><c>   1</c></rc>
    <rc><c>Fe</c><c>   1</c></rc>
    <rc><c>Fe</c><c>   1</c></rc>
    <rc><c>Fe</c><c>   1</c></rc>
    <rc><c>Fe</c><c>   1</c></rc>
    <rc><c>Fe</c><c>   1</c></rc>
    <rc><c>Fe</c><c>   1</c></rc>
    <rc><c>Fe</c><c>   1</c></rc>
    <rc><c>Fe</c><c>   1</c></rc>
    <rc><c>Fe</c><c>   1</c></rc>
    <rc><c>Fe</c><c>   1</c></rc>
    <rc><c>Fe</c><c>   1</c></rc>
    <rc><c>Fe</c><c>   1</c></rc>
    <rc><c>Fe</c><c>   1</c></rc>
    <rc><c>Fe</c><c>   1</c></rc>
    <rc><c>Fe</c><c>   1</c></rc>
    <rc><c>Fe</c><c>   1</c></rc>
    <rc><c>Fe</c><c>   1</c></rc>
    <rc><c>Fe</c><c>   1</c></rc>
    <rc><c>Fe</c><c>   1</c></rc>
    <rc><c>Fe</c><c>   1</c></rc>
    <rc><c>Fe</c><c>   1</c></rc>
    <rc><c>Fe</c><c>   1</c></rc>
    <rc><c>Fe</c><c>   1</c></rc>
    <rc><c>Fe</c><c>   1</c></rc>
    <rc><c>Fe</c><c>   1</c></rc>
    <rc><c>Fe</c><c>   1</c></rc>
    <rc><c>Fe</c><c>   1</c></rc>
    <rc><c>Fe</c><c>   1</c></rc>
    <rc><c>Fe</c><c>   1</c></rc>
    <rc><c>Fe</c><c>   1</c></rc>
    <rc><c>Fe</c><c>   1</c></rc>
    <rc><c>Fe</c><c>   1</c></rc>
    <rc><c>Fe</c><c>   1</c></rc>
    <rc><c>Fe</c><c>   1</c></rc>
    <rc><c>Fe</c><c>   1</c></rc>
    <rc><c>Fe</c><c>   1</c></rc>
    <rc><c>Fe</c><c>   1</c></rc>
    <rc><c>Fe</c><c>   1</c></rc>
    <rc><c>Fe</c><c>   1</c></rc>
    <rc><c>Fe</c><c>   1</c></rc>
    <rc><c>Fe</c><c>   1</c></rc>
    <rc><c>Fe</c><c>   1</c></rc>
    <rc><c>Fe</c><c>   1</c></rc>
    <rc><c>Fe</c><c>   1</c></rc>
    <rc><c>Fe</c><c>   1</c></rc>
    <rc><c>Fe</c><c>   1</c></rc>
    <rc><c>Fe</c><c>   1</c></rc>
    <rc><c>Fe</c><c>   1</c></rc>
    <rc><c>Fe</c><c>   1</c></rc>
    <rc><c>Fe</c><c>   1</c></rc>
    <rc><c>Fe</c><c>   1</c></rc>
    <rc><c>Fe</c><c>   1</c></rc>
    <rc><c>Fe</c><c>   1</c></rc>
    <rc><c>Fe</c><c>   1</c></rc>
    <rc><c>Fe</c><c>   1</c></rc>
    <rc><c>Fe</c><c>   1</c></rc>
    <rc><c>Fe</c><c>   1</c></rc>
    <rc><c>Fe</c><c>   1</c></rc>
    <rc><c>Fe</c><c>   1</c></rc>
    <rc><c>Fe</c><c>   1</c></rc>
    <rc><c>Fe</c><c>   1</c></rc>
    <rc><c>Fe</c><c>   1</c></rc>
    <rc><c>Fe</c><c>   1</c></rc>
    <rc><c>Fe</c><c>   1</c></rc>
    <rc><c>Fe</c><c>   1</c></rc>
    <rc><c>Fe</c><c>   1</c></rc>
    <rc><c>Fe</c><c>   1</c></rc>
    <rc><c>Fe</c><c>   1</c></rc>
    <rc><c>Fe</c><c>   1</c></rc>
    <rc><c>Mn</c><c>   2</c></rc>
    <rc><c>Mn</c><c>   2</c></rc>
    <rc><c>Mn</c><c>   2</c></rc>
    <rc><c>Mn</c><c>   2</c></rc>
    <rc><c>Mn</c><c>   2</c></rc>
    <rc><c>Mn</c><c>   2</c></rc>
    <rc><c>Mn</c><c>   2</c></rc>
    <rc><c>Mn</c><c>   2</c></rc>
    <rc><c>Mn</c><c>   2</c></rc>
    <rc><c>Mn</c><c>   2</c></rc>
    <rc><c>Mn</c><c>   2</c></rc>
    <rc><c>Mn</c><c>   2</c></rc>
    <rc><c>Mn</c><c>   2</c></rc>
    <rc><c>Mn</c><c>   2</c></rc>
   </set>
  </array>
  <array name="atomtypes" >
   <dimension dim="1">type</dimension>
   <field type="int">atomspertype</field>
   <field type="string">element</field>
   <field>mass</field>
   <field>valence</field>
   <field type="string">pseudopotential</field>
   <set>
    <rc><c> 274</c><c>Fe</c><c>     55.84700000</c><c>      8.00000000</c><c>  PAW_PBE Fe_GW 31Mar2010               </c></rc>
    <rc><c>  14</c><c>Mn</c><c>     54.93800000</c><c>      7.00000000</c><c>  PAW_PBE Mn_GW 31Mar2010               </c></rc>
   </set>
  </array>
 </atominfo>
 <structure name="initialpos" >
  <crystal>
   <varray name="basis" >
    <v>       9.72667804       0.00000000       0.00000000 </v>
    <v>       0.00000000       8.42355028       0.00000000 </v>
    <v>       0.00000000       0.00000000      45.00000000 </v>
   </varray>
   <i name="volume">   3686.99226691 </i>
   <varray name="rec_basis" >
    <v>       0.10281002       0.00000000       0.00000000 </v>
    <v>       0.00000000       0.11871479       0.00000000 </v>
    <v>       0.00000000       0.00000000       0.02222222 </v>
   </varray>
  </crystal>
  <varray name="positions" >
   <v>       0.06187847       0.03142543       0.12446556 </v>
   <v>       0.31649156       0.87490559       0.65492490 </v>
   <v>       0.18468797       0.12191776       0.78831606 </v>
   <v>       0.44155063       0.28766114       0.38911560 </v>
   <v>       0.31756130       0.71257971       0.83280556 </v>
   <v>       0.81794589       0.21392769       0.83337297 </v>
   <v>       0.19128011       0.96256892       0.83329438 </v>
   <v>       0.56234050       0.20715413       0.56548948 </v>
   <v>       0.06571684       0.03989982       0.74393155 </v>
   <v>       0.81150069       0.87132084       0.52133568 </v>
   <v>       0.19067705       0.28984621       0.74396801 </v>
   <v>       0.93364037       0.45231208       0.34494239 </v>
   <v>       0.94116389       0.28669997       0.38896111 </v>
   <v>       0.81301265       0.03984032       0.87545174 </v>
   <v>       0.18365482       0.78796785       0.61086540 </v>
   <v>       0.56633870       0.03793325       0.38909605 </v>
   <v>       0.94178965       0.96361240       0.83359327 </v>
   <v>       0.31412155       0.53871729       0.87577492 </v>
   <v>       0.69053246       0.29036495       0.74393003 </v>
   <v>       0.18280102       0.61351918       0.16658957 </v>
   <v>       0.81220797       0.20571788       0.47868298 </v>
   <v>       0.80874895       0.53797467       0.61092783 </v>
   <v>       0.31201833       0.87035907       0.43449744 </v>
   <v>       0.80924927       0.03823598       0.25610040 </v>
   <v>       0.68360300       0.95170481       0.34488753 </v>
   <v>       0.93199753       0.11340490       0.16706208 </v>
   <v>       0.06165399       0.87129947       0.52138060 </v>
   <v>       0.55835948       0.53836145       0.25609052 </v>
   <v>       0.68461706       0.79606317       0.87552198 </v>
   <v>       0.55579508       0.36582993       0.16678123 </v>
   <v>       0.43996070       0.79111178       0.74410196 </v>
   <v>       0.81150541       0.70661763       0.56546663 </v>
   <v>       0.55981532       0.87223584       0.78832486 </v>
   <v>       0.68659453       0.12159980       0.52136523 </v>
   <v>       0.81649788       0.37490002       0.65489825 </v>
   <v>       0.94164324       0.46293920       0.83352297 </v>
   <v>       0.06042819       0.20805222       0.69959072 </v>
   <v>       0.43526200       0.95788405       0.69956956 </v>
   <v>       0.31670073       0.21255240       0.83315860 </v>
   <v>       0.44153657       0.62493120       0.65491025 </v>
   <v>       0.30871855       0.53787159       0.61089648 </v>
   <v>       0.93665249       0.45667098       0.56558685 </v>
   <v>       0.69027609       0.79065343       0.74400095 </v>
   <v>       0.93375534       0.78830820       0.12466915 </v>
   <v>       0.69172619       0.78771269       0.38906697 </v>
   <v>       0.94058613       0.78997678       0.74414191 </v>
   <v>       0.05882958       0.20288538       0.34497715 </v>
   <v>       0.68361210       0.45230970       0.34510113 </v>
   <v>       0.43498824       0.12131370       0.78856689 </v>
   <v>       0.06504098       0.20522749       0.21166790 </v>
   <v>       0.05515878       0.36618834       0.16683321 </v>
   <v>       0.93347388       0.78869796       0.25584343 </v>
   <v>       0.56049059       0.20782013       0.69958407 </v>
   <v>       0.68514296       0.95788693       0.69959430 </v>
   <v>       0.80961121       0.87246818       0.78818247 </v>
   <v>       0.43697487       0.95709558       0.56538102 </v>
   <v>       0.81051362       0.37342048       0.78817206 </v>
   <v>       0.68388488       0.28955537       0.25613016 </v>
   <v>       0.18736048       0.45719516       0.56547418 </v>
   <v>       0.05545606       0.86596207       0.16675663 </v>
   <v>       0.18380266       0.28801046       0.61093162 </v>
   <v>       0.06229046       0.20733249       0.56536177 </v>
   <v>       0.31039911       0.20790180       0.69963524 </v>
   <v>       0.56361014       0.53911446       0.87569110 </v>
   <v>       0.06185901       0.70629783       0.56552152 </v>
   <v>       0.68450143       0.62158643       0.78829886 </v>
   <v>       0.31618064       0.53784203       0.38905255 </v>
   <v>       0.18673901       0.62138019       0.52142157 </v>
   <v>       0.56228568       0.87036795       0.43447745 </v>
   <v>       0.43690674       0.45702148       0.56550662 </v>
   <v>       0.44012964       0.29077458       0.74397699 </v>
   <v>       0.81922899       0.87485417       0.30042250 </v>
   <v>       0.80867615       0.70268319       0.34507970 </v>
   <v>       0.44166829       0.46227860       0.83313702 </v>
   <v>       0.68748930       0.95557959       0.47867730 </v>
   <v>       0.68490615       0.45793765       0.69956854 </v>
   <v>       0.56177917       0.87196482       0.52141564 </v>
   <v>       0.56641051       0.37478293       0.65490931 </v>
   <v>       0.81642169       0.87493600       0.65490922 </v>
   <v>       0.81166810       0.37122818       0.43422389 </v>
   <v>       0.80881923       0.53830481       0.25626131 </v>
   <v>       0.69168111       0.46169216       0.83308063 </v>
   <v>       0.18629782       0.78844612       0.12432619 </v>
   <v>       0.69142354       0.28735507       0.38905498 </v>
   <v>       0.31652077       0.37466271       0.65488856 </v>
   <v>       0.30869432       0.20244509       0.34488603 </v>
   <v>       0.81562496       0.53993776       0.74396710 </v>
   <v>       0.69147872       0.96206806       0.83318612 </v>
   <v>       0.56634184       0.87463932       0.65490555 </v>
   <v>       0.31151421       0.70727631       0.56543574 </v>
   <v>       0.31198097       0.53126166       0.12425875 </v>
   <v>       0.68928332       0.95569988       0.21208940 </v>
   <v>       0.31145688       0.20653098       0.56549696 </v>
   <v>       0.18734771       0.95576497       0.47869333 </v>
   <v>       0.68746497       0.95709740       0.56548991 </v>
   <v>       0.43367683       0.78806209       0.61087895 </v>
   <v>       0.68288358       0.61199397       0.16680808 </v>
   <v>       0.31926802       0.87421516       0.30022972 </v>
   <v>       0.31220790       0.70580834       0.47865349 </v>
   <v>       0.93369913       0.28787497       0.61088196 </v>
   <v>       0.44511639       0.62449376       0.30039741 </v>
   <v>       0.31553496       0.54030220       0.74390223 </v>
   <v>       0.56643351       0.20347291       0.21177974 </v>
   <v>       0.93263164       0.61321609       0.16678878 </v>
   <v>       0.43719618       0.95582312       0.47864238 </v>
   <v>       0.56018848       0.37186283       0.78837291 </v>
   <v>       0.06143960       0.37226448       0.52135327 </v>
   <v>       0.30665899       0.36484862       0.16688704 </v>
   <v>       0.69490431       0.12423861       0.30038667 </v>
   <v>       0.44254218       0.96206395       0.83312066 </v>
   <v>       0.18521941       0.28733639       0.12443387 </v>
   <v>       0.18401730       0.28944975       0.25614472 </v>
   <v>       0.31237380       0.37032945       0.43444499 </v>
   <v>       0.56241054       0.03271839       0.12458560 </v>
   <v>       0.43371075       0.28793123       0.61085905 </v>
   <v>       0.18357349       0.45268799       0.34505983 </v>
   <v>       0.43420243       0.28756883       0.12449906 </v>
   <v>       0.68410224       0.78939293       0.25610585 </v>
   <v>       0.43666982       0.12154309       0.52137430 </v>
   <v>       0.18831351       0.29457827       0.87573061 </v>
   <v>       0.19136576       0.12500555       0.65491736 </v>
   <v>       0.94134709       0.12492905       0.65493129 </v>
   <v>       0.81625756       0.53748653       0.38907802 </v>
   <v>       0.06643789       0.03784449       0.38911059 </v>
   <v>       0.18355226       0.11237373       0.16686385 </v>
   <v>       0.05866651       0.53781654       0.61092964 </v>
   <v>       0.93415786       0.28931812       0.25610297 </v>
   <v>       0.55870063       0.53797800       0.61089870 </v>
   <v>       0.93687765       0.95736191       0.56543913 </v>
   <v>       0.69415418       0.62496955       0.30031375 </v>
   <v>       0.93738248       0.62033102       0.43446439 </v>
   <v>       0.93431099       0.62279068       0.78812633 </v>
   <v>       0.56043745       0.70771941       0.69956369 </v>
   <v>       0.06629465       0.71504033       0.83356444 </v>
   <v>       0.94487807       0.12391589       0.30031532 </v>
   <v>       0.93368087       0.78761273       0.61092570 </v>
   <v>       0.43362964       0.78937990       0.25607676 </v>
   <v>       0.31037536       0.37200104       0.78831820 </v>
   <v>       0.43976081       0.45525122       0.21189957 </v>
   <v>       0.18669827       0.12149839       0.52138765 </v>
   <v>       0.81041582       0.70796277       0.69957485 </v>
   <v>       0.05881246       0.03790616       0.61083795 </v>
   <v>       0.56618392       0.21301329       0.83303884 </v>
   <v>       0.31165113       0.87177500       0.52138370 </v>
   <v>       0.68568315       0.28793049       0.12432231 </v>
   <v>       0.18982285       0.95555503       0.21195855 </v>
   <v>       0.68365190       0.28805309       0.61088761 </v>
   <v>       0.30861614       0.03796468       0.61095113 </v>
   <v>       0.93507974       0.12272927       0.78831299 </v>
   <v>       0.43681487       0.79575884       0.87574032 </v>
   <v>       0.81563087       0.04005729       0.74394105 </v>
   <v>       0.93518871       0.45805398       0.69955240 </v>
   <v>       0.19141941       0.62500404       0.65494915 </v>
   <v>       0.31034496       0.70766874       0.69959472 </v>
   <v>       0.93481490       0.28770377       0.12443532 </v>
   <v>       0.43741802       0.45580762       0.47856579 </v>
   <v>       0.06226700       0.70573986       0.47855773 </v>
   <v>       0.93702069       0.12000280       0.43457345 </v>
   <v>       0.44408688       0.12468121       0.30047476 </v>
   <v>       0.18753222       0.12004384       0.43440675 </v>
   <v>       0.56340411       0.03900318       0.87577515 </v>
   <v>       0.18698450       0.95715494       0.56546900 </v>
   <v>       0.68438337       0.78897075       0.12462825 </v>
   <v>       0.55874517       0.70244172       0.34501744 </v>
   <v>       0.31639643       0.03715169       0.38902178 </v>
   <v>       0.68274203       0.11278349       0.16711300 </v>
   <v>       0.81497241       0.20478035       0.21163748 </v>
   <v>       0.05951450       0.53804715       0.25598647 </v>
   <v>       0.56235580       0.70578686       0.47863902 </v>
   <v>       0.43423929       0.78756777       0.12459180 </v>
   <v>       0.56917419       0.37379013       0.30038337 </v>
   <v>       0.43355520       0.95271633       0.34508088 </v>
   <v>       0.18502917       0.95804094       0.69963455 </v>
   <v>       0.43187630       0.61344894       0.16667184 </v>
   <v>       0.93992432       0.45501386       0.21194002 </v>
   <v>       0.06219026       0.53085804       0.12441057 </v>
   <v>       0.81176400       0.37189365       0.52135491 </v>
   <v>       0.94426245       0.62460252       0.30013758 </v>
   <v>       0.30911842       0.03768173       0.25584423 </v>
   <v>       0.68374355       0.78786841       0.61088130 </v>
   <v>       0.19160026       0.46269923       0.83317089 </v>
   <v>       0.43229775       0.11331359       0.16683009 </v>
   <v>       0.31145143       0.37183257       0.52140208 </v>
   <v>       0.43374515       0.62169491       0.78853802 </v>
   <v>       0.05897532       0.03820755       0.25613904 </v>
   <v>       0.56223193       0.70721286       0.56551475 </v>
   <v>       0.93998682       0.29000469       0.74405889 </v>
   <v>       0.68348700       0.12195095       0.78828076 </v>
   <v>       0.18970019       0.45502717       0.21167328 </v>
   <v>       0.94125195       0.78758254       0.38905021 </v>
   <v>       0.68598941       0.29750184       0.87579557 </v>
   <v>       0.55553136       0.86552424       0.16657150 </v>
   <v>       0.43541063       0.45799605       0.69955960 </v>
   <v>       0.93393800       0.95155314       0.34490815 </v>
   <v>       0.68654561       0.62136232       0.52127833 </v>
   <v>       0.06641804       0.87484135       0.65488810 </v>
   <v>       0.06006390       0.87283822       0.78818112 </v>
   <v>       0.06641380       0.37480899       0.65490831 </v>
   <v>       0.68704922       0.45566632       0.47863705 </v>
   <v>       0.18430076       0.78926693       0.25596043 </v>
   <v>       0.43698235       0.12064579       0.43437256 </v>
   <v>       0.81279435       0.03112403       0.12445621 </v>
   <v>       0.93649272       0.62161048       0.52140182 </v>
   <v>       0.44149450       0.12490119       0.65485979 </v>
   <v>       0.81254671       0.53073241       0.12438043 </v>
   <v>       0.43379377       0.45267833       0.34511656 </v>
   <v>       0.80891799       0.20250887       0.34509161 </v>
   <v>       0.30879004       0.70204391       0.34494279 </v>
   <v>       0.69133152       0.12495075       0.65492168 </v>
   <v>       0.56936328       0.87428735       0.30050143 </v>
   <v>       0.06548492       0.53988224       0.74398940 </v>
   <v>       0.94145120       0.95543720       0.21180733 </v>
   <v>       0.81658331       0.70528521       0.21179377 </v>
   <v>       0.06923726       0.87437801       0.30045865 </v>
   <v>       0.19456543       0.12449996       0.30044278 </v>
   <v>       0.05851014       0.70208235       0.34496922 </v>
   <v>       0.80879442       0.03791923       0.61088698 </v>
   <v>       0.06268885       0.37113544       0.43440159 </v>
   <v>       0.55883935       0.20271277       0.34490911 </v>
   <v>       0.81922644       0.37464690       0.30033337 </v>
   <v>       0.55928477       0.03877949       0.25587995 </v>
   <v>       0.56633873       0.53766702       0.38907952 </v>
   <v>       0.06252025       0.20587449       0.47865198 </v>
   <v>       0.31103744       0.87169234       0.78809407 </v>
   <v>       0.93517088       0.95818339       0.69956619 </v>
   <v>       0.06910670       0.37482617       0.30041277 </v>
   <v>       0.69132143       0.62487632       0.65495431 </v>
   <v>       0.68683994       0.45696941       0.56540513 </v>
   <v>       0.44013292       0.95617130       0.21222955 </v>
   <v>       0.31232224       0.20569433       0.47871221 </v>
   <v>       0.81331113       0.53855707       0.87559857 </v>
   <v>       0.68783063       0.62034835       0.43446453 </v>
   <v>       0.81044627       0.20787010       0.69963238 </v>
   <v>       0.81241288       0.70578191       0.47863145 </v>
   <v>       0.81157920       0.87090342       0.43422166 </v>
   <v>       0.93715410       0.95530585       0.47871753 </v>
   <v>       0.56221192       0.20565766       0.47864225 </v>
   <v>       0.18698135       0.62017461       0.43446831 </v>
   <v>       0.31556159       0.04071446       0.74385147 </v>
   <v>       0.94148134       0.62508649       0.65488203 </v>
   <v>       0.56627912       0.71261496       0.83303851 </v>
   <v>       0.31991562       0.37352410       0.30031285 </v>
   <v>       0.56570682       0.70440732       0.21179215 </v>
   <v>       0.18730718       0.45574723       0.47867482 </v>
   <v>       0.31462484       0.03934202       0.87558531 </v>
   <v>       0.18509733       0.45804971       0.69959420 </v>
   <v>       0.56168332       0.37164130       0.52139734 </v>
   <v>       0.19124721       0.28774296       0.38905386 </v>
   <v>       0.31564000       0.20558990       0.21157214 </v>
   <v>       0.06660408       0.70582238       0.21187246 </v>
   <v>       0.56201351       0.37074557       0.43444141 </v>
   <v>       0.43655467       0.62188372       0.52130316 </v>
   <v>       0.81684675       0.71426842       0.83305282 </v>
   <v>       0.06058584       0.37318898       0.78814407 </v>
   <v>       0.43649278       0.29653099       0.87601506 </v>
   <v>       0.31105570       0.03219324       0.12439823 </v>
   <v>       0.68780292       0.11959314       0.43437093 </v>
   <v>       0.18384825       0.95236097       0.34509985 </v>
   <v>       0.06654765       0.21375941       0.83363676 </v>
   <v>       0.55888402       0.03815062       0.61098209 </v>
   <v>       0.68989664       0.45519199       0.21200554 </v>
   <v>       0.19011690       0.79076101       0.74402544 </v>
   <v>       0.19432156       0.62456010       0.30045220 </v>
   <v>       0.44140048       0.78772445       0.38908284 </v>
   <v>       0.43415516       0.28962819       0.25604759 </v>
   <v>       0.06444638       0.53875141       0.87556714 </v>
   <v>       0.56581655       0.04052651       0.74390523 </v>
   <v>       0.18757221       0.79531916       0.87570072 </v>
   <v>       0.93729744       0.45557930       0.47867101 </v>
   <v>       0.56573730       0.54056515       0.74389349 </v>
   <v>       0.81130440       0.20681734       0.56545577 </v>
   <v>       0.18558984       0.62106738       0.78816734 </v>
   <v>       0.06700322       0.53833574       0.38919677 </v>
   <v>       0.06038411       0.70794045       0.69956583 </v>
   <v>       0.30847241       0.53827159       0.25580177 </v>
   <v>       0.31543662       0.70427337       0.21230994 </v>
   <v>       0.30487754       0.86486634       0.16620087 </v>
   <v>       0.43691383       0.62087000       0.43444039 </v>
   <v>       0.81802738       0.03886975       0.38925066 </v>
   <v>       0.93540935       0.29633127       0.87530105 </v>
   <v>       0.93733541       0.79393965       0.87521802 </v>
   <v>       0.06555562       0.03761723       0.87536934 </v>
   <v>       0.56269758       0.52953876       0.12488643 </v>
   <v>       0.80476515       0.36633356       0.16645779 </v>
   <v>       0.06210082       0.87088107       0.43445892 </v>
   <v>       0.93650747       0.12153037       0.52141593 </v>
   <v>       0.19287758       0.78753120       0.38902689 </v>
   <v>       0.80513099       0.86529170       0.16654971 </v>
  </varray>
 </structure>
 <calculation>
  <scstep>
   <time name="dav">   54.73   54.74</time>
   <time name="total">   54.88   54.93</time>
   <energy>
    <i name="alphaZ">  16293.21160653 </i>
    <i name="ewald"> 736199.81134366 </i>
    <i name="hartreedc">-926699.68461780 </i>
    <i name="XCdc">  -6511.93262108 </i>
    <i name="pawpsdc"> 162273.92519768 </i>
    <i name="pawaedc">-159623.75899949 </i>
    <i name="eentropy">     -1.07198895 </i>
    <i name="bandstr">  38484.01525177 </i>
    <i name="atom"> 168671.76673737 </i>
    <i name="e_fr_energy">  29086.28190969 </i>
    <i name="e_wo_entrp">  29087.35389864 </i>
    <i name="e_0_energy">  29086.81790416 </i>
   </energy>
  </scstep>
  <scstep>
   <time name="dav">   54.26   54.29</time>
   <time name="total">   54.27   54.30</time>
   <energy>
    <i name="e_fr_energy">   1190.17877790 </i>
    <i name="e_wo_entrp">   1191.66645758 </i>
    <i name="e_0_energy">   1190.92261774 </i>
   </energy>
  </scstep>
  <scstep>
   <time name="dav">   71.05   71.08</time>
   <time name="total">   71.05   71.09</time>
   <energy>
    <i name="e_fr_energy">  -1948.61944181 </i>
    <i name="e_wo_entrp">  -1945.06633438 </i>
    <i name="e_0_energy">  -1946.84288809 </i>
   </energy>
  </scstep>
  <scstep>
   <time name="dav">   89.38   89.42</time>
   <time name="total">   89.39   89.43</time>
   <energy>
    <i name="e_fr_energy">  -2618.51357710 </i>
    <i name="e_wo_entrp">  -2614.99513669 </i>
    <i name="e_0_energy">  -2616.75435690 </i>
   </energy>
  </scstep>
  <scstep>
   <time name="dav">   85.55   85.60</time>
   <time name="total">   87.64   87.68</time>
   <energy>
    <i name="e_fr_energy">  -2738.42373125 </i>
    <i name="e_wo_entrp">  -2734.78400592 </i>
    <i name="e_0_energy">  -2736.60386859 </i>
   </energy>
  </scstep>
  <scstep>
   <time name="diag">    8.31    8.32</time>
   <time name="diis">   37.03   37.03</time>
   <time name="orth">    2.31    2.31</time>
   <time name="total">   49.77   49.82</time>
   <energy>
    <i name="e_fr_energy">  -5531.20940286 </i>
    <i name="e_wo_entrp">  -5528.65091540 </i>
    <i name="e_0_energy">  -5529.93015913 </i>
   </energy>
  </scstep>
  <scstep>
   <time name="diag">    8.27    8.27</time>
   <time name="diis">   22.63   22.64</time>
   <time name="orth">    2.32    2.32</time>
   <time name="total">   35.33   35.36</time>
[...]
       <r>     5.8905     0.0000  2772.0000 </r>
       <r>     5.9334     0.0000  2772.0000 </r>
       <r>     5.9762     0.0000  2772.0000 </r>
       <r>     6.0191     0.0000  2772.0000 </r>
       <r>     6.0620     0.0000  2772.0000 </r>
       <r>     6.1049     0.0000  2772.0000 </r>
       <r>     6.1478     0.0000  2772.0000 </r>
       <r>     6.1907     0.0000  2772.0000 </r>
       <r>     6.2336     0.0000  2772.0000 </r>
       <r>     6.2765     0.0000  2772.0000 </r>
       <r>     6.3194     0.0000  2772.0000 </r>
       <r>     6.3623     0.0000  2772.0000 </r>
       <r>     6.4052     0.0000  2772.0000 </r>
       <r>     6.4481     0.0000  2772.0000 </r>
       <r>     6.4909     0.0000  2772.0000 </r>
       <r>     6.5338     0.0000  2772.0000 </r>
       <r>     6.5767     0.0000  2772.0000 </r>
       <r>     6.6196     0.0000  2772.0000 </r>
       <r>     6.6625     0.0000  2772.0000 </r>
       <r>     6.7054     0.0000  2772.0000 </r>
       <r>     6.7483     0.0000  2772.0000 </r>
       <r>     6.7912     0.0000  2772.0000 </r>
       <r>     6.8341     0.0000  2772.0000 </r>
      </set>
     </set>
    </array>
   </total>
  </dos>
 </calculation>
 <structure name="finalpos" >
  <crystal>
   <varray name="basis" >
    <v>       9.72667804       0.00000000       0.00000000 </v>
    <v>       0.00000000       8.42355028       0.00000000 </v>
    <v>       0.00000000       0.00000000      45.00000000 </v>
   </varray>
   <i name="volume">   3686.99226691 </i>
   <varray name="rec_basis" >
    <v>       0.10281002       0.00000000       0.00000000 </v>
    <v>       0.00000000       0.11871479       0.00000000 </v>
    <v>       0.00000000       0.00000000       0.02222222 </v>
   </varray>
  </crystal>
  <varray name="positions" >
   <v>       0.06142490       0.03339144       0.12488446 </v>
   <v>       0.31450434       0.87420988       0.65481088 </v>
   <v>       0.18609980       0.12335659       0.78804679 </v>
   <v>       0.44114077       0.28788407       0.38954715 </v>
   <v>       0.31501351       0.71119506       0.83316368 </v>
   <v>       0.81645718       0.21198703       0.83340871 </v>
   <v>       0.18955950       0.96136587       0.83352497 </v>
   <v>       0.56159862       0.20640444       0.56561348 </v>
   <v>       0.06400941       0.04054376       0.74392320 </v>
   <v>       0.81116274       0.87234707       0.52184317 </v>
   <v>       0.18903099       0.29060588       0.74398316 </v>
   <v>       0.93540952       0.45340218       0.34520027 </v>
   <v>       0.93923804       0.28695473       0.38945318 </v>
   <v>       0.81296842       0.04371955       0.87538884 </v>
   <v>       0.18554648       0.78875003       0.61035705 </v>
   <v>       0.56510955       0.03841140       0.38951571 </v>
   <v>       0.94171499       0.96182990       0.83346666 </v>
   <v>       0.31317013       0.54293165       0.87536058 </v>
   <v>       0.68938644       0.29063352       0.74399687 </v>
   <v>       0.18492946       0.61630540       0.16677921 </v>
   <v>       0.81210173       0.20517893       0.47861154 </v>
   <v>       0.80983067       0.53867412       0.61038883 </v>
   <v>       0.31288903       0.87107458       0.43448619 </v>
   <v>       0.81093517       0.03772819       0.25591774 </v>
   <v>       0.68635016       0.95421915       0.34517226 </v>
   <v>       0.93336686       0.11565707       0.16698273 </v>
   <v>       0.06225206       0.87242425       0.52172515 </v>
   <v>       0.56121450       0.53864221       0.25570984 </v>
   <v>       0.68706923       0.79313861       0.87542448 </v>
   <v>       0.55702740       0.36664425       0.16660461 </v>
   <v>       0.43932081       0.79105623       0.74402447 </v>
   <v>       0.81132098       0.70618596       0.56560169 </v>
   <v>       0.56150442       0.87301384       0.78791557 </v>
   <v>       0.68655199       0.12221916       0.52179015 </v>
   <v>       0.81425737       0.37419995       0.65484206 </v>
   <v>       0.94104070       0.46181137       0.83352340 </v>
   <v>       0.06127051       0.20749928       0.69955783 </v>
   <v>       0.43652686       0.95735720       0.69948050 </v>
   <v>       0.31484806       0.21068513       0.83349338 </v>
   <v>       0.43945574       0.62430662       0.65472051 </v>
   <v>       0.31074317       0.53890010       0.61033720 </v>
   <v>       0.93664068       0.45610583       0.56560554 </v>
   <v>       0.68929711       0.79096612       0.74399413 </v>
   <v>       0.93343329       0.78486249       0.12496914 </v>
   <v>       0.69031132       0.78805538       0.38947705 </v>
   <v>       0.93910723       0.79036306       0.74400469 </v>
   <v>       0.06085317       0.20361524       0.34519798 </v>
   <v>       0.68651204       0.45283547       0.34520906 </v>
   <v>       0.43628228       0.12332890       0.78812430 </v>
   <v>       0.06385933       0.20425039       0.21142482 </v>
   <v>       0.05754663       0.36633188       0.16667953 </v>
   <v>       0.93519802       0.78883410       0.25569023 </v>
   <v>       0.56155413       0.20738379       0.69953880 </v>
   <v>       0.68666493       0.95745019       0.69960588 </v>
   <v>       0.81125255       0.87339019       0.78791819 </v>
   <v>       0.43702444       0.95637513       0.56561888 </v>
   <v>       0.81158505       0.37302494       0.78792555 </v>
   <v>       0.68584612       0.28806388       0.25591350 </v>
   <v>       0.18721903       0.45638160       0.56559195 </v>
   <v>       0.05839685       0.86727348       0.16675377 </v>
   <v>       0.18583592       0.28901840       0.61048762 </v>
   <v>       0.06189519       0.20643791       0.56546791 </v>
   <v>       0.31145392       0.20737900       0.69952019 </v>
   <v>       0.56441911       0.54351936       0.87529299 </v>
   <v>       0.06192554       0.70600607       0.56555462 </v>
   <v>       0.68602046       0.62334969       0.78789788 </v>
   <v>       0.31543224       0.53754623       0.38961775 </v>
   <v>       0.18714377       0.62252697       0.52186071 </v>
   <v>       0.56231106       0.87122264       0.43439733 </v>
   <v>       0.43694758       0.45634030       0.56561722 </v>
   <v>       0.43922649       0.29107018       0.74397412 </v>
   <v>       0.81611521       0.87383960       0.30031984 </v>
   <v>       0.81089905       0.70342862       0.34526887 </v>
   <v>       0.44059528       0.46061760       0.83348099 </v>
   <v>       0.68742828       0.95519159       0.47851094 </v>
   <v>       0.68664241       0.45747697       0.69956325 </v>
   <v>       0.56169508       0.87229836       0.52186989 </v>
   <v>       0.56452434       0.37421080       0.65469758 </v>
   <v>       0.81428286       0.87421178       0.65483520 </v>
   <v>       0.81158252       0.37042504       0.43429634 </v>
   <v>       0.81058555       0.53841320       0.25590056 </v>
   <v>       0.69128366       0.46076653       0.83348547 </v>
   <v>       0.18657478       0.78517088       0.12471756 </v>
   <v>       0.68959469       0.28728221       0.38941893 </v>
   <v>       0.31439010       0.37416003       0.65473616 </v>
   <v>       0.31198167       0.20358598       0.34529673 </v>
   <v>       0.81439262       0.54044628       0.74386076 </v>
   <v>       0.69094223       0.96086812       0.83351740 </v>
   <v>       0.56438979       0.87425843       0.65477150 </v>
   <v>       0.31215472       0.70643349       0.56558376 </v>
   <v>       0.31086218       0.53396182       0.12464822 </v>
   <v>       0.68829358       0.95445524       0.21176536 </v>
   <v>       0.31224010       0.20646952       0.56561301 </v>
   <v>       0.18707658       0.95532223       0.47855639 </v>
   <v>       0.68660078       0.95628253       0.56566212 </v>
   <v>       0.43549119       0.78874472       0.61029372 </v>
   <v>       0.68302995       0.61444650       0.16694193 </v>
   <v>       0.31661638       0.87352958       0.30028489 </v>
   <v>       0.31206937       0.70505743       0.47845429 </v>
   <v>       0.93502178       0.28859372       0.61038924 </v>
   <v>       0.44199653       0.62319440       0.30045853 </v>
   <v>       0.31410371       0.54055342       0.74398806 </v>
   <v>       0.56433817       0.20334345       0.21170893 </v>
   <v>       0.93367222       0.61512914       0.16695222 </v>
   <v>       0.43746481       0.95505490       0.47850671 </v>
   <v>       0.56149718       0.37261651       0.78799720 </v>
   <v>       0.06166114       0.37248892       0.52175879 </v>
   <v>       0.30785203       0.36559509       0.16668296 </v>
   <v>       0.69159209       0.12325518       0.30054295 </v>
   <v>       0.44086054       0.96075229       0.83344891 </v>
   <v>       0.18564029       0.28450834       0.12505817 </v>
   <v>       0.18613394       0.28756537       0.25586399 </v>
   <v>       0.31304913       0.37105841       0.43446252 </v>
   <v>       0.56076642       0.03355605       0.12481447 </v>
   <v>       0.43555912       0.28895445       0.61030367 </v>
   <v>       0.18625241       0.45345370       0.34527066 </v>
   <v>       0.43321838       0.28436751       0.12503837 </v>
   <v>       0.68625190       0.78850684       0.25585660 </v>
   <v>       0.43697349       0.12279870       0.52181694 </v>
   <v>       0.18872613       0.29233162       0.87561350 </v>
   <v>       0.18945210       0.12431176       0.65487101 </v>
   <v>       0.93940566       0.12414840       0.65485986 </v>
   <v>       0.81453581       0.53728778       0.38944909 </v>
   <v>       0.06469845       0.03795917       0.38956092 </v>
   <v>       0.18450325       0.11554037       0.16695985 </v>
   <v>       0.06036166       0.53867543       0.61040492 </v>
   <v>       0.93562030       0.28793931       0.25582451 </v>
   <v>       0.56032024       0.53886358       0.61030283 </v>
   <v>       0.93673109       0.95613336       0.56554165 </v>
   <v>       0.69171271       0.62361844       0.30050307 </v>
   <v>       0.93746051       0.62109574       0.43441418 </v>
   <v>       0.93603476       0.62461619       0.78796681 </v>
   <v>       0.56159747       0.70728238       0.69950547 </v>
   <v>       0.06483771       0.71272889       0.83345570 </v>
   <v>       0.94099465       0.12323852       0.30042325 </v>
   <v>       0.93501705       0.78852541       0.61045561 </v>
   <v>       0.43639697       0.78866306       0.25578079 </v>
   <v>       0.31138296       0.37259834       0.78794340 </v>
   <v>       0.43890263       0.45457582       0.21159610 </v>
   <v>       0.18675285       0.12245743       0.52176562 </v>
   <v>       0.81151395       0.70762942       0.69956725 </v>
   <v>       0.06017649       0.03886565       0.61036567 </v>
   <v>       0.56520036       0.21109767       0.83323065 </v>
   <v>       0.31204552       0.87212550       0.52190756 </v>
   <v>       0.68548900       0.28457935       0.12480930 </v>
   <v>       0.18897529       0.95539679       0.21157891 </v>
   <v>       0.68488220       0.28913356       0.61041853 </v>
   <v>       0.31060142       0.03876892       0.61035093 </v>
   <v>       0.93631240       0.12442533       0.78804400 </v>
   <v>       0.43735807       0.79237527       0.87541070 </v>
   <v>       0.81433975       0.04082061       0.74389516 </v>
   <v>       0.93638833       0.45735067       0.69955252 </v>
   <v>       0.18956251       0.62432098       0.65481703 </v>
   <v>       0.31148121       0.70740839       0.69954194 </v>
   <v>       0.93430197       0.28455056       0.12487982 </v>
   <v>       0.43725662       0.45442896       0.47845196 </v>
   <v>       0.06214891       0.70452487       0.47856399 </v>
   <v>       0.93727095       0.12073346       0.43464148 </v>
   <v>       0.44217952       0.12297526       0.30046740 </v>
   <v>       0.18715695       0.12062978       0.43434658 </v>
   <v>       0.56451395       0.04306893       0.87541435 </v>
   <v>       0.18698814       0.95628895       0.56562189 </v>
   <v>       0.68489682       0.78565789       0.12487835 </v>
   <v>       0.56183816       0.70345290       0.34532357 </v>
   <v>       0.31531450       0.03769839       0.38956945 </v>
   <v>       0.68379118       0.11502789       0.16705491 </v>
   <v>       0.81389457       0.20349108       0.21156418 </v>
   <v>       0.06051855       0.53858561       0.25564503 </v>
   <v>       0.56246274       0.70521186       0.47847057 </v>
   <v>       0.43327534       0.78510490       0.12473852 </v>
   <v>       0.56663403       0.37262977       0.30043975 </v>
   <v>       0.43668899       0.95421430       0.34518703 </v>
   <v>       0.18624474       0.95766070       0.69957342 </v>
   <v>       0.43277820       0.61563101       0.16678743 </v>
   <v>       0.93884035       0.45503474       0.21170984 </v>
   <v>       0.06104726       0.53239699       0.12474150 </v>
   <v>       0.81166984       0.37238651       0.52177181 </v>
   <v>       0.94107266       0.62382714       0.30027800 </v>
   <v>       0.31134970       0.03829940       0.25573254 </v>
   <v>       0.68516656       0.78865890       0.61033112 </v>
   <v>       0.19011082       0.46142234       0.83358897 </v>
   <v>       0.43328603       0.11532748       0.16706625 </v>
   <v>       0.31190249       0.37261408       0.52183369 </v>
   <v>       0.43613017       0.62308946       0.78810878 </v>
   <v>       0.06035779       0.03828656       0.25583169 </v>
   <v>       0.56156150       0.70626995       0.56560819 </v>
   <v>       0.93910105       0.29020627       0.74398390 </v>
   <v>       0.68604939       0.12357996       0.78789134 </v>
   <v>       0.18870171       0.45495708       0.21141702 </v>
   <v>       0.93940418       0.78784105       0.38951208 </v>
   <v>       0.68733276       0.29302320       0.87553669 </v>
   <v>       0.55640965       0.86694299       0.16672918 </v>
   <v>       0.43655595       0.45728009       0.69951918 </v>
   <v>       0.93615731       0.95369887       0.34528876 </v>
   <v>       0.68632424       0.62230670       0.52182787 </v>
   <v>       0.06437573       0.87419995       0.65483174 </v>
   <v>       0.06138835       0.87349173       0.78807811 </v>
   <v>       0.06442405       0.37410240       0.65488918 </v>
   <v>       0.68717552       0.45432603       0.47837031 </v>
   <v>       0.18602857       0.78859107       0.25580759 </v>
   <v>       0.43768058       0.12114961       0.43445034 </v>
   <v>       0.81082724       0.03395921       0.12471266 </v>
   <v>       0.93658422       0.62228454       0.52175273 </v>
   <v>       0.43945209       0.12418058       0.65475162 </v>
   <v>       0.81170090       0.53347131       0.12453244 </v>
   <v>       0.43712472       0.45307052       0.34530579 </v>
   <v>       0.81063871       0.20315952       0.34528653 </v>
   <v>       0.31187265       0.70355523       0.34526446 </v>
   <v>       0.68928607       0.12435717       0.65479512 </v>
   <v>       0.56699068       0.87364241       0.30044048 </v>
   <v>       0.06404624       0.54014100       0.74390079 </v>
   <v>       0.93907959       0.95490283       0.21172304 </v>
   <v>       0.81425329       0.70437041       0.21167332 </v>
   <v>       0.06589834       0.87348057       0.30049692 </v>
   <v>       0.19152177       0.12334198       0.30032700 </v>
   <v>       0.06072186       0.70377045       0.34524876 </v>
   <v>       0.81022528       0.03872337       0.61036815 </v>
   <v>       0.06259503       0.37044917       0.43439485 </v>
   <v>       0.56216355       0.20338636       0.34531018 </v>
   <v>       0.81603430       0.37343668       0.30043123 </v>
   <v>       0.56163291       0.03879014       0.25583173 </v>
   <v>       0.56468695       0.53706014       0.38953706 </v>
   <v>       0.06223809       0.20480294       0.47862283 </v>
   <v>       0.31156602       0.87267945       0.78784870 </v>
   <v>       0.93643463       0.95777675       0.69953936 </v>
   <v>       0.06653204       0.37318053       0.30044418 </v>
   <v>       0.68925354       0.62432411       0.65479851 </v>
   <v>       0.68632153       0.45631485       0.56559285 </v>
   <v>       0.43898320       0.95529387       0.21168061 </v>
   <v>       0.31227324       0.20495799       0.47850624 </v>
   <v>       0.81370320       0.54326416       0.87534941 </v>
   <v>       0.68753739       0.62061059       0.43439315 </v>
   <v>       0.81178172       0.20750466       0.69959651 </v>
   <v>       0.81238773       0.70490343       0.47851297 </v>
   <v>       0.81173879       0.87142240       0.43438307 </v>
   <v>       0.93726544       0.95495111       0.47861756 </v>
   <v>       0.56252663       0.20490022       0.47848077 </v>
   <v>       0.18747836       0.62076941       0.43450540 </v>
   <v>       0.31404156       0.04111593       0.74393776 </v>
   <v>       0.93929859       0.62443394       0.65480009 </v>
   <v>       0.56536005       0.71119332       0.83320023 </v>
   <v>       0.31675605       0.37260164       0.30046585 </v>
   <v>       0.56429085       0.70426066       0.21163008 </v>
   <v>       0.18751211       0.45465496       0.47850296 </v>
   <v>       0.31467664       0.04411498       0.87532794 </v>
   <v>       0.18617799       0.45735220       0.69955568 </v>
   <v>       0.56183073       0.37260013       0.52184490 </v>
   <v>       0.18964912       0.28742115       0.38958026 </v>
   <v>       0.31442706       0.20461271       0.21128923 </v>
   <v>       0.06423271       0.70423205       0.21147482 </v>
   <v>       0.56234410       0.37093554       0.43440696 </v>
   <v>       0.43694826       0.62241029       0.52179839 </v>
   <v>       0.81585796       0.71210380       0.83316604 </v>
   <v>       0.06141450       0.37349792       0.78799961 </v>
   <v>       0.43708624       0.29280146       0.87555662 </v>
   <v>       0.31120514       0.03371728       0.12465246 </v>
   <v>       0.68775309       0.12144235       0.43434464 </v>
   <v>       0.18599357       0.95365315       0.34528164 </v>
   <v>       0.06489315       0.21143626       0.83337394 </v>
   <v>       0.56037943       0.03887038       0.61032192 </v>
   <v>       0.68818118       0.45472278       0.21170336 </v>
   <v>       0.18882723       0.79077401       0.74396333 </v>
   <v>       0.19128146       0.62336485       0.30037684 </v>
   <v>       0.44055609       0.78758393       0.38963187 </v>
   <v>       0.43632905       0.28816523       0.25574827 </v>
   <v>       0.06526424       0.54279347       0.87543439 </v>
   <v>       0.56463261       0.04090721       0.74399917 </v>
   <v>       0.18792456       0.79228565       0.87555806 </v>
   <v>       0.93703407       0.45442920       0.47848307 </v>
   <v>       0.56442985       0.54088217       0.74389013 </v>
   <v>       0.81129188       0.20653043       0.56553604 </v>
   <v>       0.18642712       0.62335829       0.78795509 </v>
   <v>       0.06538037       0.53813959       0.38963922 </v>
   <v>       0.06126414       0.70767239       0.69953150 </v>
   <v>       0.31080442       0.53821963       0.25549305 </v>
   <v>       0.31480654       0.70422983       0.21172489 </v>
   <v>       0.30658738       0.86631831       0.16631240 </v>
   <v>       0.43716556       0.62059882       0.43441624 </v>
   <v>       0.81586757       0.03837576       0.38945796 </v>
   <v>       0.93663981       0.29357674       0.87561069 </v>
   <v>       0.93737412       0.79077637       0.87549351 </v>
   <v>       0.06541519       0.04228350       0.87541418 </v>
   <v>       0.56174730       0.53209597       0.12509377 </v>
   <v>       0.80663818       0.36656515       0.16620962 </v>
   <v>       0.06202528       0.87166619       0.43443432 </v>
   <v>       0.93674859       0.12285976       0.52153921 </v>
   <v>       0.19076773       0.78735074       0.38946016 </v>
   <v>       0.80678318       0.86569518       0.16659604 </v>
  </varray>
 </structure>
</modeling>
