unknown system                          
           1
     9.726678    0.000000    0.000000
     0.000000    8.423550    0.000000
     0.000000    0.000000   45.000000
   Fe   Mn
 274  14
Direct configuration=     1
   0.06187847  0.03142543  0.12446556
   0.31649156  0.87490559  0.65492490
   0.18468797  0.12191776  0.78831606
   0.44155063  0.28766114  0.38911560
   0.31756130  0.71257971  0.83280556
   0.81794589  0.21392769  0.83337297
   0.19128011  0.96256892  0.83329438
   0.56234050  0.20715413  0.56548948
   0.06571684  0.03989982  0.74393155
   0.81150069  0.87132084  0.52133568
   0.19067705  0.28984621  0.74396801
   0.93364037  0.45231208  0.34494239
   0.94116389  0.28669997  0.38896111
   0.81301265  0.03984032  0.87545174
   0.18365482  0.78796785  0.61086540
   0.56633870  0.03793325  0.38909605
   0.94178965  0.96361240  0.83359327
   0.31412155  0.53871729  0.87577492
   0.69053246  0.29036495  0.74393003
   0.18280102  0.61351918  0.16658957
   0.81220797  0.20571788  0.47868298
   0.80874895  0.53797467  0.61092783
   0.31201833  0.87035907  0.43449744
   0.80924927  0.03823598  0.25610040
   0.68360300  0.95170481  0.34488753
   0.93199753  0.11340490  0.16706208
   0.06165399  0.87129947  0.52138060
   0.55835948  0.53836145  0.25609052
   0.68461706  0.79606317  0.87552198
   0.55579508  0.36582993  0.16678123
   0.43996070  0.79111178  0.74410196
   0.81150541  0.70661763  0.56546663
   0.55981532  0.87223584  0.78832486
   0.68659453  0.12159980  0.52136523
   0.81649788  0.37490002  0.65489825
   0.94164324  0.46293920  0.83352297
   0.06042819  0.20805222  0.69959072
   0.43526200  0.95788405  0.69956956
   0.31670073  0.21255240  0.83315860
   0.44153657  0.62493120  0.65491025
   0.30871855  0.53787159  0.61089648
   0.93665249  0.45667098  0.56558685
   0.69027609  0.79065343  0.74400095
   0.93375534  0.78830820  0.12466915
   0.69172619  0.78771269  0.38906697
   0.94058613  0.78997678  0.74414191
   0.05882958  0.20288538  0.34497715
   0.68361210  0.45230970  0.34510113
   0.43498824  0.12131370  0.78856689
   0.06504098  0.20522749  0.21166790
   0.05515878  0.36618834  0.16683321
   0.93347388  0.78869796  0.25584343
   0.56049059  0.20782013  0.69958407
   0.68514296  0.95788693  0.69959430
   0.80961121  0.87246818  0.78818247
   0.43697487  0.95709558  0.56538102
   0.81051362  0.37342048  0.78817206
   0.68388488  0.28955537  0.25613016
   0.18736048  0.45719516  0.56547418
   0.05545606  0.86596207  0.16675663
   0.18380266  0.28801046  0.61093162
   0.06229046  0.20733249  0.56536177
   0.31039911  0.20790180  0.69963524
   0.56361014  0.53911446  0.87569110
   0.06185901  0.70629783  0.56552152
   0.68450143  0.62158643  0.78829886
   0.31618064  0.53784203  0.38905255
   0.18673901  0.62138019  0.52142157
   0.56228568  0.87036795  0.43447745
   0.43690674  0.45702148  0.56550662
   0.44012964  0.29077458  0.74397699
   0.81922899  0.87485417  0.30042250
   0.80867615  0.70268319  0.34507970
   0.44166829  0.46227860  0.83313702
   0.68748930  0.95557959  0.47867730
   0.68490615  0.45793765  0.69956854
   0.56177917  0.87196482  0.52141564
   0.56641051  0.37478293  0.65490931
   0.81642169  0.87493600  0.65490922
   0.81166810  0.37122818  0.43422389
   0.80881923  0.53830481  0.25626131
   0.69168111  0.46169216  0.83308063
   0.18629782  0.78844612  0.12432619
   0.69142354  0.28735507  0.38905498
   0.31652077  0.37466271  0.65488856
   0.30869432  0.20244509  0.34488603
   0.81562496  0.53993776  0.74396710
   0.69147872  0.96206806  0.83318612
   0.56634184  0.87463932  0.65490555
   0.31151421  0.70727631  0.56543574
   0.31198097  0.53126166  0.12425875
   0.68928332  0.95569988  0.21208940
   0.31145688  0.20653098  0.56549696
   0.18734771  0.95576497  0.47869333
   0.68746497  0.95709740  0.56548991
   0.43367683  0.78806209  0.61087895
   0.68288358  0.61199397  0.16680808
   0.31926802  0.87421516  0.30022972
   0.31220790  0.70580834  0.47865349
   0.93369913  0.28787497  0.61088196
   0.44511639  0.62449376  0.30039741
   0.31553496  0.54030220  0.74390223
   0.56643351  0.20347291  0.21177974
   0.93263164  0.61321609  0.16678878
   0.43719618  0.95582312  0.47864238
   0.56018848  0.37186283  0.78837291
   0.06143960  0.37226448  0.52135327
   0.30665899  0.36484862  0.16688704
   0.69490431  0.12423861  0.30038667
   0.44254218  0.96206395  0.83312066
   0.18521941  0.28733639  0.12443387
   0.18401730  0.28944975  0.25614472
   0.31237380  0.37032945  0.43444499
   0.56241054  0.03271839  0.12458560
   0.43371075  0.28793123  0.61085905
   0.18357349  0.45268799  0.34505983
   0.43420243  0.28756883  0.12449906
   0.68410224  0.78939293  0.25610585
   0.43666982  0.12154309  0.52137430
   0.18831351  0.29457827  0.87573061
   0.19136576  0.12500555  0.65491736
   0.94134709  0.12492905  0.65493129
   0.81625756  0.53748653  0.38907802
   0.06643789  0.03784449  0.38911059
   0.18355226  0.11237373  0.16686385
   0.05866651  0.53781654  0.61092964
   0.93415786  0.28931812  0.25610297
   0.55870063  0.53797800  0.61089870
   0.93687765  0.95736191  0.56543913
   0.69415418  0.62496955  0.30031375
   0.93738248  0.62033102  0.43446439
   0.93431099  0.62279068  0.78812633
   0.56043745  0.70771941  0.69956369
   0.06629465  0.71504033  0.83356444
   0.94487807  0.12391589  0.30031532
   0.93368087  0.78761273  0.61092570
   0.43362964  0.78937990  0.25607676
   0.31037536  0.37200104  0.78831820
   0.43976081  0.45525122  0.21189957
   0.18669827  0.12149839  0.52138765
   0.81041582  0.70796277  0.69957485
   0.05881246  0.03790616  0.61083795
   0.56618392  0.21301329  0.83303884
   0.31165113  0.87177500  0.52138370
   0.68568315  0.28793049  0.12432231
   0.18982285  0.95555503  0.21195855
   0.68365190  0.28805309  0.61088761
   0.30861614  0.03796468  0.61095113
   0.93507974  0.12272927  0.78831299
   0.43681487  0.79575884  0.87574032
   0.81563087  0.04005729  0.74394105
   0.93518871  0.45805398  0.69955240
   0.19141941  0.62500404  0.65494915
   0.31034496  0.70766874  0.69959472
   0.93481490  0.28770377  0.12443532
   0.43741802  0.45580762  0.47856579
   0.06226700  0.70573986  0.47855773
   0.93702069  0.12000280  0.43457345
   0.44408688  0.12468121  0.30047476
   0.18753222  0.12004384  0.43440675
   0.56340411  0.03900318  0.87577515
   0.18698450  0.95715494  0.56546900
   0.68438337  0.78897075  0.12462825
   0.55874517  0.70244172  0.34501744
   0.31639643  0.03715169  0.38902178
   0.68274203  0.11278349  0.16711300
   0.81497241  0.20478035  0.21163748
   0.05951450  0.53804715  0.25598647
   0.56235580  0.70578686  0.47863902
   0.43423929  0.78756777  0.12459180
   0.56917419  0.37379013  0.30038337
   0.43355520  0.95271633  0.34508088
   0.18502917  0.95804094  0.69963455
   0.43187630  0.61344894  0.16667184
   0.93992432  0.45501386  0.21194002
   0.06219026  0.53085804  0.12441057
   0.81176400  0.37189365  0.52135491
   0.94426245  0.62460252  0.30013758
   0.30911842  0.03768173  0.25584423
   0.68374355  0.78786841  0.61088130
   0.19160026  0.46269923  0.83317089
   0.43229775  0.11331359  0.16683009
   0.31145143  0.37183257  0.52140208
   0.43374515  0.62169491  0.78853802
   0.05897532  0.03820755  0.25613904
   0.56223193  0.70721286  0.56551475
   0.93998682  0.29000469  0.74405889
   0.68348700  0.12195095  0.78828076
   0.18970019  0.45502717  0.21167328
   0.94125195  0.78758254  0.38905021
   0.68598941  0.29750184  0.87579557
   0.55553136  0.86552424  0.16657150
   0.43541063  0.45799605  0.69955960
   0.93393800  0.95155314  0.34490815
   0.68654561  0.62136232  0.52127833
   0.06641804  0.87484135  0.65488810
   0.06006390  0.87283822  0.78818112
   0.06641380  0.37480899  0.65490831
   0.68704922  0.45566632  0.47863705
   0.18430076  0.78926693  0.25596043
   0.43698235  0.12064579  0.43437256
   0.81279435  0.03112403  0.12445621
   0.93649272  0.62161048  0.52140182
   0.44149450  0.12490119  0.65485979
   0.81254671  0.53073241  0.12438043
   0.43379377  0.45267833  0.34511656
   0.80891799  0.20250887  0.34509161
   0.30879004  0.70204391  0.34494279
   0.69133152  0.12495075  0.65492168
   0.56936328  0.87428735  0.30050143
   0.06548492  0.53988224  0.74398940
   0.94145120  0.95543720  0.21180733
   0.81658331  0.70528521  0.21179377
   0.06923726  0.87437801  0.30045865
   0.19456543  0.12449996  0.30044278
   0.05851014  0.70208235  0.34496922
   0.80879442  0.03791923  0.61088698
   0.06268885  0.37113544  0.43440159
   0.55883935  0.20271277  0.34490911
   0.81922644  0.37464690  0.30033337
   0.55928477  0.03877949  0.25587995
   0.56633873  0.53766702  0.38907952
   0.06252025  0.20587449  0.47865198
   0.31103744  0.87169234  0.78809407
   0.93517088  0.95818339  0.69956619
   0.06910670  0.37482617  0.30041277
   0.69132143  0.62487632  0.65495431
   0.68683994  0.45696941  0.56540513
   0.44013292  0.95617130  0.21222955
   0.31232224  0.20569433  0.47871221
   0.81331113  0.53855707  0.87559857
   0.68783063  0.62034835  0.43446453
   0.81044627  0.20787010  0.69963238
   0.81241288  0.70578191  0.47863145
   0.81157920  0.87090342  0.43422166
   0.93715410  0.95530585  0.47871753
   0.56221192  0.20565766  0.47864225
   0.18698135  0.62017461  0.43446831
   0.31556159  0.04071446  0.74385147
   0.94148134  0.62508649  0.65488203
   0.56627912  0.71261496  0.83303851
   0.31991562  0.37352410  0.30031285
   0.56570682  0.70440732  0.21179215
   0.18730718  0.45574723  0.47867482
   0.31462484  0.03934202  0.87558531
   0.18509733  0.45804971  0.69959420
   0.56168332  0.37164130  0.52139734
   0.19124721  0.28774296  0.38905386
   0.31564000  0.20558990  0.21157214
   0.06660408  0.70582238  0.21187246
   0.56201351  0.37074557  0.43444141
   0.43655467  0.62188372  0.52130316
   0.81684675  0.71426842  0.83305282
   0.06058584  0.37318898  0.78814407
   0.43649278  0.29653099  0.87601506
   0.31105570  0.03219324  0.12439823
   0.68780292  0.11959314  0.43437093
   0.18384825  0.95236097  0.34509985
   0.06654765  0.21375941  0.83363676
   0.55888402  0.03815062  0.61098209
   0.68989664  0.45519199  0.21200554
   0.19011690  0.79076101  0.74402544
   0.19432156  0.62456010  0.30045220
   0.44140048  0.78772445  0.38908284
   0.43415516  0.28962819  0.25604759
   0.06444638  0.53875141  0.87556714
   0.56581655  0.04052651  0.74390523
   0.18757221  0.79531916  0.87570072
   0.93729744  0.45557930  0.47867101
   0.56573730  0.54056515  0.74389349
   0.81130440  0.20681734  0.56545577
   0.18558984  0.62106738  0.78816734
   0.06700322  0.53833574  0.38919677
   0.06038411  0.70794045  0.69956583
   0.30847241  0.53827159  0.25580177
   0.31543662  0.70427337  0.21230994
   0.30487754  0.86486634  0.16620087
   0.43691383  0.62087000  0.43444039
   0.81802738  0.03886975  0.38925066
   0.93540935  0.29633127  0.87530105
   0.93733541  0.79393965  0.87521802
   0.06555562  0.03761723  0.87536934
   0.56269758  0.52953876  0.12488643
   0.80476515  0.36633356  0.16645779
   0.06210082  0.87088107  0.43445892
   0.93650747  0.12153037  0.52141593
   0.19287758  0.78753120  0.38902689
   0.80513099  0.86529170  0.16654971
Direct configuration=     2
   0.06178948  0.03181119  0.12454776
   0.31610164  0.87476908  0.65490253
   0.18496499  0.12220008  0.78826322
   0.44147021  0.28770489  0.38920028
   0.31706138  0.71230802  0.83287583
   0.81765378  0.21354690  0.83337998
   0.19094250  0.96233287  0.83333963
   0.56219493  0.20700703  0.56551381
   0.06538181  0.04002617  0.74392991
   0.81143438  0.87152220  0.52143526
   0.19035407  0.28999527  0.74397098
   0.93398750  0.45252597  0.34499299
   0.94078601  0.28674996  0.38905766
   0.81300397  0.04060148  0.87543940
   0.18402599  0.78812133  0.61076566
   0.56609752  0.03802707  0.38917839
   0.94177500  0.96326265  0.83356842
   0.31393487  0.53954421  0.87569362
   0.69030760  0.29041764  0.74394315
   0.18321865  0.61406588  0.16662678
   0.81218713  0.20561213  0.47866896
   0.80896120  0.53811191  0.61082207
   0.31218918  0.87049946  0.43449523
   0.80958007  0.03813635  0.25606456
   0.68414203  0.95219816  0.34494340
   0.93226621  0.11384681  0.16704651
   0.06177134  0.87152017  0.52144821
   0.55891968  0.53841654  0.25601582
   0.68509822  0.79548933  0.87550285
   0.55603688  0.36598971  0.16674657
   0.43983514  0.79110088  0.74408675
   0.81146922  0.70653293  0.56549313
   0.56014675  0.87238849  0.78824455
   0.68658618  0.12172132  0.52144861
   0.81605826  0.37476266  0.65488723
   0.94152502  0.46271790  0.83352306
   0.06059347  0.20794372  0.69958427
   0.43551018  0.95778068  0.69955209
   0.31633721  0.21218601  0.83322429
   0.44112828  0.62480865  0.65487302
   0.30911581  0.53807340  0.61078674
   0.93665017  0.45656008  0.56559052
   0.69008400  0.79071479  0.74399961
   0.93369215  0.78763209  0.12472801
   0.69144857  0.78777993  0.38914743
   0.94029595  0.79005257  0.74411499
   0.05922664  0.20302859  0.34502048
   0.68418111  0.45241286  0.34512231
   0.43524215  0.12170911  0.78848004
   0.06480912  0.20503577  0.21162020
   0.05562732  0.36621650  0.16680306
   0.93381219  0.78872467  0.25581337
   0.56069927  0.20773451  0.69957519
   0.68544159  0.95780123  0.69959657
   0.80993326  0.87264909  0.78813061
   0.43698460  0.95695421  0.56542769
   0.81072385  0.37334287  0.78812369
   0.68426971  0.28926272  0.25608765
   0.18733273  0.45703552  0.56549729
   0.05603309  0.86621939  0.16675607
   0.18420162  0.28820824  0.61084450
   0.06221290  0.20715696  0.56538260
   0.31060608  0.20779922  0.69961267
   0.56376887  0.53997877  0.87561298
   0.06187206  0.70624058  0.56552801
   0.68479949  0.62193241  0.78822018
   0.31603379  0.53778399  0.38916345
   0.18681843  0.62160521  0.52150773
   0.56229066  0.87053565  0.43446173
   0.43691475  0.45688782  0.56552832
   0.43995243  0.29083258  0.74397643
   0.81861802  0.87465509  0.30040235
   0.80911231  0.70282946  0.34511682
   0.44145775  0.46195269  0.83320451
   0.68747732  0.95550346  0.47864466
   0.68524683  0.45784725  0.69956750
   0.56176267  0.87203026  0.52150477
   0.56604041  0.37467067  0.65486776
   0.81600202  0.87479390  0.65489470
   0.81165131  0.37107059  0.43423811
   0.80916581  0.53832608  0.25619053
   0.69160313  0.46151054  0.83316007
   0.18635216  0.78780346  0.12440298
   0.69106469  0.28734077  0.38912640
   0.31610270  0.37456407  0.65485866
   0.30933935  0.20266895  0.34496662
   0.81538316  0.54003754  0.74394624
   0.69137345  0.96183261  0.83325112
   0.56595882  0.87456458  0.65487925
   0.31163989  0.70711093  0.56546478
   0.31176144  0.53179147  0.12433517
   0.68908912  0.95545567  0.21202582
   0.31161056  0.20651892  0.56551973
   0.18729451  0.95567810  0.47866646
   0.68729541  0.95693751  0.56552370
   0.43403283  0.78819603  0.61076412
   0.68291230  0.61247519  0.16683435
   0.31874773  0.87408064  0.30024054
   0.31218072  0.70566100  0.47861440
   0.93395865  0.28801600  0.61078528
   0.44450423  0.62423881  0.30040940
   0.31525413  0.54035150  0.74391907
   0.56602237  0.20344750  0.21176585
   0.93283581  0.61359146  0.16682085
   0.43724889  0.95567238  0.47861576
   0.56044527  0.37201072  0.78829919
   0.06148307  0.37230852  0.52143284
   0.30689308  0.36499509  0.16684700
   0.69425440  0.12404565  0.30041734
   0.44221222  0.96180658  0.83318507
   0.18530199  0.28678149  0.12455637
   0.18443262  0.28908000  0.25608964
   0.31250631  0.37047248  0.43444843
   0.56208794  0.03288275  0.12463051
   0.43407343  0.28813200  0.61075007
   0.18409914  0.45283823  0.34510120
   0.43400934  0.28694068  0.12460488
   0.68452404  0.78921906  0.25605694
   0.43672941  0.12178946  0.52146115
   0.18839447  0.29413744  0.87570763
   0.19099027  0.12486942  0.65490826
   0.94096615  0.12477587  0.65491727
   0.81591973  0.53744753  0.38915083
   0.06609658  0.03786699  0.38919896
   0.18373886  0.11299507  0.16688269
   0.05899912  0.53798507  0.61082668
   0.93444482  0.28904757  0.25604834
   0.55901843  0.53815176  0.61078178
   0.93684890  0.95712085  0.56545924
   0.69367513  0.62470444  0.30035090
   0.93739779  0.62048107  0.43445454
   0.93464922  0.62314887  0.78809503
   0.56066506  0.70763365  0.69955227
   0.06600878  0.71458679  0.83354310
   0.94411608  0.12378298  0.30033650
   0.93394305  0.78779181  0.61083346
   0.43417263  0.78923925  0.25601868
   0.31057307  0.37211824  0.78824466
   0.43959242  0.45511870  0.21184003
   0.18670898  0.12168657  0.52146182
   0.81063129  0.70789736  0.69957336
   0.05908010  0.03809443  0.61074528
   0.56599093  0.21263742  0.83307647
   0.31172851  0.87184377  0.52148649
   0.68564505  0.28727294  0.12441786
   0.18965654  0.95552398  0.21188406
   0.68389330  0.28826509  0.61079557
   0.30900569  0.03812248  0.61083336
   0.93532161  0.12306206  0.78826021
   0.43692146  0.79509493  0.87567565
   0.81537753  0.04020707  0.74393204
   0.93542409  0.45791598  0.69955242
   0.19105506  0.62487001  0.65492322
   0.31056791  0.70761766  0.69958437
   0.93471425  0.28708506  0.12452253
   0.43738635  0.45553710  0.47854345
   0.06224383  0.70550146  0.47855896
   0.93706979  0.12014617  0.43458680
   0.44371263  0.12434647  0.30047332
   0.18745859  0.12015881  0.43439494
   0.56362188  0.03980095  0.87570436
   0.18698522  0.95698502  0.56549900
   0.68448412  0.78832072  0.12467733
   0.55935206  0.70264013  0.34507751
   0.31618414  0.03725896  0.38912924
   0.68294789  0.11322387  0.16710160
   0.81476092  0.20452737  0.21162309
   0.05971151  0.53815280  0.25591947
   0.56237679  0.70567403  0.47860597
   0.43405015  0.78708452  0.12462059
   0.56867577  0.37356245  0.30039443
   0.43417010  0.95301025  0.34510171
   0.18526768  0.95796633  0.69962255
   0.43205327  0.61387709  0.16669452
   0.93971163  0.45501796  0.21189485
   0.06196599  0.53116001  0.12447551
   0.81174553  0.37199036  0.52143671
   0.94363656  0.62445038  0.30016513
   0.30955623  0.03780293  0.25582232
   0.68402277  0.78802351  0.61077335
   0.19130801  0.46244868  0.83325292
   0.43249166  0.11370874  0.16687643
   0.31153994  0.37198592  0.52148677
   0.43421313  0.62196855  0.78845379
   0.05924658  0.03822305  0.25607873
   0.56210038  0.70702785  0.56553309
   0.93981302  0.29004424  0.74404417
   0.68398978  0.12227059  0.78820435
   0.18950427  0.45501341  0.21162299
   0.94088939  0.78763326  0.38914083
   0.68625299  0.29662306  0.87574477
   0.55570370  0.86580262  0.16660244
   0.43563536  0.45785556  0.69955167
   0.93437347  0.95197417  0.34498284
   0.68650218  0.62154762  0.52138616
   0.06601731  0.87471550  0.65487704
   0.06032378  0.87296645  0.78816091
   0.06602338  0.37467035  0.65490456
   0.68707400  0.45540333  0.47858471
   0.18463979  0.78913432  0.25593044
   0.43711935  0.12074465  0.43438782
   0.81240837  0.03168034  0.12450653
   0.93651068  0.62174274  0.52147068
   0.44109375  0.12475979  0.65483856
   0.81238075  0.53126982  0.12441026
   0.43444735  0.45275529  0.34515369
   0.80925563  0.20263654  0.34512985
   0.30939490  0.70234045  0.34500591
   0.69093017  0.12483428  0.65489685
   0.56889774  0.87416080  0.30048947
   0.06520263  0.53993301  0.74397201
   0.94098586  0.95533235  0.21179080
   0.81612612  0.70510572  0.21177014
   0.06858211  0.87420192  0.30046616
   0.19396822  0.12427275  0.30042006
   0.05894411  0.70241358  0.34502407
   0.80907518  0.03807702  0.61078518
   0.06267045  0.37100078  0.43440027
   0.55949161  0.20284494  0.34498780
   0.81860009  0.37440943  0.30035258
   0.55974551  0.03878158  0.25587049
   0.56601463  0.53754795  0.38916930
   0.06246489  0.20566424  0.47864626
   0.31114116  0.87188602  0.78804592
   0.93541884  0.95810360  0.69956093
   0.06860151  0.37450327  0.30041893
   0.69091568  0.62476797  0.65492374
   0.68673822  0.45684098  0.56544196
   0.43990733  0.95599913  0.21212183
   0.31231262  0.20554985  0.47867179
   0.81338806  0.53948068  0.87554968
   0.68777309  0.62039981  0.43445052
   0.81070830  0.20779840  0.69962534
   0.81240794  0.70560954  0.47860820
   0.81161052  0.87100525  0.43425333
   0.93717595  0.95523624  0.47869792
   0.56227367  0.20550904  0.47861056
   0.18707887  0.62029132  0.43447559
   0.31526334  0.04079323  0.74386840
   0.94105305  0.62495845  0.65486595
   0.56609878  0.71233602  0.83307024
   0.31929566  0.37334310  0.30034287
   0.56542899  0.70437855  0.21176035
   0.18734739  0.45553291  0.47864110
   0.31463501  0.04027855  0.87553481
   0.18530937  0.45791285  0.69958664
   0.56171224  0.37182943  0.52148516
   0.19093364  0.28767981  0.38915715
   0.31540200  0.20539816  0.21151663
   0.06613878  0.70551034  0.21179444
   0.56207837  0.37078284  0.43443465
   0.43663190  0.62198704  0.52140033
   0.81665274  0.71384368  0.83307503
   0.06074844  0.37324960  0.78811573
   0.43660923  0.29579920  0.87592511
   0.31108502  0.03249228  0.12444811
   0.68779314  0.11995599  0.43436577
   0.18426920  0.95261451  0.34513552
   0.06622301  0.21330357  0.83358519
   0.55917744  0.03829185  0.61085256
   0.68956004  0.45509992  0.21194625
   0.18986385  0.79076356  0.74401325
   0.19372505  0.62432557  0.30043742
   0.44123480  0.78769687  0.38919057
   0.43458171  0.28934113  0.25598886
   0.06460686  0.53954453  0.87554109
   0.56558424  0.04060121  0.74392366
   0.18764135  0.79472394  0.87567273
   0.93724576  0.45535363  0.47863413
   0.56548076  0.54062736  0.74389283
   0.81130195  0.20676105  0.56547152
   0.18575413  0.62151689  0.78812569
   0.06668479  0.53829725  0.38928358
   0.06055678  0.70788785  0.69955910
   0.30892999  0.53826140  0.25574120
   0.31531299  0.70426483  0.21219515
   0.30521304  0.86515124  0.16622275
   0.43696323  0.62081679  0.43443565
   0.81760359  0.03877282  0.38929134
   0.93565079  0.29579079  0.87536181
   0.93734300  0.79331897  0.87527207
   0.06552807  0.03853282  0.87537814
   0.56251112  0.53004052  0.12492711
   0.80513267  0.36637900  0.16640909
   0.06208600  0.87103512  0.43445410
   0.93655478  0.12179122  0.52144012
   0.19246359  0.78749579  0.38911190
   0.80545517  0.86537087  0.16655880
Direct configuration=     3
   0.06157652  0.03273424  0.12474443
   0.31516864  0.87444245  0.65484899
   0.18562785  0.12287561  0.78813680
   0.44127778  0.28780955  0.38940289
   0.31586519  0.71165793  0.83304396
   0.81695483  0.21263576  0.83339676
   0.19013467  0.96176803  0.83344789
   0.56184661  0.20665505  0.56557203
   0.06458017  0.04032851  0.74392599
   0.81127571  0.87200402  0.52167353
   0.18958124  0.29035193  0.74397809
   0.93481812  0.45303778  0.34511406
   0.93988182  0.28686957  0.38928869
   0.81298321  0.04242279  0.87540987
   0.18491413  0.78848856  0.61052698
   0.56552043  0.03825156  0.38937542
   0.94173995  0.96242576  0.83350898
   0.31348817  0.54152286  0.87549908
   0.68976953  0.29054374  0.74397453
   0.18421796  0.61537401  0.16671582
   0.81213724  0.20535909  0.47863542
   0.80946907  0.53844031  0.61056901
   0.31259797  0.87083540  0.43448995
   0.81037160  0.03789794  0.25597880
   0.68543183  0.95337865  0.34507708
   0.93290911  0.11490421  0.16700926
   0.06205213  0.87204826  0.52160997
   0.56026012  0.53854836  0.25583710
   0.68624951  0.79411624  0.87545707
   0.55661546  0.36637203  0.16666365
   0.43953471  0.79107480  0.74405037
   0.81138263  0.70633026  0.56555654
   0.56093979  0.87275377  0.78805239
   0.68656621  0.12201211  0.52164811
   0.81500633  0.37443397  0.65486085
   0.94124212  0.46218838  0.83352326
   0.06098894  0.20768412  0.69956882
   0.43610404  0.95753332  0.69951027
   0.31546738  0.21130933  0.83338147
   0.44015133  0.62451541  0.65478393
   0.31006637  0.53855629  0.61052416
   0.93664463  0.45629475  0.56559929
   0.68962436  0.79086159  0.74399641
   0.93354095  0.78601433  0.12486885
   0.69078429  0.78794082  0.38933997
   0.93960160  0.79023393  0.74405056
   0.06017672  0.20337126  0.34512416
   0.68554264  0.45265971  0.34517298
   0.43584971  0.12265526  0.78827225
   0.06425433  0.20457702  0.21150608
   0.05674842  0.36628390  0.16673091
   0.93462167  0.78878859  0.25574144
   0.56119861  0.20752965  0.69955393
   0.68615616  0.95759619  0.69960201
   0.81070387  0.87308198  0.78800653
   0.43700787  0.95661596  0.56553937
   0.81122689  0.37315716  0.78800796
   0.68519051  0.28856246  0.25598592
   0.18726631  0.45665356  0.56555258
   0.05741380  0.86683510  0.16675473
   0.18515624  0.28868147  0.61063604
   0.06202732  0.20673696  0.56543243
   0.31110132  0.20755376  0.69955865
   0.56414869  0.54204687  0.87542607
   0.06190330  0.70610360  0.56554355
   0.68551267  0.62276026  0.78803192
   0.31568242  0.53764511  0.38942882
   0.18700847  0.62214362  0.52171391
   0.56230257  0.87093693  0.43442411
   0.43693393  0.45656801  0.56558025
   0.43952840  0.29097136  0.74397508
   0.81715609  0.87417875  0.30035416
   0.81015597  0.70317944  0.34520563
   0.44095397  0.46117285  0.83336601
   0.68744868  0.95532129  0.47856655
   0.68606201  0.45763097  0.69956502
   0.56172319  0.87218686  0.52171805
   0.56515485  0.37440206  0.65476836
   0.81499783  0.87445388  0.65485994
   0.81161113  0.37069352  0.43427212
   0.80999510  0.53837697  0.25602115
   0.69141652  0.46107595  0.83335014
   0.18648220  0.78626573  0.12458673
   0.69020604  0.28730656  0.38929727
   0.31510235  0.37432806  0.65478711
   0.31088276  0.20320460  0.34515944
   0.81480457  0.54027629  0.74389631
   0.69112157  0.96126924  0.83340666
   0.56504233  0.87438575  0.65481631
   0.31194061  0.70671523  0.56553428
   0.31123617  0.53305920  0.12451802
   0.68862443  0.95487130  0.21187368
   0.31197828  0.20649007  0.56557421
   0.18716722  0.95547023  0.47860217
   0.68688966  0.95655493  0.56560456
   0.43488468  0.78851653  0.61048935
   0.68298102  0.61362666  0.16689719
   0.31750278  0.87375876  0.30026644
   0.31211568  0.70530845  0.47852088
   0.93457964  0.28835346  0.61055395
   0.44303944  0.62362875  0.30043810
   0.31458215  0.54046944  0.74395937
   0.56503861  0.20338672  0.21173260
   0.93332437  0.61448964  0.16689758
   0.43737501  0.95531170  0.47855206
   0.56105970  0.37236457  0.78812279
   0.06158708  0.37241389  0.52162323
   0.30745322  0.36534556  0.16675118
   0.69269931  0.12358392  0.30049071
   0.44142268  0.96119076  0.83333918
   0.18549960  0.28545371  0.12484948
   0.18542638  0.28819528  0.25595784
   0.31282338  0.37081473  0.43445666
   0.56131602  0.03327603  0.12473796
   0.43494124  0.28861241  0.61048932
   0.18535689  0.45319773  0.34520019
   0.43354733  0.28543765  0.12485809
   0.68553331  0.78880304  0.25593992
   0.43687198  0.12237897  0.52166898
   0.18858820  0.29308264  0.87565265
   0.19009180  0.12454369  0.65488650
   0.94005465  0.12440936  0.65488374
   0.81511136  0.53735422  0.38932505
   0.06527992  0.03792084  0.38941038
   0.18418535  0.11448182  0.16692776
   0.05979500  0.53838832  0.61058032
   0.93513143  0.28840022  0.25591760
   0.55977883  0.53856755  0.61050202
   0.93678008  0.95654404  0.56550738
   0.69252885  0.62407009  0.30043979
   0.93743442  0.62084010  0.43443096
   0.93545853  0.62400595  0.78802013
   0.56120970  0.70742847  0.69952493
   0.06532474  0.71350156  0.83349205
   0.94229281  0.12346495  0.30038717
   0.93457039  0.78822032  0.61061276
   0.43547190  0.78890269  0.25587973
   0.31104614  0.37239867  0.78806869
   0.43918951  0.45480159  0.21169754
   0.18673460  0.12213684  0.52163927
   0.81114686  0.70774085  0.69956979
   0.05972052  0.03854491  0.61052354
   0.56552915  0.21173803  0.83316653
   0.31191368  0.87200833  0.52173244
   0.68555390  0.28569958  0.12464651
   0.18925862  0.95544969  0.21170582
   0.68447093  0.28877238  0.61057533
   0.30993777  0.03850008  0.61055157
   0.93590034  0.12385837  0.78813392
   0.43717649  0.79350634  0.87552089
   0.81477135  0.04056545  0.74391050
   0.93598732  0.45758577  0.69955248
   0.19018324  0.62454932  0.65486119
   0.31110138  0.70749542  0.69955959
   0.93447343  0.28560463  0.12473123
   0.43731057  0.45488982  0.47849001
   0.06218838  0.70493102  0.47856190
   0.93718729  0.12048921  0.43461874
   0.44281712  0.12354553  0.30046986
   0.18728240  0.12043391  0.43436669
   0.56414295  0.04170982  0.87553496
   0.18698692  0.95657843  0.56557078
   0.68472518  0.78676532  0.12479475
   0.56080423  0.70311488  0.34522124
   0.31567617  0.03751564  0.38938637
   0.68344047  0.11427763  0.16707433
   0.81425487  0.20392206  0.21158868
   0.06018291  0.53840561  0.25575917
   0.56242699  0.70540407  0.47852688
   0.43359757  0.78592820  0.12468947
   0.56748316  0.37301766  0.30042090
   0.43564142  0.95371355  0.34515154
   0.18583839  0.95778781  0.69959385
   0.43247671  0.61490158  0.16674879
   0.93920270  0.45502776  0.21178678
   0.06142934  0.53188255  0.12463088
   0.81170132  0.37222176  0.52163244
   0.94213895  0.62408633  0.30023106
   0.31060382  0.03809292  0.25576988
   0.68469088  0.78839465  0.61051504
   0.19060872  0.46184918  0.83344921
   0.43295566  0.11465427  0.16698731
   0.31175171  0.37235284  0.52168941
   0.43533290  0.62262329  0.78825226
   0.05989565  0.03826015  0.25593443
   0.56178561  0.70658515  0.56557696
   0.93939715  0.29013889  0.74400896
   0.68519283  0.12303541  0.78802152
   0.18903549  0.45498051  0.21150268
   0.94002186  0.78775463  0.38935768
   0.68688370  0.29452033  0.87562323
   0.55611605  0.86646873  0.16667647
   0.43617309  0.45751942  0.69953269
   0.93541544  0.95298159  0.34516153
   0.68639824  0.62199101  0.52164417
   0.06505844  0.87441436  0.65485058
   0.06094561  0.87327327  0.78811255
   0.06508919  0.37433860  0.65489558
   0.68713330  0.45477407  0.47845947
   0.18545100  0.78881700  0.25585868
   0.43744717  0.12098119  0.43442434
   0.81148481  0.03301146  0.12462693
   0.93655363  0.62205921  0.52163543
   0.44013483  0.12442146  0.65478778
   0.81198364  0.53255574  0.12448163
   0.43601124  0.45293942  0.34524253