       N       E                     dE             d eps       ncg     rms          rms(c)
DAV:   1     0.303682536139E+05    0.30368E+05   -0.91663E+05 27770   0.213E+03
DAV:   2     0.151838049193E+04   -0.28850E+05   -0.28256E+05 27600   0.616E+02
DAV:   3    -0.189842213955E+04   -0.34168E+04   -0.29701E+04 38540   0.298E+02
DAV:   4    -0.260978862408E+04   -0.71137E+03   -0.64779E+03 50600   0.103E+02
DAV:   5    -0.273970703605E+04   -0.12992E+03   -0.12151E+03 48250   0.423E+01    0.206E+02
RMM:   6    -0.623960017115E+04   -0.34999E+04   -0.13177E+04 48252   0.261E+02    0.690E+02
RMM:   7    -0.426927360509E+04    0.19703E+04   -0.38624E+03 48992   0.106E+02    0.411E+02
RMM:   8    -0.821302118331E+04   -0.39437E+04   -0.17741E+04 48355   0.315E+02    0.932E+02
RMM:   9    -0.904771670869E+04   -0.83470E+03   -0.14721E+04 49402   0.148E+02    0.852E+02
RMM:  10    -0.159169188279E+05   -0.68692E+04   -0.20486E+04 43671   0.334E+02    0.111E+03
RMM:  11    -0.146070640719E+05    0.13099E+04   -0.14159E+04 46200   0.191E+02    0.988E+02
RMM:  12    -0.125314935752E+05    0.20756E+04   -0.62148E+03 46020   0.175E+02    0.895E+02
RMM:  13    -0.861903489086E+04    0.39125E+04   -0.45220E+03 46629   0.108E+02    0.697E+02
RMM:  14    -0.456237507605E+04    0.40567E+04   -0.54230E+03 33309   0.176E+02    0.461E+02
RMM:  15    -0.383380812666E+04    0.72857E+03   -0.27529E+03 28840   0.108E+02    0.413E+02
RMM:  16    -0.530328750311E+04   -0.14695E+04   -0.36423E+03 43666   0.127E+02    0.422E+02
RMM:  17    -0.272509375380E+04    0.25782E+04   -0.37343E+03 29656   0.133E+02    0.301E+02
RMM:  18    -0.345226415244E+04   -0.72717E+03   -0.33283E+03 45856   0.690E+01    0.331E+02
RMM:  19    -0.265898815369E+04    0.79328E+03   -0.16659E+03 42179   0.480E+01    0.232E+02
RMM:  20    -0.275883902420E+04   -0.99851E+02   -0.11047E+03 41682   0.329E+01    0.226E+02
RMM:  21    -0.266812708769E+04    0.90712E+02   -0.66754E+02 39801   0.229E+01    0.212E+02
RMM:  22    -0.256865390901E+04    0.99473E+02   -0.39012E+02 43219   0.158E+01    0.180E+02
RMM:  23    -0.249253330570E+04    0.76121E+02   -0.16608E+02 31587   0.181E+01    0.157E+02
RMM:  24    -0.241343317560E+04    0.79100E+02   -0.20056E+02 33926   0.190E+01    0.136E+02
RMM:  25    -0.236104811864E+04    0.52385E+02   -0.34116E+02 37615   0.176E+01    0.868E+01
RMM:  26    -0.238845005062E+04   -0.27402E+02   -0.33093E+02 36632   0.182E+01    0.866E+01
RMM:  27    -0.239042220032E+04   -0.19721E+01   -0.18994E+02 39039   0.125E+01    0.792E+01
RMM:  28    -0.239234280349E+04   -0.19206E+01   -0.13802E+02 41096   0.728E+00    0.762E+01
RMM:  29    -0.239128292952E+04    0.10599E+01   -0.94634E+01 42137   0.462E+00    0.732E+01
RMM:  30    -0.240764415945E+04   -0.16361E+02   -0.87777E+01 46674   0.278E+00    0.806E+01
RMM:  31    -0.236873466282E+04    0.38909E+02   -0.35315E+01 36641   0.618E+00    0.703E+01
RMM:  32    -0.235554471988E+04    0.13190E+02   -0.28188E+01 40904   0.417E+00    0.643E+01
RMM:  33    -0.234438393084E+04    0.11161E+02   -0.76937E+00 31902   0.380E+00    0.574E+01
RMM:  34    -0.233993096503E+04    0.44530E+01   -0.92233E+00 42051   0.217E+00    0.524E+01
RMM:  35    -0.233993620683E+04   -0.52418E-02   -0.51041E+00 32286   0.317E+00    0.516E+01
RMM:  36    -0.233723909998E+04    0.26971E+01   -0.57122E+00 40037   0.223E+00    0.470E+01
RMM:  37    -0.233660703414E+04    0.63207E+00   -0.32036E+00 30687   0.300E+00    0.454E+01
RMM:  38    -0.233267773793E+04    0.39293E+01   -0.75268E+00 35158   0.348E+00    0.381E+01
RMM:  39    -0.233040616325E+04    0.22716E+01   -0.52114E+00 31018   0.362E+00    0.338E+01
RMM:  40    -0.232914911629E+04    0.12570E+01   -0.51484E+00 35021   0.276E+00    0.293E+01
RMM:  41    -0.232883026576E+04    0.31885E+00   -0.39306E+00 38598   0.204E+00    0.278E+01
RMM:  42    -0.233036720570E+04   -0.15369E+01   -0.26421E+00 33900   0.196E+00    0.319E+01
RMM:  43    -0.233146647541E+04   -0.10993E+01   -0.22828E+00 31766   0.218E+00    0.342E+01
RMM:  44    -0.233113846988E+04    0.32801E+00   -0.18486E+00 32029   0.197E+00    0.333E+01
RMM:  45    -0.232916130752E+04    0.19772E+01   -0.11535E+00 39084   0.124E+00    0.276E+01
RMM:  46    -0.232864736534E+04    0.51394E+00   -0.58245E-01 30416   0.130E+00    0.259E+01
RMM:  47    -0.232822180132E+04    0.42556E+00   -0.78218E-01 35526   0.113E+00    0.237E+01
RMM:  48    -0.232810671540E+04    0.11509E+00   -0.77017E-01 29499   0.167E+00    0.223E+01
RMM:  49    -0.232773598928E+04    0.37073E+00   -0.13154E+00 32048   0.170E+00    0.209E+01
RMM:  50    -0.232738403047E+04    0.35196E+00   -0.89045E-01 33702   0.125E+00    0.194E+01
RMM:  51    -0.233427861558E+04   -0.68946E+01   -0.65576E+00 31193   0.402E+00    0.409E+01
RMM:  52    -0.233040722479E+04    0.38714E+01   -0.58523E+00 30757   0.389E+00    0.303E+01
RMM:  53    -0.232950224710E+04    0.90498E+00   -0.37111E+00 34789   0.235E+00    0.281E+01
RMM:  54    -0.232981116895E+04   -0.30892E+00   -0.12795E+00 29397   0.212E+00    0.295E+01
RMM:  55    -0.233033237197E+04   -0.52120E+00   -0.10861E+00 30477   0.178E+00    0.310E+01
RMM:  56    -0.235883171688E+04   -0.28499E+02   -0.17996E+01 29929   0.755E+00    0.716E+01
RMM:  57    -0.233964660838E+04    0.19185E+02   -0.16036E+01 37144   0.486E+00    0.492E+01
RMM:  58    -0.233772355418E+04    0.19231E+01   -0.56496E+00 28924   0.484E+00    0.477E+01
RMM:  59    -0.233981127708E+04   -0.20877E+01   -0.11723E+01 30608   0.560E+00    0.493E+01
RMM:  60    -0.233730059462E+04    0.25107E+01   -0.53316E+00 28868   0.438E+00    0.448E+01
RMM:  61    -0.234306344187E+04   -0.57628E+01   -0.71968E+00 29109   0.492E+00    0.550E+01
RMM:  62    -0.234207055384E+04    0.99289E+00   -0.70672E+00 28328   0.553E+00    0.530E+01
RMM:  63    -0.233260996078E+04    0.94606E+01   -0.72328E+00 34983   0.338E+00    0.342E+01
RMM:  64    -0.233115595253E+04    0.14540E+01   -0.35213E+00 27937   0.385E+00    0.313E+01
RMM:  65    -0.232756394179E+04    0.35920E+01   -0.25093E+00 27865   0.333E+00    0.192E+01
RMM:  66    -0.233034483610E+04   -0.27809E+01   -0.44915E+00 32324   0.304E+00    0.291E+01
RMM:  67    -0.232898305559E+04    0.13618E+01   -0.20952E+00 30076   0.252E+00    0.244E+01
RMM:  68    -0.232769454351E+04    0.12885E+01   -0.10328E+00 28329   0.215E+00    0.192E+01
RMM:  69    -0.232642746836E+04    0.12671E+01   -0.10132E+00 29362   0.179E+00    0.119E+01
RMM:  70    -0.232641868878E+04    0.87796E-02   -0.83053E-01 30316   0.158E+00    0.117E+01
RMM:  71    -0.232773670051E+04   -0.13180E+01   -0.11054E+00 29691   0.191E+00    0.196E+01
RMM:  72    -0.232664452221E+04    0.10922E+01   -0.43218E-01 28106   0.152E+00    0.133E+01
RMM:  73    -0.232617009668E+04    0.47443E+00   -0.32954E-01 30426   0.971E-01    0.986E+00
RMM:  74    -0.232590524011E+04    0.26486E+00   -0.24854E-01 31287   0.794E-01    0.668E+00
RMM:  75    -0.232580521642E+04    0.10002E+00   -0.17130E-01 32494   0.603E-01    0.509E+00
RMM:  76    -0.232579083392E+04    0.14382E-01   -0.94041E-02 30846   0.503E-01    0.482E+00
RMM:  77    -0.232575884785E+04    0.31986E-01   -0.91074E-02 33805   0.412E-01    0.408E+00
RMM:  78    -0.232575388261E+04    0.49652E-02   -0.79992E-02 30945   0.461E-01    0.388E+00
RMM:  79    -0.232571068999E+04    0.43193E-01   -0.47429E-02 28450   0.429E-01    0.263E+00
RMM:  80    -0.232570127038E+04    0.94196E-02   -0.34526E-02 30301   0.319E-01    0.224E+00
RMM:  81    -0.232573038888E+04   -0.29118E-01   -0.64640E-02 28385   0.514E-01    0.312E+00
RMM:  82    -0.232571025220E+04    0.20137E-01   -0.25168E-02 27796   0.415E-01    0.253E+00
RMM:  83    -0.232570107141E+04    0.91808E-02   -0.23036E-02 32092   0.218E-01    0.217E+00
RMM:  84    -0.232568911710E+04    0.11954E-01   -0.11586E-02 30791   0.174E-01    0.161E+00
RMM:  85    -0.232568275061E+04    0.63665E-02   -0.94376E-03 33224   0.136E-01    0.112E+00
RMM:  86    -0.232568421940E+04   -0.14688E-02   -0.74871E-03 29085   0.165E-01    0.119E+00
RMM:  87    -0.232568555185E+04   -0.13324E-02   -0.35631E-03 27878   0.146E-01    0.129E+00
RMM:  88    -0.232568280673E+04    0.27451E-02   -0.39329E-03 29816   0.112E-01    0.103E+00
RMM:  89    -0.232567930706E+04    0.34997E-02   -0.25073E-03 29620   0.957E-02    0.634E-01
RMM:  90    -0.232568056072E+04   -0.12537E-02   -0.27313E-03 33206   0.695E-02    0.776E-01
RMM:  91    -0.232568060005E+04   -0.39338E-04   -0.15046E-03 30954   0.625E-02    0.746E-01
RMM:  92    -0.232567975294E+04    0.84712E-03   -0.81094E-04 30023   0.515E-02    0.636E-01
RMM:  93    -0.232567870218E+04    0.10508E-02   -0.90390E-04 32930   0.418E-02    0.442E-01
RMM:  94    -0.232567828830E+04    0.41388E-03   -0.48022E-04 30333   0.372E-02    0.336E-01
RMM:  95    -0.232567830688E+04   -0.18582E-04   -0.51968E-04 31531   0.348E-02    0.329E-01
RMM:  96    -0.232567866604E+04   -0.35916E-03   -0.77386E-04 29321   0.512E-02    0.417E-01
RMM:  97    -0.232567812049E+04    0.54555E-03   -0.31484E-04 27952   0.427E-02    0.255E-01
RMM:  98    -0.232567806091E+04    0.59584E-04   -0.41053E-04 32561   0.277E-02    0.201E-01
RMM:  99    -0.232567795073E+04    0.11017E-03   -0.19084E-04 29194   0.226E-02    0.101E-01
RMM: 100    -0.232567795700E+04   -0.62687E-05   -0.19510E-04 29611   0.147E-02
   1 F= -.23256780E+04 E0= -.23228995E+04  d E =-.232568E+04
       N       E                     dE             d eps       ncg     rms          rms(c)
DAV:   1    -0.232568687811E+04   -0.89274E-02   -0.23006E+00 30280   0.158E+00    0.279E-01
RMM:   2    -0.232618935318E+04   -0.50248E+00   -0.71164E-02 28630   0.500E-01    0.954E+00
RMM:   3    -0.232576206614E+04    0.42729E+00   -0.26444E-02 32508   0.270E-01    0.340E+00
RMM:   4    -0.232582652665E+04   -0.64461E-01   -0.17218E-02 31113   0.206E-01    0.497E+00
RMM:   5    -0.232570113055E+04    0.12540E+00   -0.11483E-02 27607   0.239E-01    0.127E+00
RMM:   6    -0.232572530384E+04   -0.24173E-01   -0.17732E-02 30880   0.221E-01    0.263E+00
RMM:   7    -0.232573115967E+04   -0.58558E-02   -0.30387E-02 32687   0.255E-01    0.268E+00
RMM:   8    -0.232570778600E+04    0.23374E-01   -0.12557E-02 27620   0.238E-01    0.180E+00
RMM:   9    -0.232569397513E+04    0.13811E-01   -0.46933E-03 27869   0.143E-01    0.887E-01
RMM:  10    -0.232569173826E+04    0.22369E-02   -0.34384E-03 29327   0.105E-01    0.700E-01
RMM:  11    -0.232569072245E+04    0.10158E-02   -0.40376E-03 32708   0.912E-02    0.498E-01
RMM:  12    -0.232568985611E+04    0.86634E-03   -0.13180E-03 27768   0.752E-02    0.301E-01
RMM:  13    -0.232568967424E+04    0.18187E-03   -0.80308E-04 29840   0.487E-02    0.241E-01
RMM:  14    -0.232568963181E+04    0.42426E-04   -0.78281E-04 33747   0.373E-02    0.216E-01
RMM:  15    -0.232568949291E+04    0.13890E-03   -0.28298E-04 28852   0.313E-02    0.138E-01
RMM:  16    -0.232568940743E+04    0.85479E-04   -0.12699E-04 26737   0.220E-02    0.575E-02
RMM:  17    -0.232568941216E+04   -0.47308E-05   -0.11390E-04 25893   0.135E-02    0.531E-02
RMM:  18    -0.232568942428E+04   -0.12125E-04   -0.66065E-05 23851   0.145E-02    0.571E-02
RMM:  19    -0.232568941614E+04    0.81434E-05   -0.25394E-05 17158   0.122E-02
   2 F= -.23256894E+04 E0= -.23229104E+04  d E =-.114591E-01
       N       E                     dE             d eps       ncg     rms          rms(c)
DAV:   1    -0.232569464080E+04   -0.52165E-02   -0.66836E+00 28380   0.269E+00    0.461E-01
RMM:   2    -0.232622732370E+04   -0.53268E+00   -0.15314E-01 27988   0.789E-01    0.989E+00
RMM:   3    -0.232586587573E+04    0.36145E+00   -0.80482E-02 37513   0.358E-01    0.528E+00
RMM:   4    -0.232606473135E+04   -0.19886E+00   -0.32292E-02 28127   0.355E-01    0.806E+00
RMM:   5    -0.232573822806E+04    0.32650E+00   -0.16358E-02 28762   0.243E-01    0.242E+00
RMM:   6    -0.232574970551E+04   -0.11477E-01   -0.25199E-02 29405   0.282E-01    0.305E+00
RMM:   7    -0.232575987997E+04   -0.10174E-01   -0.54750E-02 31934   0.362E-01    0.318E+00
RMM:   8    -0.232573117638E+04    0.28704E-01   -0.23328E-02 27676   0.324E-01    0.231E+00
RMM:   9    -0.232571269904E+04    0.18477E-01   -0.80474E-03 28099   0.174E-01    0.136E+00
RMM:  10    -0.232570816625E+04    0.45328E-02   -0.61371E-03 28499   0.151E-01    0.114E+00
RMM:  11    -0.232570486325E+04    0.33030E-02   -0.73626E-03 31091   0.135E-01    0.751E-01
RMM:  12    -0.232570271890E+04    0.21443E-02   -0.24415E-03 27639   0.111E-01    0.436E-01
RMM:  13    -0.232570271942E+04   -0.51863E-06   -0.17152E-03 30473   0.678E-02    0.434E-01
RMM:  14    -0.232570249588E+04    0.22354E-03   -0.16995E-03 32004   0.616E-02    0.370E-01
RMM:  15    -0.232570201846E+04    0.47743E-03   -0.61333E-04 27896   0.521E-02    0.222E-01
RMM:  16    -0.232570182297E+04    0.19548E-03   -0.35833E-04 29965   0.329E-02    0.116E-01
RMM:  17    -0.232570183400E+04   -0.11024E-04   -0.37564E-04 34500   0.208E-02    0.110E-01
RMM:  18    -0.232570181755E+04    0.16446E-04   -0.15953E-04 28950   0.196E-02    0.812E-02
RMM:  19    -0.232570179027E+04    0.27278E-04   -0.60354E-05 22466   0.154E-02    0.403E-02
RMM:  20    -0.232570178982E+04    0.45483E-06   -0.41419E-05 20447   0.859E-03
   3 F= -.23257018E+04 E0= -.23229219E+04  d E =-.238328E-01
       N       E                     dE             d eps       ncg     rms          rms(c)
DAV:   1    -0.232566993866E+04    0.31852E-01   -0.26724E+01 27600   0.538E+00    0.950E-01
RMM:   2    -0.232795362037E+04   -0.22837E+01   -0.65408E-01 28002   0.164E+00    0.204E+01
RMM:   3    -0.232639781250E+04    0.15558E+01   -0.32659E-01 37023   0.753E-01    0.109E+01
RMM:   4    -0.232692095758E+04   -0.52315E+00   -0.13159E-01 27871   0.742E-01    0.147E+01
RMM:   5    -0.232590396678E+04    0.10170E+01   -0.65476E-02 30227   0.445E-01    0.608E+00
RMM:   6    -0.232587002223E+04    0.33945E-01   -0.92554E-02 28672   0.559E-01    0.566E+00
RMM:   7    -0.232591242182E+04   -0.42400E-01   -0.19658E-01 30531   0.731E-01    0.607E+00
RMM:   8    -0.232582409877E+04    0.88323E-01   -0.90963E-02 27692   0.649E-01    0.478E+00
RMM:   9    -0.232574954629E+04    0.74552E-01   -0.30368E-02 28052   0.343E-01    0.292E+00
RMM:  10    -0.232573100248E+04    0.18544E-01   -0.23450E-02 28105   0.311E-01    0.251E+00
RMM:  11    -0.232571273758E+04    0.18265E-01   -0.27441E-02 29807   0.281E-01    0.154E+00
RMM:  12    -0.232570431186E+04    0.84257E-02   -0.10505E-02 27644   0.229E-01    0.972E-01
RMM:  13    -0.232570453032E+04   -0.21846E-03   -0.64718E-03 29264   0.149E-01    0.101E+00
RMM:  14    -0.232570286664E+04    0.16637E-02   -0.66111E-03 31660   0.122E-01    0.821E-01
RMM:  15    -0.232570090135E+04    0.19653E-02   -0.30921E-03 29068   0.104E-01    0.544E-01
RMM:  16    -0.232569967475E+04    0.12266E-02   -0.14116E-03 29077   0.735E-02    0.274E-01
RMM:  17    -0.232569965007E+04    0.24680E-04   -0.16765E-03 36052   0.443E-02    0.238E-01
RMM:  18    -0.232569959709E+04    0.52985E-04   -0.82212E-04 32395   0.419E-02    0.188E-01
RMM:  19    -0.232569946106E+04    0.13602E-03   -0.30970E-04 29528   0.334E-02    0.103E-01
RMM:  20    -0.232569946638E+04   -0.53152E-05   -0.35190E-04 33566   0.170E-02    0.854E-02
RMM:  21    -0.232569945955E+04    0.68260E-05   -0.14718E-04 28863   0.166E-02    0.694E-02
RMM:  22    -0.232569944603E+04    0.13517E-04   -0.59687E-05 22067   0.133E-02    0.446E-02
RMM:  23    -0.232569944933E+04   -0.32997E-05   -0.42512E-05 20251   0.967E-03
   4 F= -.23256994E+04 E0= -.23229178E+04  d E =-.214923E-01
       N       E                     dE             d eps       ncg     rms          rms(c)
DAV:   1    -0.232569589516E+04    0.35509E-02   -0.90326E+00 27720   0.313E+00    0.532E-01
RMM:   2    -0.232644930176E+04   -0.75341E+00   -0.20513E-01 28158   0.910E-01    0.117E+01
RMM:   3    -0.232591225437E+04    0.53705E+00   -0.10824E-01 37248   0.424E-01    0.594E+00
RMM:   4    -0.232607227921E+04   -0.16002E+00   -0.40457E-02 27713   0.423E-01    0.810E+00
RMM:   5    -0.232576943080E+04    0.30285E+00   -0.20109E-02 30374   0.244E-01    0.338E+00
RMM:   6    -0.232575437840E+04    0.15052E-01   -0.27682E-02 28650   0.306E-01    0.305E+00
RMM:   7    -0.232577596997E+04   -0.21592E-01   -0.66995E-02 31333   0.412E-01    0.350E+00
RMM:   8    -0.232575783418E+04    0.18136E-01   -0.33610E-02 27771   0.372E-01    0.305E+00
RMM:   9    -0.232571464177E+04    0.43192E-01   -0.11325E-02 27687   0.232E-01    0.122E+00
RMM:  10    -0.232570927170E+04    0.53701E-02   -0.68084E-03 27845   0.175E-01    0.930E-01
RMM:  11    -0.232570893868E+04    0.33302E-03   -0.93401E-03 31102   0.152E-01    0.830E-01
RMM:  12    -0.232570670404E+04    0.22346E-02   -0.35793E-03 27740   0.127E-01    0.531E-01
RMM:  13    -0.232570581898E+04    0.88506E-03   -0.17933E-03 28713   0.822E-02    0.359E-01
RMM:  14    -0.232570573459E+04    0.84383E-04   -0.20542E-03 33199   0.622E-02    0.326E-01
RMM:  15    -0.232570546531E+04    0.26929E-03   -0.97111E-04 29962   0.540E-02    0.227E-01
RMM:  16    -0.232570521782E+04    0.24749E-03   -0.39060E-04 28863   0.395E-02    0.856E-02
RMM:  17    -0.232570524198E+04   -0.24167E-04   -0.45487E-04 35329   0.218E-02    0.844E-02
RMM:  18    -0.232570526011E+04   -0.18124E-04   -0.21285E-04 30947   0.213E-02    0.942E-02
RMM:  19    -0.232570522777E+04    0.32339E-04   -0.72164E-05 24007   0.175E-02    0.574E-02
RMM:  20    -0.232570522383E+04    0.39424E-05   -0.47398E-05 20878   0.991E-03
   5 F= -.23257052E+04 E0= -.23229247E+04  d E =-.272668E-01
       N       E                     dE             d eps       ncg     rms          rms(c)
DAV:   1    -0.232571072754E+04   -0.54998E-02   -0.36864E+00 28080   0.201E+00    0.362E-01
RMM:   2    -0.232712561275E+04   -0.14149E+01   -0.16842E-01 30227   0.721E-01    0.164E+01
RMM:   3    -0.232580059334E+04    0.13250E+01   -0.48002E-02 28485   0.451E-01    0.311E+00
RMM:   4    -0.232582241386E+04   -0.21821E-01   -0.26713E-02 27812   0.369E-01    0.437E+00
RMM:   5    -0.232580167049E+04    0.20743E-01   -0.16135E-02 35656   0.165E-01    0.407E+00
RMM:   6    -0.232577171070E+04    0.29960E-01   -0.28999E-02 30235   0.271E-01    0.329E+00
RMM:   7    -0.232581517981E+04   -0.43469E-01   -0.58467E-02 31244   0.357E-01    0.429E+00
RMM:   8    -0.232573470670E+04    0.80473E-01   -0.20711E-02 27642   0.321E-01    0.176E+00
RMM:   9    -0.232571653139E+04    0.18175E-01   -0.77493E-03 27626   0.208E-01    0.731E-01
RMM:  10    -0.232571461723E+04    0.19142E-02   -0.46819E-03 29701   0.121E-01    0.451E-01
RMM:  11    -0.232571558849E+04   -0.97126E-03   -0.62697E-03 32137   0.114E-01    0.584E-01
RMM:  12    -0.232571416724E+04    0.14213E-02   -0.19913E-03 28223   0.922E-02    0.306E-01
RMM:  13    -0.232571379269E+04    0.37455E-03   -0.13162E-03 31443   0.532E-02    0.147E-01
RMM:  14    -0.232571381135E+04   -0.18666E-04   -0.91411E-04 37240   0.298E-02    0.136E-01
RMM:  15    -0.232571378651E+04    0.24842E-04   -0.29961E-04 30941   0.280E-02    0.109E-01
RMM:  16    -0.232571373930E+04    0.47210E-04   -0.13236E-04 27680   0.211E-02    0.534E-02
RMM:  17    -0.232571375867E+04   -0.19374E-04   -0.13385E-04 27538   0.155E-02    0.741E-02
RMM:  18    -0.232571375147E+04    0.72053E-05   -0.63734E-05 23402   0.165E-02
   6 F= -.23257138E+04 E0= -.23229330E+04  d E =-.852764E-02
       N       E                     dE             d eps       ncg     rms          rms(c)
DAV:   1    -0.232570933734E+04    0.44213E-02   -0.21460E+01 27600   0.485E+00    0.864E-01
RMM:   2    -0.233290002653E+04   -0.71907E+01   -0.93946E-01 30032   0.176E+00    0.365E+01
RMM:   3    -0.232614675200E+04    0.67533E+01   -0.25642E-01 28668   0.103E+00    0.703E+00
RMM:   4    -0.232597095994E+04    0.17579E+00   -0.12566E-01 27684   0.842E-01    0.689E+00
RMM:   5    -0.232666301981E+04   -0.69206E+00   -0.15010E-01 40527   0.377E-01    0.131E+01
RMM:   6    -0.232610561111E+04    0.55741E+00   -0.14384E-01 29673   0.619E-01    0.804E+00
RMM:   7    -0.232621046748E+04   -0.10486E+00   -0.26596E-01 29687   0.840E-01    0.937E+00
RMM:   8    -0.232584725609E+04    0.36321E+00   -0.10098E-01 27618   0.721E-01    0.409E+00
RMM:   9    -0.232574489593E+04    0.10236E+00   -0.39698E-02 27630   0.484E-01    0.181E+00
RMM:  10    -0.232573889560E+04    0.60003E-02   -0.27249E-02 28789   0.315E-01    0.149E+00
RMM:  11    -0.232574273655E+04   -0.38410E-02   -0.33514E-02 29880   0.307E-01    0.163E+00
RMM:  12    -0.232573102040E+04    0.11716E-01   -0.11513E-02 27865   0.249E-01    0.838E-01
RMM:  13    -0.232572949863E+04    0.15218E-02   -0.82608E-03 31925   0.124E-01    0.618E-01
RMM:  14    -0.232572889990E+04    0.59873E-03   -0.50670E-03 35191   0.850E-02    0.499E-01
RMM:  15    -0.232572799848E+04    0.90141E-03   -0.16546E-03 29869   0.722E-02    0.245E-01
RMM:  16    -0.232572777018E+04    0.22831E-03   -0.90321E-04 30915   0.494E-02    0.132E-01
RMM:  17    -0.232572792332E+04   -0.15314E-03   -0.97493E-04 35228   0.382E-02    0.193E-01
RMM:  18    -0.232572782549E+04    0.97835E-04   -0.35923E-04 29933   0.333E-02    0.125E-01
RMM:  19    -0.232572779706E+04    0.28423E-04   -0.24946E-04 30727   0.240E-02    0.934E-02
RMM:  20    -0.232572781492E+04   -0.17858E-04   -0.24530E-04 32021   0.208E-02    0.982E-02
RMM:  21    -0.232572780885E+04    0.60684E-05   -0.12580E-04 27431   0.192E-02    0.872E-02
RMM:  22    -0.232572779086E+04    0.17992E-04   -0.58006E-05 22124   0.131E-02    0.639E-02
RMM:  23    -0.232572778669E+04    0.41731E-05   -0.41280E-05 20342   0.847E-03
   7 F= -.23257278E+04 E0= -.23229466E+04  d E =-.225629E-01
       N       E                     dE             d eps       ncg     rms          rms(c)
DAV:   1    -0.232564595523E+04    0.81836E-01   -0.85777E+01 27600   0.972E+00    0.182E+00
RMM:   2    -0.235542756767E+04   -0.29782E+02   -0.48423E+00 30396   0.388E+00    0.743E+01
RMM:   3    -0.232743581930E+04    0.27992E+02   -0.11236E+00 28654   0.212E+00    0.150E+01
RMM:   4    -0.232638687723E+04    0.10489E+01   -0.54865E-01 27746   0.170E+00    0.112E+01
RMM:   5    -0.233051654733E+04   -0.41297E+01   -0.61512E-01 34881   0.994E-01    0.300E+01
RMM:   6    -0.232809829511E+04    0.24183E+01   -0.78048E-01 37627   0.104E+00    0.202E+01
RMM:   7    -0.232774751126E+04    0.35078E+00   -0.97900E-01 28650   0.173E+00    0.192E+01
RMM:   8    -0.232625663958E+04    0.14909E+01   -0.42211E-01 27618   0.147E+00    0.862E+00
RMM:   9    -0.232586628859E+04    0.39035E+00   -0.20890E-01 27640   0.105E+00    0.521E+00
RMM:  10    -0.232584890926E+04    0.17379E-01   -0.20309E-01 28904   0.830E-01    0.478E+00
RMM:  11    -0.232580331248E+04    0.45597E-01   -0.14643E-01 28517   0.708E-01    0.364E+00
RMM:  12    -0.232575659539E+04    0.46717E-01   -0.62327E-02 28283   0.548E-01    0.248E+00
RMM:  13    -0.232574843154E+04    0.81638E-02   -0.56780E-02 32585   0.308E-01    0.201E+00
RMM:  14    -0.232573425004E+04    0.14182E-01   -0.23686E-02 32121   0.227E-01    0.111E+00
RMM:  15    -0.232572953467E+04    0.47154E-02   -0.93734E-03 29963   0.172E-01    0.574E-01
RMM:  16    -0.232572944609E+04    0.88578E-04   -0.83578E-03 35999   0.102E-01    0.497E-01
RMM:  17    -0.232572882418E+04    0.62190E-03   -0.29743E-03 32891   0.759E-02    0.353E-01
RMM:  18    -0.232572844002E+04    0.38417E-03   -0.14155E-03 30937   0.616E-02    0.209E-01
RMM:  19    -0.232572875768E+04   -0.31766E-03   -0.16948E-03 32001   0.626E-02    0.294E-01
RMM:  20    -0.232572876829E+04   -0.10613E-04   -0.11064E-03 29969   0.608E-02    0.281E-01
RMM:  21    -0.232572856913E+04    0.19916E-03   -0.52831E-04 29464   0.455E-02    0.208E-01
RMM:  22    -0.232572855309E+04    0.16032E-04   -0.66029E-04 35693   0.280E-02    0.180E-01
RMM:  23    -0.232572852057E+04    0.32526E-04   -0.41314E-04 34251   0.253E-02    0.138E-01
RMM:  24    -0.232572844466E+04    0.75913E-04   -0.15219E-04 28194   0.200E-02    0.658E-02
RMM:  25    -0.232572845033E+04   -0.56748E-05   -0.12596E-04 26029   0.103E-02    0.595E-02
RMM:  26    -0.232572844566E+04    0.46742E-05   -0.44380E-05 20354   0.116E-02
   8 F= -.23257284E+04 E0= -.23229472E+04  d E =-.232218E-01
       N       E                     dE             d eps       ncg     rms          rms(c)
DAV:   1    -0.232571390654E+04    0.14544E-01   -0.21618E+01 27600   0.487E+00    0.847E-01
RMM:   2    -0.233242868638E+04   -0.67148E+01   -0.72003E-01 29448   0.161E+00    0.343E+01
RMM:   3    -0.232606980600E+04    0.63589E+01   -0.22647E-01 28880   0.958E-01    0.638E+00
RMM:   4    -0.232591571491E+04    0.15409E+00   -0.12268E-01 27625   0.810E-01    0.565E+00
RMM:   5    -0.232687418558E+04   -0.95847E+00   -0.11147E-01 35742   0.444E-01    0.146E+01
RMM:   6    -0.232608106513E+04    0.79312E+00   -0.12536E-01 32460   0.494E-01    0.794E+00
RMM:   7    -0.232622698347E+04   -0.14592E+00   -0.26172E-01 30431   0.797E-01    0.947E+00
RMM:   8    -0.232583861987E+04    0.38836E+00   -0.10220E-01 27643   0.710E-01    0.402E+00
RMM:   9    -0.232575405988E+04    0.84560E-01   -0.44455E-02 27639   0.495E-01    0.197E+00
RMM:  10    -0.232574878832E+04    0.52716E-02   -0.34159E-02 29325   0.328E-01    0.173E+00
RMM:  11    -0.232574980237E+04   -0.10140E-02   -0.41696E-02 31109   0.314E-01    0.174E+00
RMM:  12    -0.232573467667E+04    0.15126E-01   -0.12200E-02 27653   0.258E-01    0.655E-01
RMM:  13    -0.232573299953E+04    0.16771E-02   -0.83419E-03 32700   0.119E-01    0.352E-01
RMM:  14    -0.232573323942E+04   -0.23988E-03   -0.50734E-03 36666   0.767E-02    0.357E-01
RMM:  15    -0.232573286860E+04    0.37082E-03   -0.15326E-03 29911   0.687E-02    0.235E-01
RMM:  16    -0.232573273788E+04    0.13072E-03   -0.99385E-04 31963   0.476E-02    0.156E-01
RMM:  17    -0.232573287264E+04   -0.13476E-03   -0.89699E-04 34455   0.398E-02    0.214E-01
RMM:  18    -0.232573271153E+04    0.16110E-03   -0.32234E-04 28941   0.358E-02    0.120E-01
RMM:  19    -0.232573269236E+04    0.19177E-04   -0.27423E-04 31384   0.234E-02    0.931E-02
RMM:  20    -0.232573272575E+04   -0.33390E-04   -0.24221E-04 32617   0.218E-02    0.113E-01
RMM:  21    -0.232573267435E+04    0.51394E-04   -0.85082E-05 24827   0.186E-02    0.571E-02
RMM:  22    -0.232573266928E+04    0.50691E-05   -0.53271E-05 21398   0.951E-03
   9 F= -.23257327E+04 E0= -.23229515E+04  d E =-.274455E-01
       N       E                     dE             d eps       ncg     rms          rms(c)
DAV:   1    -0.232573698787E+04   -0.43135E-02   -0.53818E+00 27600   0.243E+00    0.439E-01
RMM:   2    -0.232820260692E+04   -0.24656E+01   -0.28013E-01 30366   0.915E-01    0.216E+01
RMM:   3    -0.232587751772E+04    0.23251E+01   -0.74055E-02 28142   0.581E-01    0.386E+00
RMM:   4    -0.232621782473E+04   -0.34031E+00   -0.41410E-02 28493   0.416E-01    0.939E+00
RMM:   5    -0.232581052904E+04    0.40730E+00   -0.32704E-02 30832   0.287E-01    0.312E+00
RMM:   6    -0.232582365293E+04   -0.13124E-01   -0.63707E-02 28090   0.485E-01    0.372E+00
RMM:   7    -0.232576705237E+04    0.56601E-01   -0.32196E-02 27606   0.415E-01    0.208E+00
RMM:   8    -0.232574862595E+04    0.18426E-01   -0.99212E-03 27617   0.263E-01    0.123E+00
RMM:   9    -0.232574530858E+04    0.33174E-02   -0.47176E-03 31486   0.983E-02    0.892E-01
RMM:  10    -0.232574420027E+04    0.11083E-02   -0.43343E-03 28716   0.125E-01    0.762E-01
RMM:  11    -0.232574330466E+04    0.89561E-03   -0.47406E-03 30626   0.114E-01    0.636E-01
RMM:  12    -0.232574134347E+04    0.19612E-02   -0.16936E-03 27919   0.975E-02    0.259E-01
RMM:  13    -0.232574109764E+04    0.24583E-03   -0.10860E-03 30885   0.501E-02    0.168E-01
RMM:  14    -0.232574122525E+04   -0.12760E-03   -0.99388E-04 34961   0.384E-02    0.201E-01
RMM:  15    -0.232574108321E+04    0.14204E-03   -0.37610E-04 30098   0.338E-02    0.110E-01
RMM:  16    -0.232574105145E+04    0.31759E-04   -0.24508E-04 31436   0.227E-02    0.744E-02
RMM:  17    -0.232574105768E+04   -0.62373E-05   -0.16462E-04 28898   0.162E-02    0.733E-02
RMM:  18    -0.232574105550E+04    0.21863E-05   -0.82154E-05 24923   0.165E-02
  10 F= -.23257411E+04 E0= -.23229610E+04  d E =-.838621E-02
       N       E                     dE             d eps       ncg     rms          rms(c)
DAV:   1    -0.232572901596E+04    0.12042E-01   -0.34187E+01 27600   0.612E+00    0.109E+00
RMM:   2    -0.233761947176E+04   -0.11890E+02   -0.16234E+00 30170   0.230E+00    0.469E+01
RMM:   3    -0.232639872328E+04    0.11221E+02   -0.40726E-01 28538   0.131E+00    0.871E+00
RMM:   4    -0.232623716389E+04    0.16156E+00   -0.21761E-01 27964   0.106E+00    0.923E+00
RMM:   5    -0.232696575476E+04   -0.72859E+00   -0.21998E-01 40078   0.462E-01    0.149E+01
RMM:   6    -0.232615468777E+04    0.81107E+00   -0.26036E-01 28131   0.951E-01    0.792E+00
RMM:   7    -0.232615159742E+04    0.30903E-02   -0.18801E-01 27639   0.943E-01    0.859E+00
RMM:   8    -0.232596579586E+04    0.18580E+00   -0.89611E-02 27972   0.598E-01    0.611E+00
RMM:   9    -0.232577906796E+04    0.18673E+00   -0.45004E-02 27612   0.527E-01    0.182E+00
RMM:  10    -0.232578529194E+04   -0.62240E-02   -0.40967E-02 27933   0.417E-01    0.231E+00
RMM:  11    -0.232578069107E+04    0.46009E-02   -0.41878E-02 30855   0.331E-01    0.209E+00
RMM:  12    -0.232576182419E+04    0.18867E-01   -0.14839E-02 27950   0.286E-01    0.103E+00
RMM:  13    -0.232575942411E+04    0.24001E-02   -0.12046E-02 32509   0.149E-01    0.808E-01
RMM:  14    -0.232575874253E+04    0.68158E-03   -0.79345E-03 34237   0.114E-01    0.632E-01
RMM:  15    -0.232575678239E+04    0.19601E-02   -0.22675E-03 29272   0.912E-02    0.262E-01
RMM:  16    -0.232575676625E+04    0.16140E-04   -0.23460E-03 37086   0.507E-02    0.209E-01
RMM:  17    -0.232575680831E+04   -0.42058E-04   -0.10044E-03 32496   0.451E-02    0.208E-01
RMM:  18    -0.232575669210E+04    0.11621E-03   -0.37958E-04 29608   0.381E-02    0.143E-01
RMM:  19    -0.232575670581E+04   -0.13712E-04   -0.40554E-04 31725   0.297E-02    0.143E-01
RMM:  20    -0.232575670266E+04    0.31545E-05   -0.33805E-04 31167   0.285E-02    0.127E-01
RMM:  21    -0.232575665455E+04    0.48105E-04   -0.14938E-04 28147   0.221E-02    0.834E-02
RMM:  22    -0.232575664997E+04    0.45773E-05   -0.12056E-04 25669   0.122E-02    0.693E-02
RMM:  23    -0.232575665160E+04   -0.16291E-05   -0.47790E-05 20903   0.102E-02
  11 F= -.23257567E+04 E0= -.23229796E+04  d E =-.239823E-01
       N       E                     dE             d eps       ncg     rms          rms(c)
DAV:   1    -0.232563532447E+04    0.12133E+00   -0.13662E+02 27600   0.123E+01    0.235E+00
RMM:   2    -0.237918332925E+04   -0.53548E+02   -0.10551E+01 31033   0.528E+00    0.981E+01
RMM:   3    -0.232859740867E+04    0.50586E+02   -0.19528E+00 28585   0.279E+00    0.198E+01
RMM:   4    -0.233681838904E+04   -0.82210E+01   -0.13640E+00 29388   0.201E+00    0.446E+01
RMM:   5    -0.232731961830E+04    0.94988E+01   -0.87166E-01 31938   0.131E+00    0.152E+01
RMM:   6    -0.232751966170E+04   -0.20004E+00   -0.13575E+00 27815   0.231E+00    0.173E+01
RMM:   7    -0.232672327501E+04    0.79639E+00   -0.80582E-01 27630   0.203E+00    0.128E+01
RMM:   8    -0.232677370022E+04   -0.50425E-01   -0.30994E-01 27629   0.131E+00    0.140E+01
RMM:   9    -0.232606647299E+04    0.70723E+00   -0.14823E-01 27832   0.835E-01    0.722E+00
RMM:  10    -0.232594981325E+04    0.11666E+00   -0.20466E-01 28015   0.916E-01    0.573E+00
RMM:  11    -0.232583310329E+04    0.11671E+00   -0.12607E-01 28544   0.652E-01    0.364E+00
RMM:  12    -0.232580340446E+04    0.29699E-01   -0.85451E-02 29383   0.552E-01    0.292E+00
RMM:  13    -0.232578541180E+04    0.17993E-01   -0.67383E-02 30574   0.414E-01    0.217E+00
RMM:  14    -0.232577350470E+04    0.11907E-01   -0.33919E-02 30450   0.296E-01    0.140E+00
RMM:  15    -0.232576940928E+04    0.40954E-02   -0.23336E-02 33107   0.186E-01    0.111E+00
RMM:  16    -0.232576714183E+04    0.22675E-02   -0.13078E-02 34442   0.143E-01    0.846E-01
RMM:  17    -0.232576415365E+04    0.29882E-02   -0.46491E-03 30645   0.114E-01    0.411E-01
RMM:  18    -0.232576384012E+04    0.31352E-03   -0.32705E-03 32461   0.827E-02    0.310E-01
RMM:  19    -0.232576430748E+04   -0.46736E-03   -0.34275E-03 32590   0.841E-02    0.390E-01
RMM:  20    -0.232576417395E+04    0.13354E-03   -0.12659E-03 29660   0.677E-02    0.346E-01
RMM:  21    -0.232576404118E+04    0.13276E-03   -0.10245E-03 33167   0.427E-02    0.291E-01
RMM:  22    -0.232576397983E+04    0.61354E-04   -0.91626E-04 34912   0.374E-02    0.255E-01
RMM:  23    -0.232576378913E+04    0.19070E-03   -0.46097E-04 31246   0.331E-02    0.159E-01
RMM:  24    -0.232576375975E+04    0.29380E-04   -0.35321E-04 33865   0.226E-02    0.128E-01
RMM:  25    -0.232576376589E+04   -0.61409E-05   -0.22743E-04 31958   0.183E-02    0.123E-01
RMM:  26    -0.232576371332E+04    0.52575E-04   -0.69475E-05 22894   0.150E-02    0.677E-02
RMM:  27    -0.232576370768E+04    0.56373E-05   -0.38846E-05 19902   0.909E-03
  12 F= -.23257637E+04 E0= -.23229927E+04  d E =-.310384E-01
       N       E                     dE             d eps       ncg     rms          rms(c)
DAV:   1    -0.232575416993E+04    0.95434E-02   -0.13956E+01 27600   0.391E+00    0.690E-01
RMM:   2    -0.233065978242E+04   -0.49056E+01   -0.48671E-01 29462   0.133E+00    0.297E+01
RMM:   3    -0.232603615166E+04    0.46236E+01   -0.15527E-01 28444   0.822E-01    0.576E+00
RMM:   4    -0.232622537919E+04   -0.18923E+00   -0.84347E-02 27690   0.649E-01    0.918E+00
RMM:   5    -0.232600111582E+04    0.22426E+00   -0.73604E-02 37483   0.309E-01    0.637E+00
RMM:   6    -0.232590540072E+04    0.95715E-01   -0.10800E-01 27983   0.643E-01    0.486E+00
RMM:   7    -0.232608235114E+04   -0.17695E+00   -0.10200E-01 28117   0.615E-01    0.777E+00
RMM:   8    -0.232581762483E+04    0.26473E+00   -0.36891E-02 27638   0.427E-01    0.283E+00
RMM:   9    -0.232577166806E+04    0.45957E-01   -0.18451E-02 27660   0.338E-01    0.986E-01
RMM:  10    -0.232577262642E+04   -0.95836E-03   -0.13837E-02 28723   0.229E-01    0.120E+00
RMM:  11    -0.232577391248E+04   -0.12861E-02   -0.15822E-02 32508   0.188E-01    0.127E+00
RMM:  12    -0.232576559987E+04    0.83126E-02   -0.47648E-03 27613   0.165E-01    0.337E-01
RMM:  13    -0.232576500877E+04    0.59110E-03   -0.26709E-03 31035   0.810E-02    0.183E-01
RMM:  14    -0.232576536832E+04   -0.35955E-03   -0.28074E-03 36011   0.622E-02    0.277E-01
RMM:  15    -0.232576524329E+04    0.12504E-03   -0.11137E-03 30659   0.550E-02    0.226E-01
RMM:  16    -0.232576516074E+04    0.82542E-04   -0.79986E-04 34077   0.369E-02    0.177E-01
RMM:  17    -0.232576514580E+04    0.14942E-04   -0.49298E-04 34476   0.278E-02    0.159E-01
RMM:  18    -0.232576505711E+04    0.88692E-04   -0.21063E-04 29231   0.270E-02    0.945E-02
RMM:  19    -0.232576502524E+04    0.31865E-04   -0.12652E-04 27832   0.178E-02    0.509E-02
RMM:  20    -0.232576503104E+04   -0.57952E-05   -0.83720E-05 24171   0.122E-02
  13 F= -.23257650E+04 E0= -.23229922E+04  d E =-.323618E-01
       N       E                     dE             d eps       ncg     rms          rms(c)
DAV:   1    -0.232576831702E+04   -0.32918E-02   -0.96533E+00 27600   0.324E+00    0.600E-01
RMM:   2    -0.233061893842E+04   -0.48506E+01   -0.56251E-01 30408   0.128E+00    0.302E+01
RMM:   3    -0.232604148947E+04    0.45774E+01   -0.14321E-01 27951   0.819E-01    0.542E+00
RMM:   4    -0.232659229036E+04   -0.55080E+00   -0.78891E-02 28552   0.573E-01    0.123E+01
RMM:   5    -0.232591769522E+04    0.67460E+00   -0.67361E-02 31861   0.379E-01    0.456E+00
RMM:   6    -0.232592863980E+04   -0.10945E-01   -0.11697E-01 27861   0.677E-01    0.511E+00
RMM:   7    -0.232607973796E+04   -0.15110E+00   -0.90602E-02 28158   0.596E-01    0.769E+00
RMM:   8    -0.232582139949E+04    0.25834E+00   -0.34112E-02 27636   0.418E-01    0.260E+00
RMM:   9    -0.232577995055E+04    0.41449E-01   -0.15959E-02 27656   0.316E-01    0.884E-01
RMM:  10    -0.232578294122E+04   -0.29907E-02   -0.13882E-02 29201   0.213E-01    0.123E+00
RMM:  11    -0.232578088184E+04    0.20594E-02   -0.12959E-02 31227   0.183E-01    0.101E+00
RMM:  12    -0.232577646008E+04    0.44218E-02   -0.47937E-03 28239   0.153E-01    0.512E-01
RMM:  13    -0.232577566814E+04    0.79194E-03   -0.36090E-03 32552   0.800E-02    0.338E-01
RMM:  14    -0.232577571937E+04   -0.51237E-04   -0.25625E-03 36407   0.583E-02    0.312E-01
RMM:  15    -0.232577535226E+04    0.36711E-03   -0.87129E-04 30889   0.491E-02    0.154E-01
RMM:  16    -0.232577528912E+04    0.63142E-04   -0.54124E-04 33141   0.316E-02    0.101E-01
RMM:  17    -0.232577532662E+04   -0.37498E-04   -0.40265E-04 34922   0.239E-02    0.117E-01
RMM:  18    -0.232577532882E+04   -0.21970E-05   -0.17232E-04 29014   0.235E-02    0.111E-01
RMM:  19    -0.232577530368E+04    0.25139E-04   -0.90718E-05 25996   0.178E-02    0.889E-02
RMM:  20    -0.232577530413E+04   -0.45425E-06   -0.78617E-05 23599   0.132E-02
  14 F= -.23257753E+04 E0= -.23230034E+04  d E =-.102731E-01
       N       E                     dE             d eps       ncg     rms          rms(c)
DAV:   1    -0.232572463559E+04    0.50668E-01   -0.86810E+01 27600   0.973E+00    0.188E+00
RMM:   2    -0.236176029558E+04   -0.36036E+02   -0.61011E+00 30577   0.419E+00    0.819E+01
RMM:   3    -0.232783243983E+04    0.33928E+02   -0.12769E+00 28300   0.231E+00    0.164E+01
RMM:   4    -0.233022464335E+04   -0.23922E+01   -0.77150E-01 28653   0.173E+00    0.282E+01
RMM:   5    -0.232728152127E+04    0.29431E+01   -0.66091E-01 36976   0.893E-01    0.157E+01
RMM:   6    -0.232677645039E+04    0.50507E+00   -0.81203E-01 27717   0.180E+00    0.128E+01
RMM:   7    -0.232675058048E+04    0.25870E-01   -0.50345E-01 27702   0.158E+00    0.133E+01
RMM:   8    -0.232648462974E+04    0.26595E+00   -0.21606E-01 28004   0.931E-01    0.113E+01
RMM:   9    -0.232597500517E+04    0.50962E+00   -0.11772E-01 27655   0.824E-01    0.548E+00
RMM:  10    -0.232592282089E+04    0.52184E-01   -0.11621E-01 28043   0.687E-01    0.476E+00
RMM:  11    -0.232582883398E+04    0.93987E-01   -0.62032E-02 28028   0.517E-01    0.240E+00
RMM:  12    -0.232581699352E+04    0.11840E-01   -0.47099E-02 29568   0.398E-01    0.205E+00
RMM:  13    -0.232581145298E+04    0.55405E-02   -0.42144E-02 30898   0.314E-01    0.168E+00
RMM:  14    -0.232580395572E+04    0.74973E-02   -0.19840E-02 30248   0.233E-01    0.109E+00
RMM:  15    -0.232580124072E+04    0.27150E-02   -0.13994E-02 32733   0.151E-01    0.805E-01
RMM:  16    -0.232579989032E+04    0.13504E-02   -0.76155E-03 35277   0.995E-02    0.588E-01
RMM:  17    -0.232579853143E+04    0.13589E-02   -0.28038E-03 31844   0.799E-02    0.317E-01
RMM:  18    -0.232579819478E+04    0.33665E-03   -0.12587E-03 30425   0.630E-02    0.195E-01
RMM:  19    -0.232579845498E+04   -0.26019E-03   -0.16249E-03 32848   0.570E-02    0.268E-01
RMM:  20    -0.232579848547E+04   -0.30492E-04   -0.87902E-04 30626   0.495E-02    0.262E-01
RMM:  21    -0.232579832300E+04    0.16247E-03   -0.38500E-04 29933   0.363E-02    0.187E-01
RMM:  22    -0.232579830033E+04    0.22668E-04   -0.54688E-04 35628   0.254E-02    0.163E-01
RMM:  23    -0.232579825059E+04    0.49743E-04   -0.27245E-04 31260   0.239E-02    0.118E-01
RMM:  24    -0.232579822146E+04    0.29122E-04   -0.14513E-04 27953   0.166E-02    0.829E-02
RMM:  25    -0.232579822067E+04    0.78883E-06   -0.87559E-05 24018   0.102E-02
  15 F= -.23257982E+04 E0= -.23230289E+04  d E =-.331896E-01
       N       E                     dE             d eps       ncg     rms          rms(c)
DAV:   1    -0.232541775511E+04    0.38047E+00   -0.34665E+02 27600   0.195E+01    0.421E+00
RMM:   2    -0.248079332870E+04   -0.15538E+03   -0.58299E+01 32470   0.105E+01    0.147E+02
RMM:   3    -0.233491446967E+04    0.14588E+03   -0.68449E+00 28832   0.500E+00    0.380E+01
RMM:   4    -0.233670373494E+04   -0.17893E+01   -0.42763E+00 28902   0.363E+00    0.429E+01
RMM:   5    -0.233482661306E+04    0.18771E+01   -0.43547E+00 41097   0.167E+00    0.392E+01
RMM:   6    -0.232874230922E+04    0.60843E+01   -0.27797E+00 27707   0.332E+00    0.223E+01
RMM:   7    -0.232982586885E+04   -0.10836E+01   -0.17974E+00 27655   0.298E+00    0.270E+01
RMM:   8    -0.233117185236E+04   -0.13460E+01   -0.10980E+00 28136   0.204E+00    0.312E+01
RMM:   9    -0.232758174476E+04    0.35901E+01   -0.73274E-01 27706   0.189E+00    0.174E+01
RMM:  10    -0.232641603432E+04    0.11657E+01   -0.45656E-01 27685   0.155E+00    0.101E+01
RMM:  11    -0.232608806769E+04    0.32797E+00   -0.33501E-01 29573   0.101E+00    0.710E+00
RMM:  12    -0.232598356059E+04    0.10451E+00   -0.33022E-01 29976   0.980E-01    0.594E+00
RMM:  13    -0.232586384232E+04    0.11972E+00   -0.20286E-01 29695   0.766E-01    0.343E+00
RMM:  14    -0.232585116478E+04    0.12