unknown system                          
            1
     9.726678    0.000000    0.000000
     0.000000    8.423550    0.000000
     0.000000    0.000000   45.000000
   Fe   Mn
 273  15
Direct configuration=     1
   0.43717013  0.96530144  0.83298628
   0.43766634  0.44531118  0.21164379
   0.31256788  0.86691512  0.30035829
   0.81252658  0.37540427  0.65492218
   0.68788844  0.80036385  0.87556166
   0.43736496  0.62617182  0.65503628
   0.93718247  0.45139262  0.34513324
   0.93757854  0.61594837  0.30029602
   0.81240785  0.86259161  0.16690669
   0.68740318  0.79157729  0.61073541
   0.06219392  0.71092769  0.69957162
   0.68771571  0.78601954  0.38926619
   0.31276797  0.19484211  0.21174524
   0.56265334  0.87569679  0.65488659
   0.81269867  0.53608802  0.38934092
   0.31243647  0.86128243  0.16678135
   0.56194482  0.20749272  0.56576312
   0.31225890  0.87291090  0.52146160
   0.68735088  0.46542890  0.83312287
   0.06251745  0.54214908  0.61073925
   0.43756518  0.94542184  0.21159372
   0.93751005  0.11271970  0.16692382
   0.81238644  0.03137945  0.25612453
   0.81201978  0.55147019  0.87553095
   0.81231091  0.37055501  0.43431573
   0.06247000  0.04214044  0.61081221
   0.31240907  0.02694424  0.12463515
   0.18771297  0.12613742  0.65485510
   0.68768913  0.62519009  0.65502572
   0.31265786  0.36732425  0.30028966
   0.68788559  0.46150066  0.69959305
   0.06188666  0.03610284  0.38931168
   0.81271097  0.52760054  0.12465832
   0.43763675  0.28640068  0.38923422
   0.81262556  0.54161480  0.61074059
   0.56207707  0.03106383  0.25598659
   0.43752055  0.45515709  0.47841907
   0.06273988  0.37305197  0.52156700
   0.31220611  0.37293909  0.52156266
   0.43749222  0.12595355  0.65496983
   0.06266355  0.03170623  0.25603734
   0.93766927  0.62624985  0.65484725
   0.18745644  0.44534900  0.21163045
   0.56238661  0.53136524  0.25608609
   0.56314258  0.05093863  0.87538773
   0.06232080  0.88280394  0.78799587
   0.56249604  0.20190105  0.34511588
   0.18759861  0.11156579  0.16685859
   0.68808864  0.45548691  0.47850662
   0.93755557  0.11586396  0.30039757
   0.56236765  0.86641176  0.30032241
   0.31247950  0.87621209  0.65486250
   0.81234673  0.21167083  0.69962137
   0.18725965  0.45233114  0.34525280
   0.31237976  0.20248363  0.34516438
   0.31184255  0.71636596  0.83324578
   0.18734899  0.28104682  0.25599983
   0.06263144  0.02754011  0.12453660
   0.81246870  0.36231395  0.16684243
   0.06255692  0.53094019  0.25606153
   0.56225266  0.71159802  0.69961324
   0.81231826  0.70513170  0.47844105
   0.68766095  0.11597686  0.30033858
   0.93781909  0.46141444  0.69956829
   0.31250418  0.53143981  0.25609247
   0.06291197  0.05100004  0.87567443
   0.43753530  0.29262484  0.61069433
   0.43779756  0.78634516  0.38930606
   0.43667683  0.80114450  0.87558131
   0.81262415  0.71148927  0.69956685
   0.31254345  0.21081380  0.69955153
   0.31244563  0.54264668  0.61085629
   0.56302755  0.69584446  0.21179572
   0.43722059  0.29652723  0.74386859
   0.43684555  0.30029513  0.87530043
   0.31314134  0.38159258  0.78806632
   0.06310155  0.21593993  0.83320548
   0.43738351  0.28094312  0.25601285
   0.68781819  0.29683155  0.74403818
   0.56261196  0.37263568  0.52160963
   0.68773775  0.96573193  0.83305535
   0.43716304  0.13170519  0.78817303
   0.81248124  0.87060784  0.43431228
   0.93775946  0.44578644  0.21174217
   0.31249965  0.20740416  0.56573508
   0.81225461  0.37320978  0.52153617
   0.93729835  0.96154358  0.69968303
   0.06236146  0.71476130  0.83313072
   0.81244472  0.04172249  0.61075129
   0.56212036  0.88184388  0.78827519
   0.68677175  0.78043010  0.25605925
   0.43741315  0.78135439  0.25609594
   0.56225057  0.70732836  0.56575505
   0.06188503  0.53622617  0.38930053
   0.56270151  0.71509488  0.83314004
   0.43742673  0.95247846  0.34516498
   0.31246964  0.04233186  0.61081789
   0.43862720  0.27680125  0.12457600
   0.18755427  0.29654431  0.74386111
   0.68773870  0.61246088  0.16694131
   0.31211836  0.87026060  0.43432904
   0.56256408  0.55104996  0.87549867
   0.56276272  0.20534462  0.47831701
   0.81243908  0.36601969  0.30040418
   0.18761260  0.62069298  0.43424126
   0.31241517  0.36292929  0.16674635
   0.43708326  0.61143100  0.16681249
   0.68760637  0.95155140  0.34505490
   0.43748800  0.11172544  0.16696166
   0.43762563  0.12108182  0.43434785
   0.56276449  0.70481306  0.47836267
   0.56235762  0.70202789  0.34519796
   0.06229682  0.38177327  0.78823587
   0.43743040  0.61698058  0.30040237
   0.18749475  0.28621121  0.38930794
   0.43759287  0.11671531  0.30037263
   0.31255628  0.37051866  0.43436561
   0.31206528  0.21545239  0.83306139
   0.93767606  0.46608930  0.83317577
   0.93747928  0.29133755  0.61084673
   0.18776762  0.61153389  0.16680058
   0.18753845  0.77754981  0.12454295
   0.81210053  0.05071129  0.87549049
   0.31197643  0.05061951  0.87568449
   0.18807234  0.80106787  0.87566504
   0.56268028  0.36649645  0.30033635
   0.93759968  0.45510707  0.47835009
   0.81266073  0.87552633  0.65501515
   0.18695116  0.13261753  0.78823299
   0.06262849  0.04694843  0.74397240
   0.43771523  0.79666381  0.74389151
   0.81267682  0.02735537  0.12464832
   0.81245141  0.20135264  0.34520937
   0.43755789  0.77735998  0.12453991
   0.68749404  0.77724572  0.12459545
   0.93718679  0.61275570  0.16685344
   0.81278132  0.71466353  0.83327082
   0.43747738  0.79238677  0.61075640
   0.93818570  0.45617272  0.56575545
   0.06238676  0.87625770  0.65494338
   0.81203709  0.38180916  0.78804862
   0.81264841  0.69619725  0.21164309
   0.68713729  0.27633159  0.12445137
   0.81235423  0.70148485  0.34516982
   0.68764686  0.96182261  0.69943216
   0.31251553  0.88227732  0.78819866
   0.18682937  0.45495000  0.47843416
   0.06266662  0.37037730  0.43427035
   0.93789662  0.96492366  0.83304989
   0.18759100  0.29935786  0.87536978
   0.68733061  0.61620115  0.30045903
   0.68777305  0.29926552  0.87536389
   0.68743672  0.45173096  0.34520727
   0.18697293  0.78607343  0.38920028
   0.56262111  0.04645888  0.74396486
   0.43807372  0.46551902  0.83292860
   0.43699494  0.95695658  0.56533491
   0.06315938  0.70730199  0.56567812
   0.18786847  0.61680912  0.30043250
   0.31241253  0.54683585  0.74389876
   0.56269494  0.86199645  0.16701636
   0.68749220  0.62099969  0.43427132
   0.18651938  0.27672102  0.12455477
   0.31252206  0.70470778  0.47842720
   0.68752842  0.13191045  0.78828428
   0.06268892  0.20540372  0.47843449
   0.93723761  0.62074248  0.43467112
   0.93795586  0.13189792  0.78813740
   0.06251552  0.86622292  0.30031680
   0.93751813  0.30006502  0.87537017
   0.43764096  0.12323263  0.52152246
   0.68694605  0.12325585  0.52162299
   0.56317608  0.53623529  0.38925411
   0.93760172  0.63200092  0.78817353
   0.18714297  0.45744386  0.56570938
   0.06200023  0.69630946  0.21184679
   0.93744764  0.79158489  0.61068958
   0.06251558  0.21150992  0.69950534
   0.93779314  0.12602944  0.65498172
   0.31259409  0.37645009  0.65501176
   0.56236436  0.21107102  0.69953938
   0.18756384  0.79224021  0.61080046
   0.31262005  0.71111762  0.69949139
   0.56289371  0.02761326  0.12460778
   0.68710002  0.11239447  0.16686962
   0.93819284  0.95757006  0.56563735
   0.81221732  0.21559452  0.83308120
   0.18790722  0.12277346  0.52152502
   0.43749661  0.62098923  0.43441416
   0.93811415  0.27624564  0.12443748
   0.18787421  0.94540677  0.21160725
   0.18763748  0.29224820  0.61080646
   0.18769645  0.12036088  0.43433786
   0.06263748  0.20706389  0.56556076
   0.56261857  0.04206362  0.61080111
   0.93739066  0.12076976  0.43444033
   0.68736074  0.62339753  0.52164973
   0.81249135  0.86583449  0.30045250
   0.31236345  0.03105109  0.25602200
   0.81252525  0.03601217  0.38926920
   0.18751316  0.62653743  0.65497554
   0.18786003  0.63206229  0.78823109
   0.56219066  0.19556602  0.21164688
   0.31230495  0.04631523  0.74389831
   0.31280380  0.55082915  0.87540215
   0.06259544  0.70181612  0.34522866
   0.43708178  0.45689294  0.56567842
   0.93751574  0.28619378  0.38934165
   0.56254909  0.54710981  0.74398400
   0.56235667  0.54211331  0.61079087
   0.31231775  0.20518234  0.47843073
   0.81274011  0.88181249  0.78818971
   0.31248005  0.70231741  0.34516154
   0.93748180  0.12279674  0.52156695
   0.18780004  0.78127638  0.25609783
   0.56264281  0.87049893  0.43431667
   0.68758189  0.94570735  0.21162656
   0.56305352  0.03608942  0.38931600
   0.18722551  0.95673534  0.56566795
   0.68705335  0.79640681  0.74387983
   0.43754700  0.62319072  0.52156400
   0.93777143  0.78093069  0.25604813
   0.18732954  0.95231495  0.34513593
   0.81227349  0.20539664  0.47851961
   0.43748233  0.46098468  0.69952513
   0.56237045  0.37058775  0.43443891
   0.68751446  0.44576147  0.21167388
   0.56233348  0.37585141  0.65500610
   0.56233287  0.38216653  0.78824791
   0.18709544  0.46669833  0.83314957
   0.06220698  0.86238506  0.16702025
   0.81271580  0.04712813  0.74402427
   0.06244383  0.87316828  0.52152447
   0.31284588  0.70735983  0.56567801
   0.93737885  0.95484598  0.47836323
   0.68738190  0.28602348  0.38933658
   0.18789272  0.79677446  0.74382597
   0.43686251  0.63161471  0.78831309
   0.93752544  0.94589402  0.21165230
   0.06295853  0.19572771  0.21166993
   0.93724672  0.95111574  0.34518134
   0.81256002  0.54667617  0.74385876
   0.18753549  0.11672635  0.30039698
   0.68810787  0.95515165  0.47842144
   0.18741314  0.96115054  0.69957198
   0.93715914  0.80097556  0.87542924
   0.56259693  0.21598365  0.83306267
   0.56295897  0.52692977  0.12464853
   0.18681361  0.46111172  0.69958816
   0.68741645  0.12067977  0.43436936
   0.18794300  0.62263105  0.52166377
   0.06255797  0.37622910  0.65504444
   0.93782134  0.77716709  0.12463499
   0.06246004  0.87066480  0.43422470
   0.56199397  0.36199291  0.16670048
   0.06248355  0.70505192  0.47857961
   0.68713321  0.28134792  0.25611391
   0.81251006  0.19608406  0.21163069
   0.06223107  0.52684459  0.12465248
   0.68731545  0.29170775  0.61068071
   0.68732112  0.12512914  0.65497866
   0.18688146  0.95495330  0.47827743
   0.06234838  0.36638395  0.30032303
   0.81274995  0.70748422  0.56576235
   0.31265280  0.69564477  0.21165172
   0.43751464  0.45216439  0.34516438
   0.93756643  0.78611883  0.38927285
   0.93751215  0.79679796  0.74387306
   0.06305771  0.36221700  0.16668822
   0.56248984  0.87302239  0.52143124
   0.06256548  0.54664421  0.74391836
   0.06234106  0.20167376  0.34512942
   0.81271158  0.87346314  0.52158658
   0.43761459  0.95515533  0.47841524
   0.93759537  0.28063745  0.25599152
   0.06250967  0.55121775  0.87511499
   0.68719581  0.95612563  0.56579500
   0.93750141  0.62273126  0.52137957
   0.18753726  0.96615303  0.83382056
   0.68750985  0.63229597  0.78794630
   0.68710889  0.45767596  0.56567052
   0.31262301  0.52764791  0.12493025
   0.93750602  0.29658093  0.74397880
   0.43742234  0.96143092  0.69967090
   0.81220509  0.53135274  0.25594193
   0.31259998  0.03597836  0.38914656
   0.31242333  0.53599840  0.38915175
   0.81331212  0.20724462  0.56563807
Direct configuration=     2
   0.43720278  0.96529425  0.83301854
   0.43762587  0.44541392  0.21167652
   0.31255708  0.86692747  0.30036911
   0.81252625  0.37549113  0.65491450
   0.68784851  0.80030815  0.87551753
   0.43737057  0.62623851  0.65501429
   0.93720237  0.45138901  0.34513765
   0.93756574  0.61591904  0.30030837
   0.81240843  0.86256972  0.16687868
   0.68744014  0.79156202  0.61071139
   0.06221350  0.71096945  0.69956250
   0.68768851  0.78600851  0.38927998
   0.31273645  0.19492590  0.21177627
   0.56265430  0.87572282  0.65487155
   0.81268928  0.53608227  0.38935467
   0.31244337  0.86123907  0.16676445
   0.56192475  0.20745791  0.56577705
   0.31217911  0.87289004  0.52144469
   0.68731590  0.46555570  0.83313607
   0.06249388  0.54211389  0.61071418
   0.43757635  0.94547702  0.21163684
   0.93753318  0.11265681  0.16691022
   0.81237380  0.03133394  0.25613098
   0.81192536  0.55133938  0.87549450
   0.81233218  0.37056129  0.43429711
   0.06247812  0.04210769  0.61078440
   0.31240757  0.02703756  0.12465171
   0.18771659  0.12617219  0.65483742
   0.68766404  0.62524827  0.65501132
   0.31263880  0.36724496  0.30030178
   0.68785825  0.46149858  0.69958284
   0.06191191  0.03611647  0.38933213
   0.81269194  0.52762011  0.12465958
   0.43764895  0.28639014  0.38924903
   0.81263509  0.54161367  0.61071252
   0.56209669  0.03109033  0.25599798
   0.43750542  0.45518963  0.47845047
   0.06269304  0.37297770  0.52156719
   0.31224632  0.37288611  0.52154849
   0.43747278  0.12603507  0.65496036
   0.06266075  0.03169266  0.25604508
   0.93767026  0.62629513  0.65483639
   0.18746580  0.44543627  0.21166019
   0.56235612  0.53133769  0.25609752
   0.56316505  0.05079626  0.87534679
   0.06230171  0.88268416  0.78798902
   0.56247707  0.20184574  0.34511645
   0.18761335  0.11150258  0.16684121
   0.68795588  0.45548237  0.47851329
   0.93753456  0.11586661  0.30040793
   0.56239631  0.86641515  0.30033028
   0.31245649  0.87623091  0.65484703
   0.81233739  0.21170403  0.69960927
   0.18729945  0.45227878  0.34524600
   0.31238714  0.20242950  0.34516023
   0.31189741  0.71640699  0.83326797
   0.18740070  0.28105786  0.25601448
   0.06262668  0.02755822  0.12456523
   0.81248637  0.36226501  0.16683506
   0.06256990  0.53097212  0.25607596
   0.56228666  0.71158419  0.69960705
   0.81224417  0.70517042  0.47844474
   0.68767543  0.11597842  0.30034820
   0.93779498  0.46139581  0.69955285
   0.31248196  0.53141733  0.25610131
   0.06291043  0.05083757  0.87563839
   0.43753650  0.29255900  0.61067280
   0.43778885  0.78633005  0.38932098
   0.43669410  0.80108763  0.87552796
   0.81260583  0.71149139  0.69955743
   0.31254979  0.21088005  0.69954699
   0.31243607  0.54261188  0.61082413
   0.56301257  0.69591403  0.21182991
   0.43724445  0.29652754  0.74385678
   0.43693711  0.30031867  0.87526551
   0.31312796  0.38149836  0.78805932
   0.06307210  0.21601051  0.83321654
   0.43741432  0.28095237  0.25602741
   0.68776532  0.29683107  0.74402751
   0.56256326  0.37271664  0.52159051
   0.68772524  0.96577925  0.83307854
   0.43714326  0.13164767  0.78817010
   0.81249586  0.87062316  0.43430036
   0.93773215  0.44583311  0.21176302
   0.31254864  0.20741587  0.56574698
   0.81229113  0.37319208  0.52153439
   0.93730793  0.96155696  0.69967364
   0.06234156  0.71489235  0.83314171
   0.81242825  0.04169742  0.61072800
   0.56215460  0.88180391  0.78827369
   0.68682958  0.78050954  0.25606987
   0.43741523  0.78136176  0.25610168
   0.56227375  0.70730198  0.56576125
   0.06188040  0.53622831  0.38931766
   0.56272485  0.71511953  0.83316536
   0.43743947  0.95240635  0.34515983
   0.31248427  0.04232335  0.61078403
   0.43864033  0.27693659  0.12460114
   0.18757359  0.29657226  0.74385812
   0.68775102  0.61241684  0.16692890
   0.31214091  0.87024408  0.43432658
   0.56262888  0.55088010  0.87545799
   0.56274309  0.20528886  0.47833045
   0.81244152  0.36605856  0.30042078
   0.18758312  0.62067572  0.43424441
   0.31240902  0.36284823  0.16674922
   0.43706862  0.61144433  0.16680864
   0.68760380  0.95152580  0.34506144
   0.43747281  0.11167538  0.16694166
   0.43764032  0.12107831  0.43435361
   0.56265839  0.70475237  0.47837855
   0.56234028  0.70196030  0.34519800
   0.06231145  0.38171775  0.78822724
   0.43744389  0.61694773  0.30040795
   0.18747042  0.28617330  0.38932250
   0.43757714  0.11669558  0.30037632
   0.31254746  0.37053934  0.43435849
   0.31207791  0.21550934  0.83306843
   0.93765993  0.46611433  0.83319165
   0.93747648  0.29138061  0.61082791
   0.18778798  0.61153047  0.16680187
   0.18754828  0.77769861  0.12457707
   0.81201636  0.05057890  0.87543910
   0.31203158  0.05050027  0.87564321
   0.18813881  0.80101666  0.87563194
   0.56267709  0.36647623  0.30034296
   0.93764100  0.45496060  0.47836851
   0.81264777  0.87558337  0.65499951
   0.18700888  0.13257639  0.78822159
   0.06262999  0.04684835  0.74395398
   0.43768643  0.79665653  0.74388216
   0.81265275  0.02731957  0.12467132
   0.81245180  0.20132955  0.34521001
   0.43755425  0.77750656  0.12458005
   0.68748901  0.77734934  0.12462466
   0.93720368  0.61270369  0.16684611
   0.81274602  0.71471850  0.83328587
   0.43748687  0.79235941  0.61074070
   0.93816307  0.45624181  0.56575323
   0.06241101  0.87629441  0.65492946
   0.81202607  0.38171338  0.78804643
   0.81264250  0.69620684  0.21167541
   0.68717208  0.27651966  0.12448123
   0.81235048  0.70144295  0.34517747
   0.68765431  0.96185431  0.69942655
   0.31253869  0.88220189  0.78818699
   0.18692015  0.45505606  0.47845136
   0.06264848  0.37040070  0.43426433
   0.93785509  0.96501107  0.83307896
   0.18756427  0.29930742  0.87533366
   0.68735159  0.61618735  0.30047043
   0.68773588  0.29926786  0.87534098
   0.68745050  0.45169414  0.34521291
   0.18698791  0.78602801  0.38921686
   0.56262595  0.04647891  0.74394813
   0.43807518  0.46556160  0.83295919
   0.43700273  0.95698924  0.56535070
   0.06311090  0.70731430  0.56568530
   0.18781783  0.61676652  0.30043667
   0.31240596  0.54682335  0.74389048
   0.56269695  0.86193829  0.16699657
   0.68749358  0.62096313  0.43426660
   0.18650996  0.27687998  0.12458174
   0.31251303  0.70473607  0.47845047
   0.68755885  0.13183133  0.78827937
   0.06266526  0.20537565  0.47845080
   0.93727635  0.62073715  0.43464967
   0.93792384  0.13187805  0.78813376
   0.06249979  0.86620790  0.30032765
   0.93751751  0.30007050  0.87533498
   0.43762821  0.12325839  0.52149667
   0.68695169  0.12312138  0.52160681
   0.56315578  0.53625582  0.38927348
   0.93762044  0.63193850  0.78816486
   0.18710913  0.45745643  0.56572086
   0.06202421  0.69634497  0.21187561
   0.93743244  0.79155064  0.61068000
   0.06252598  0.21153818  0.69949294
   0.93777168  0.12609987  0.65497105
   0.31258933  0.37648975  0.65499461
   0.56237799  0.21113717  0.69953682
   0.18756681  0.79221963  0.61076819
   0.31261297  0.71113351  0.69949037
   0.56288659  0.02763699  0.12463005
   0.68712706  0.11233597  0.16685274
   0.93816074  0.95749732  0.56564167
   0.81221969  0.21562152  0.83308416
   0.18792340  0.12270786  0.52150697
   0.43750375  0.62099927  0.43440819
   0.93806333  0.27643347  0.12447121
   0.18781551  0.94547227  0.21164796
   0.18762099  0.29223566  0.61076903
   0.18769316  0.12040141  0.43433196
   0.06266899  0.20709066  0.56557092
   0.56260572  0.04205555  0.61077396
   0.93741736  0.12078992  0.43443037
   0.68733324  0.62332877  0.52163624
   0.81250409  0.86584271  0.30046060
   0.31237297  0.03106684  0.25603706
   0.81251088  0.03601927  0.38928833
   0.18750332  0.62654224  0.65495252
   0.18782979  0.63204462  0.78822494
   0.56222459  0.19561761  0.21168691
   0.31231585  0.04628944  0.74389205
   0.31290641  0.55073887  0.87535206
   0.06262451  0.70176894  0.34523059
   0.43706094  0.45690460  0.56568402
   0.93751787  0.28619830  0.38935995
   0.56255321  0.54706695  0.74396967
   0.56237051  0.54211985  0.61077122
   0.31230360  0.20517767  0.47845496
   0.81273525  0.88178435  0.78818973
   0.31247658  0.70226220  0.34516171
   0.93751718  0.12282403  0.52154149
   0.18779937  0.78128740  0.25610348
   0.56262387  0.87052470  0.43431282
   0.68757806  0.94581352  0.21166509
   0.56301311  0.03611167  0.38933711
   0.18722384  0.95675425  0.56567431
   0.68705892  0.79641586  0.74387759
   0.43758710  0.62313592  0.52153977
   0.93776334  0.78097933  0.25605809
   0.18734066  0.95228003  0.34512758
   0.81232518  0.20531567  0.47851455
   0.43748581  0.46099415  0.69951632
   0.56238631  0.37063791  0.43443290
   0.68754459  0.44578450  0.21170376
   0.56234933  0.37593155  0.65499612
   0.56235570  0.38207736  0.78823626
   0.18710772  0.46669903  0.83316597
   0.06223509  0.86233147  0.16700343
   0.81266026  0.04706448  0.74400484
   0.06244413  0.87318613  0.52151984
   0.31282441  0.70733535  0.56569174
   0.93741784  0.95490975  0.47837292
   0.68738270  0.28602882  0.38935730
   0.18790250  0.79674498  0.74382586
   0.43688308  0.63160578  0.78829862
   0.93752160  0.94602882  0.21168879
   0.06294231  0.19576400  0.21169712
   0.93726507  0.95111442  0.34518511
   0.81254185  0.54668853  0.74385171
   0.18750775  0.11671755  0.30040056
   0.68804021  0.95523852  0.47844163
   0.18738913  0.96115490  0.69956012
   0.93711489  0.80094592  0.87538798
   0.56259327  0.21597719  0.83308249
   0.56302227  0.52696119  0.12465747
   0.18684729  0.46111930  0.69957662
   0.68738246  0.12070672  0.43435917
   0.18796765  0.62263618  0.52163629
   0.06256281  0.37628264  0.65503094
   0.93780127  0.77724417  0.12466289
   0.06244271  0.87066213  0.43421990
   0.56198865  0.36194644  0.16669067
   0.06267924  0.70511996  0.47858377
   0.68713297  0.28133196  0.25612260
   0.81249788  0.19612622  0.21165914
   0.06216416  0.52689739  0.12465531
   0.68732835  0.29170243  0.61066101
   0.68732631  0.12521823  0.65496425
   0.18694170  0.95504364  0.47832155
   0.06233992  0.36636920  0.30033742
   0.81277071  0.70746896  0.56576598
   0.31263394  0.69570842  0.21168226
   0.43750835  0.45209708  0.34515902
   0.93756913  0.78609426  0.38928429
   0.93749653  0.79675646  0.74386445
   0.06306041  0.36214219  0.16668206
   0.56254601  0.87301049  0.52141707
   0.06257919  0.54663544  0.74390984
   0.06237191  0.20165398  0.34513183
   0.81272721  0.87342711  0.52158696
   0.43756753  0.95520959  0.47842870
   0.93763531  0.28063057  0.25601366
   0.06247319  0.55098163  0.87508337
   0.68717899  0.95617708  0.56580283
   0.93745747  0.62273973  0.52140575
   0.18752341  0.96618990  0.83382503
   0.68747425  0.63220608  0.78794311
   0.68717389  0.45774080  0.56568589
   0.31262133  0.52765813  0.12492575
   0.93751301  0.29659661  0.74396553
   0.43744246  0.96142668  0.69966499
   0.81220808  0.53140298  0.25596110
   0.31261433  0.03598545  0.38916295
   0.31241223  0.53602881  0.38916467
   0.81333349  0.20725912  0.56564806
Direct configuration=     3
   0.43725842  0.96528199  0.83307352
   0.43755690  0.44558900  0.21173230
   0.31253867  0.86694852  0.30038754
   0.81252569  0.37563916  0.65490143
   0.68778048  0.80021322  0.87544233
   0.43738013  0.62635216  0.65497680
   0.93723629  0.45138285  0.34514517
   0.93754394  0.61586905  0.30032942
   0.81240942  0.86253241  0.16683095
   0.68750312  0.79153600  0.61067046
   0.06224686  0.71104061  0.69954697
   0.68764216  0.78598972  0.38930346
   0.31268274  0.19506870  0.21182914
   0.56265593  0.87576718  0.65484592
   0.81267329  0.53607247  0.38937811
   0.31245512  0.86116519  0.16673564
   0.56189055  0.20739859  0.56580081
   0.31204312  0.87285447  0.52141588
   0.68725630  0.46577180  0.83315858
   0.06245373  0.54205394  0.61067146
   0.43759539  0.94557105  0.21171032
   0.93757260  0.11254962  0.16688703
   0.81235227  0.03125638  0.25614196
   0.81176446  0.55111647  0.87543240
   0.81236844  0.37057198  0.43426538
   0.06249195  0.04205189  0.61073700
   0.31240502  0.02719658  0.12467993
   0.18772276  0.12623146  0.65480729
   0.68762127  0.62534742  0.65498679
   0.31260631  0.36710983  0.30032246
   0.68781165  0.46149503  0.69956544
   0.06195495  0.03613971  0.38936697
   0.81265951  0.52765348  0.12466172
   0.43766973  0.28637218  0.38927428
   0.81265133  0.54161177  0.61066469
   0.56213012  0.03113549  0.25601739
   0.43747964  0.45524509  0.47850396
   0.06261323  0.37285114  0.52156751
   0.31231485  0.37279582  0.52152435
   0.43743964  0.12617400  0.65494423
   0.06265598  0.03166952  0.25605827
   0.93767194  0.62637230  0.65481788
   0.18748176  0.44558500  0.21171086
   0.56230415  0.53129073  0.25611699
   0.56320334  0.05055362  0.87527701
   0.06226917  0.88248006  0.78797734
   0.56244473  0.20175148  0.34511742
   0.18763847  0.11139487  0.16681160
   0.68772965  0.45547464  0.47852465
   0.93749876  0.11587111  0.30042559
   0.56244516  0.86642093  0.30034370
   0.31241727  0.87626298  0.65482066
   0.81232148  0.21176060  0.69958864
   0.18736728  0.45218955  0.34523440
   0.31239971  0.20233727  0.34515315
   0.31199088  0.71647692  0.83330578
   0.18748882  0.28107669  0.25603943
   0.06261857  0.02758910  0.12461401
   0.81251649  0.36218161  0.16682250
   0.06259203  0.53102655  0.25610055
   0.56234461  0.71156062  0.69959649
   0.81211792  0.70523641  0.47845103
   0.68770010  0.11598107  0.30036459
   0.93775390  0.46136405  0.69952652
   0.31244409  0.53137903  0.25611637
   0.06290782  0.05056069  0.87557698
   0.43753854  0.29244680  0.61063613
   0.43777401  0.78630431  0.38934642
   0.43672353  0.80099072  0.87543704
   0.81257460  0.71149502  0.69954138
   0.31256058  0.21099296  0.69953926
   0.31241978  0.54255257  0.61076931
   0.56298704  0.69603260  0.21188818
   0.43728511  0.29652808  0.74383666
   0.43709315  0.30035879  0.87520598
   0.31310517  0.38133778  0.78804739
   0.06302190  0.21613079  0.83323538
   0.43746682  0.28096813  0.25605223
   0.68767522  0.29683026  0.74400934
   0.56248026  0.37285460  0.52155793
   0.68770392  0.96585989  0.83311808
   0.43710955  0.13154964  0.78816511
   0.81252077  0.87064926  0.43428006
   0.93768561  0.44591264  0.21179854
   0.31263213  0.20743582  0.56576726
   0.81235335  0.37316191  0.52153136
   0.93732425  0.96157977  0.69965763
   0.06230764  0.71511568  0.83316044
   0.81240017  0.04165469  0.61068831
   0.56221294  0.88173579  0.78827113
   0.68692814  0.78064493  0.25608798
   0.43741877  0.78137433  0.25611145
   0.56231325  0.70725702  0.56577180
   0.06187251  0.53623196  0.38934685
   0.56276462  0.71516153  0.83320851
   0.43746117  0.95228345  0.34515105
   0.31250920  0.04230885  0.61072631
   0.43866270  0.27716724  0.12464397
   0.18760650  0.29661990  0.74385301
   0.68777201  0.61234178  0.16690776
   0.31217935  0.87021592  0.43432239
   0.56273929  0.55059062  0.87538866
   0.56270965  0.20519384  0.47835337
   0.81244568  0.36612479  0.30044907
   0.18753287  0.62064631  0.43424978
   0.31239855  0.36271009  0.16675413
   0.43704366  0.61146706  0.16680207
   0.68759941  0.95148217  0.34507259
   0.43744694  0.11159007  0.16690758
   0.43766535  0.12107234  0.43436343
   0.56247757  0.70464894  0.47840561
   0.56231074  0.70184513  0.34519808
   0.06233638  0.38162314  0.78821253
   0.43746689  0.61689173  0.30041746
   0.18742896  0.28610870  0.38934732
   0.43755033  0.11666196  0.30038260
   0.31253242  0.37057459  0.43434635
   0.31209943  0.21560640  0.83308042
   0.93763245  0.46615697  0.83321873
   0.93747170  0.29145397  0.61079585
   0.18782268  0.61152465  0.16680406
   0.18756504  0.77795218  0.12463522
   0.81187293  0.05035330  0.87535153
   0.31212557  0.05029708  0.87557287
   0.18825211  0.80092938  0.87557554
   0.56267166  0.36644178  0.30035424
   0.93771143  0.45471099  0.47839990
   0.81262568  0.87568057  0.65497285
   0.18710723  0.13250628  0.78820216
   0.06263255  0.04667780  0.74392260
   0.43763734  0.79664412  0.74386622
   0.81261175  0.02725856  0.12471051
   0.81245245  0.20129018  0.34521111
   0.43754806  0.77775636  0.12464845
   0.68748043  0.77752592  0.12467444
   0.93723246  0.61261506  0.16683362
   0.81268586  0.71481217  0.83331153
   0.43750306  0.79231279  0.61071394
   0.93812450  0.45635955  0.56574946
   0.06245234  0.87635698  0.65490574
   0.81200728  0.38155016  0.78804270
   0.81263243  0.69622319  0.21173050
   0.68723137  0.27684015  0.12453211
   0.81234409  0.70137153  0.34519052
   0.68766700  0.96190831  0.69941699
   0.31257816  0.88207335  0.78816711
   0.18707485  0.45523680  0.47848065
   0.06261757  0.37044059  0.43425407
   0.93778433  0.96516003  0.83312849
   0.18751871  0.29922146  0.87527212
   0.68738734  0.61616383  0.30048985
   0.68767253  0.29927184  0.87530193
   0.68747398  0.45163137  0.34522251
   0.18701345  0.78595060  0.38924511
   0.56263420  0.04651305  0.74391963
   0.43807767  0.46563415  0.83301131
   0.43701601  0.95704490  0.56537761
   0.06302829  0.70733528  0.56569754
   0.18773154  0.61669394  0.30044379
   0.31239477  0.54680205  0.74387637
   0.56270037  0.86183917  0.16696284
   0.68749594  0.62090084  0.43425857
   0.18649390  0.27715087  0.12462770
   0.31249764  0.70478427  0.47849012
   0.68761071  0.13169648  0.78827101
   0.06262493  0.20532780  0.47847860
   0.93734238  0.62072806  0.43461312
   0.93786927  0.13184419  0.78812755
   0.06247298  0.86618232  0.30034613
   0.93751645  0.30007985  0.87527500
   0.43760649  0.12330230  0.52145271
   0.68696130  0.12289222  0.52157923
   0.56312119  0.53629080  0.38930649
   0.93765236  0.63183214  0.78815008
   0.18705146  0.45747784  0.56574042
   0.06206506  0.69640549  0.21192474
   0.93740655  0.79149227  0.61066366
   0.06254370  0.21158635  0.69947182
   0.93773511  0.12621989  0.65495285
   0.31258120  0.37655735  0.65496540
   0.56240123  0.21124990  0.69953244
   0.18757188  0.79218456  0.61071320
   0.31260090  0.71116060  0.69948864
   0.56287446  0.02767743  0.12466800
   0.68717314  0.11223627  0.16682398
   0.93810605  0.95737334  0.56564905
   0.81222372  0.21566753  0.83308921
   0.18795099  0.12259608  0.52147622
   0.43751592  0.62101640  0.43439800
   0.93797674  0.27675355  0.12452868
   0.18771548  0.94558390  0.21171733
   0.18759288  0.29221427  0.61070524
   0.18768755  0.12047049  0.43432189
   0.06272268  0.20713628  0.56558823
   0.56258381  0.04204179  0.61072770
   0.93746286  0.12082429  0.43441341
   0.68728637  0.62321161  0.52161325
   0.81252580  0.86585673  0.30047441
   0.31238921  0.03109370  0.25606273
   0.81248641  0.03603135  0.38932094
   0.18748655  0.62655042  0.65491330
   0.18777825  0.63201452  0.78821446
   0.56228242  0.19570554  0.21175514
   0.31233442  0.04624549  0.74388138
   0.31308127  0.55058501  0.87526669
   0.06267404  0.70168852  0.34523388