       N       E                     dE             d eps       ncg     rms          rms(c)
DAV:   1     0.290865589156E+05    0.29087E+05   -0.86164E+05 27930   0.196E+03
DAV:   2     0.119033066515E+04   -0.27896E+05   -0.27276E+05 27720   0.601E+02
DAV:   3    -0.194900260822E+04   -0.31393E+04   -0.27209E+04 38990   0.279E+02
DAV:   4    -0.261868238460E+04   -0.66968E+03   -0.60944E+03 50862   0.974E+01
DAV:   5    -0.273851622662E+04   -0.11983E+03   -0.11220E+03 48314   0.399E+01    0.204E+02
RMM:   6    -0.533079656789E+04   -0.25923E+04   -0.99151E+03 47984   0.227E+02    0.560E+02
RMM:   7    -0.349007985226E+04    0.18407E+04   -0.38916E+03 28240   0.137E+02    0.341E+02
RMM:   8    -0.959635945007E+04   -0.61063E+04   -0.15712E+04 43378   0.328E+02    0.994E+02
RMM:   9    -0.133064481222E+05   -0.37101E+04   -0.15896E+04 49369   0.170E+02    0.758E+02
RMM:  10    -0.897662292604E+04    0.43298E+04   -0.39853E+03 43379   0.127E+02    0.503E+02
RMM:  11    -0.579519251914E+04    0.31814E+04   -0.13419E+04 47716   0.295E+02    0.738E+02
RMM:  12    -0.658900351432E+04   -0.79381E+03   -0.11567E+04 49370   0.150E+02    0.796E+02
RMM:  13    -0.739240868632E+04   -0.80341E+03   -0.85967E+03 50020   0.140E+02    0.778E+02
RMM:  14    -0.615927705874E+04    0.12331E+04   -0.40511E+03 42718   0.133E+02    0.522E+02
RMM:  15    -0.845543878725E+04   -0.22962E+04   -0.80997E+03 37809   0.258E+02    0.565E+02
RMM:  16    -0.373209094813E+04    0.47233E+04   -0.50750E+03 34031   0.124E+02    0.348E+02
RMM:  17    -0.299838217559E+04    0.73371E+03   -0.14929E+03 28296   0.723E+01    0.271E+02
RMM:  18    -0.241366565092E+04    0.58472E+03   -0.10355E+03 32792   0.502E+01    0.174E+02
RMM:  19    -0.248303284732E+04   -0.69367E+02   -0.91161E+02 37035   0.369E+01    0.175E+02
RMM:  20    -0.243293510951E+04    0.50098E+02   -0.14535E+03 45087   0.401E+01    0.133E+02
RMM:  21    -0.239028488185E+04    0.42650E+02   -0.64256E+02 41743   0.217E+01    0.893E+01
RMM:  22    -0.244857252057E+04   -0.58288E+02   -0.54288E+02 41328   0.209E+01    0.106E+02
RMM:  23    -0.241821216741E+04    0.30360E+02   -0.34079E+02 46006   0.123E+01    0.871E+01
RMM:  24    -0.242565546911E+04   -0.74433E+01   -0.22249E+02 39350   0.115E+01    0.879E+01
RMM:  25    -0.240821141692E+04    0.17444E+02   -0.16926E+02 40435   0.891E+00    0.844E+01
RMM:  26    -0.238586549434E+04    0.22346E+02   -0.66557E+01 33423   0.947E+00    0.822E+01
RMM:  27    -0.236505607839E+04    0.20809E+02   -0.54377E+01 40206   0.586E+00    0.739E+01
RMM:  28    -0.235776575954E+04    0.72903E+01   -0.24888E+01 36327   0.510E+00    0.742E+01
RMM:  29    -0.235059122149E+04    0.71745E+01   -0.27081E+01 35178   0.511E+00    0.692E+01
RMM:  30    -0.235297382242E+04   -0.23826E+01   -0.23299E+01 33940   0.573E+00    0.739E+01
RMM:  31    -0.234708262825E+04    0.58912E+01   -0.22708E+01 42212   0.391E+00    0.661E+01
RMM:  32    -0.234351870394E+04    0.35639E+01   -0.67750E+00 36648   0.253E+00    0.617E+01
RMM:  33    -0.234387224785E+04   -0.35354E+00   -0.44024E+00 37383   0.210E+00    0.631E+01
RMM:  34    -0.233396125802E+04    0.99110E+01   -0.32451E+00 31600   0.275E+00    0.518E+01
RMM:  35    -0.232986573692E+04    0.40955E+01   -0.41728E+00 41229   0.196E+00    0.429E+01
RMM:  36    -0.232971932283E+04    0.14641E+00   -0.22713E+00 31116   0.241E+00    0.411E+01
RMM:  37    -0.232975118954E+04   -0.31867E-01   -0.28783E+00 34145   0.234E+00    0.417E+01
RMM:  38    -0.232803698303E+04    0.17142E+01   -0.14760E+00 28991   0.248E+00    0.380E+01
RMM:  39    -0.232733268233E+04    0.70430E+00   -0.26206E+00 29388   0.295E+00    0.366E+01
RMM:  40    -0.232554916807E+04    0.17835E+01   -0.32820E+00 31025   0.293E+00    0.341E+01
RMM:  41    -0.232570208719E+04   -0.15292E+00   -0.34721E+00 35763   0.236E+00    0.349E+01
RMM:  42    -0.232716901096E+04   -0.14669E+01   -0.25980E+00 39327   0.170E+00    0.395E+01
RMM:  43    -0.232729938957E+04   -0.13038E+00   -0.86966E-01 33256   0.128E+00    0.394E+01
RMM:  44    -0.232690648133E+04    0.39291E+00   -0.61295E-01 42872   0.581E-01    0.378E+01
RMM:  45    -0.232649711903E+04    0.40936E+00   -0.19155E-01 32401   0.609E-01    0.365E+01
RMM:  46    -0.232561802993E+04    0.87909E+00   -0.37580E-01 32233   0.920E-01    0.332E+01
RMM:  47    -0.232529500134E+04    0.32303E+00   -0.35817E-01 34298   0.792E-01    0.309E+01
RMM:  48    -0.232508655710E+04    0.20844E+00   -0.26891E-01 39226   0.520E-01    0.305E+01
RMM:  49    -0.232537650307E+04   -0.28995E+00   -0.39467E-01 32297   0.910E-01    0.316E+01
RMM:  50    -0.232534690946E+04    0.29594E-01   -0.38018E-01 44673   0.279E-01    0.312E+01
RMM:  51    -0.240712106259E+04   -0.81774E+02   -0.53396E+01 32678   0.106E+01    0.105E+02
RMM:  52    -0.242202312686E+04   -0.14902E+02   -0.55994E+01 42684   0.570E+00    0.114E+02
RMM:  53    -0.241972594631E+04    0.22972E+01   -0.32835E+01 45973   0.236E+00    0.116E+02
RMM:  54    -0.242545615989E+04   -0.57302E+01   -0.10922E+01 34319   0.248E+00    0.123E+02
RMM:  55    -0.242385261831E+04    0.16035E+01   -0.80076E+00 44088   0.113E+00    0.124E+02
RMM:  56    -0.244175162381E+04   -0.17899E+02   -0.90887E+01 31554   0.145E+01    0.134E+02
RMM:  57    -0.241046847544E+04    0.31283E+02   -0.79199E+01 31178   0.143E+01    0.110E+02
RMM:  58    -0.243324486469E+04   -0.22776E+02   -0.60828E+01 32002   0.120E+01    0.110E+02
RMM:  59    -0.244076801793E+04   -0.75232E+01   -0.66477E+01 36936   0.924E+00    0.112E+02
RMM:  60    -0.242153372754E+04    0.19234E+02   -0.33020E+01 40767   0.556E+00    0.104E+02
RMM:  61    -0.238323245962E+04    0.38301E+02   -0.26866E+01 28658   0.986E+00    0.969E+01
RMM:  62    -0.238352063259E+04   -0.28817E+00   -0.22964E+01 28976   0.924E+00    0.943E+01
RMM:  63    -0.235944157634E+04    0.24079E+02   -0.15641E+01 27991   0.794E+00    0.761E+01
RMM:  64    -0.233500465234E+04    0.24437E+02   -0.14144E+01 29249   0.685E+00    0.474E+01
RMM:  65    -0.233274437084E+04    0.22603E+01   -0.25398E+01 31288   0.758E+00    0.430E+01
RMM:  66    -0.233717856359E+04   -0.44342E+01   -0.32984E+01 29637   0.101E+01    0.525E+01
RMM:  67    -0.232902526423E+04    0.81533E+01   -0.10776E+01 27753   0.769E+00    0.338E+01
RMM:  68    -0.233136904696E+04   -0.23438E+01   -0.67196E+00 33585   0.338E+00    0.390E+01
RMM:  69    -0.233233841372E+04   -0.96937E+00   -0.40980E+00 38646   0.209E+00    0.402E+01
RMM:  70    -0.233166642527E+04    0.67199E+00   -0.17275E+00 35800   0.152E+00    0.379E+01
RMM:  71    -0.234853685352E+04   -0.16870E+02   -0.20792E+01 29270   0.821E+00    0.663E+01
RMM:  72    -0.233270297432E+04    0.15834E+02   -0.90937E+00 27720   0.771E+00    0.410E+01
RMM:  73    -0.233267449394E+04    0.28480E-01   -0.30882E+00 27880   0.396E+00    0.413E+01
RMM:  74    -0.233062531727E+04    0.20492E+01   -0.19974E+00 28512   0.294E+00    0.356E+01
RMM:  75    -0.232908843026E+04    0.15369E+01   -0.14611E+00 28850   0.247E+00    0.308E+01
RMM:  76    -0.237364683864E+04   -0.44558E+02   -0.43984E+01 28913   0.126E+01    0.888E+01
RMM:  77    -0.232918875933E+04    0.44458E+02   -0.14241E+01 27720   0.105E+01    0.308E+01
RMM:  78    -0.232682399031E+04    0.23648E+01   -0.28732E+00 29429   0.310E+00    0.243E+01
RMM:  79    -0.232632578755E+04    0.49820E+00   -0.36535E+00 31739   0.283E+00    0.220E+01
RMM:  80    -0.232579052577E+04    0.53526E+00   -0.26271E+00 37109   0.194E+00    0.193E+01
RMM:  81    -0.232656269334E+04   -0.77217E+00   -0.22199E+00 28749   0.284E+00    0.218E+01
RMM:  82    -0.232619381063E+04    0.36888E+00   -0.10930E+00 27748   0.269E+00    0.203E+01
RMM:  83    -0.232578065457E+04    0.41316E+00   -0.65392E-01 33658   0.106E+00    0.188E+01
RMM:  84    -0.232548485121E+04    0.29580E+00   -0.48986E-01 29262   0.130E+00    0.170E+01
RMM:  85    -0.232516794337E+04    0.31691E+00   -0.36147E-01 30165   0.103E+00    0.150E+01
RMM:  86    -0.232579820024E+04   -0.63026E+00   -0.12440E+00 28479   0.223E+00    0.188E+01
RMM:  87    -0.232511766444E+04    0.68054E+00   -0.56467E-01 27740   0.189E+00    0.152E+01
RMM:  88    -0.232502357111E+04    0.94093E-01   -0.62303E-01 28272   0.161E+00    0.142E+01
RMM:  89    -0.232476702233E+04    0.25655E+00   -0.45827E-01 27790   0.149E+00    0.121E+01
RMM:  90    -0.232466399192E+04    0.10303E+00   -0.33045E-01 27886   0.125E+00    0.108E+01
RMM:  91    -0.232484652056E+04   -0.18253E+00   -0.10717E+00 27938   0.213E+00    0.119E+01
RMM:  92    -0.232457756265E+04    0.26896E+00   -0.65783E-01 27735   0.195E+00    0.962E+00
RMM:  93    -0.232432750721E+04    0.25006E+00   -0.27257E-01 29729   0.903E-01    0.652E+00
RMM:  94    -0.232428460134E+04    0.42906E-01   -0.20296E-01 32680   0.629E-01    0.600E+00
RMM:  95    -0.232424341405E+04    0.41187E-01   -0.12580E-01 30669   0.579E-01    0.522E+00
RMM:  96    -0.232435836575E+04   -0.11495E+00   -0.35079E-01 28182   0.123E+00    0.669E+00
RMM:  97    -0.232418311731E+04    0.17525E+00   -0.16693E-01 27780   0.101E+00    0.369E+00
RMM:  98    -0.232415021668E+04    0.32901E-01   -0.79382E-02 28384   0.638E-01    0.273E+00
RMM:  99    -0.232414371498E+04    0.65017E-02   -0.78200E-02 30247   0.472E-01    0.243E+00
RMM: 100    -0.232413919013E+04    0.45249E-02   -0.46638E-02 30275   0.368E-01
   1 F= -.23241392E+04 E0= -.23213827E+04  d E =-.232414E+04
       N       E                     dE             d eps       ncg     rms          rms(c)
DAV:   1    -0.232431345213E+04   -0.16974E+00   -0.38444E+01 28224   0.660E+00    0.326E+00
RMM:   2    -0.251971107671E+04   -0.19540E+03   -0.72605E+01 38926   0.804E+00    0.163E+02
RMM:   3    -0.234972644476E+04    0.16998E+03   -0.52620E+00 28101   0.444E+00    0.630E+01
RMM:   4    -0.234783938197E+04    0.18871E+01   -0.61613E+00 31998   0.346E+00    0.640E+01
RMM:   5    -0.233156924363E+04    0.16270E+02   -0.43054E+00 30880   0.303E+00    0.344E+01
RMM:   6    -0.232709800701E+04    0.44712E+01   -0.36195E+00 28770   0.340E+00    0.227E+01
RMM:   7    -0.233119449870E+04   -0.40965E+01   -0.83637E+00 34487   0.385E+00    0.347E+01
RMM:   8    -0.232738585201E+04    0.38086E+01   -0.26905E+00 27757   0.335E+00    0.236E+01
RMM:   9    -0.232473654612E+04    0.26493E+01   -0.90399E-01 27914   0.196E+00    0.892E+00
RMM:  10    -0.232455702287E+04    0.17952E+00   -0.74809E-01 31187   0.131E+00    0.707E+00
RMM:  11    -0.232449010062E+04    0.66922E-01   -0.75907E-01 36519   0.105E+00    0.580E+00
RMM:  12    -0.232436827370E+04    0.12183E+00   -0.20546E-01 29151   0.815E-01    0.359E+00
RMM:  13    -0.232434987665E+04    0.18397E-01   -0.16929E-01 33522   0.544E-01    0.290E+00
RMM:  14    -0.232434180866E+04    0.80680E-02   -0.11020E-01 40515   0.301E-01    0.243E+00
RMM:  15    -0.232433297537E+04    0.88333E-02   -0.31785E-02 34229   0.209E-01    0.198E+00
RMM:  16    -0.232433098545E+04    0.19899E-02   -0.21908E-02 34576   0.181E-01    0.181E+00
RMM:  17    -0.232432300449E+04    0.79810E-02   -0.16720E-02 31513   0.204E-01    0.124E+00
RMM:  18    -0.232431937322E+04    0.36313E-02   -0.80329E-03 29480   0.173E-01    0.913E-01
RMM:  19    -0.232431965333E+04   -0.28011E-03   -0.73960E-03 31565   0.131E-01    0.862E-01
RMM:  20    -0.232432042557E+04   -0.77224E-03   -0.92527E-03 36406   0.114E-01    0.874E-01
RMM:  21    -0.232431925628E+04    0.11693E-02   -0.30710E-03 29888   0.103E-01    0.713E-01
RMM:  22    -0.232431860687E+04    0.64941E-03   -0.41296E-03 31934   0.977E-02    0.648E-01
RMM:  23    -0.232431765080E+04    0.95607E-03   -0.22377E-03 29820   0.839E-02    0.501E-01
RMM:  24    -0.232431732329E+04    0.32751E-03   -0.18970E-03 33567   0.599E-02    0.404E-01
RMM:  25    -0.232431698807E+04    0.33522E-03   -0.17802E-03 39613   0.431E-02    0.273E-01
RMM:  26    -0.232431690078E+04    0.87293E-04   -0.67115E-04 32162   0.369E-02    0.227E-01
RMM:  27    -0.232431694941E+04   -0.48634E-04   -0.72526E-04 38658   0.280E-02    0.230E-01
RMM:  28    -0.232431683818E+04    0.11123E-03   -0.30983E-04 31891   0.267E-02    0.155E-01
RMM:  29    -0.232431677315E+04    0.65034E-04   -0.15437E-04 30122   0.230E-02    0.112E-01
RMM:  30    -0.232431679358E+04   -0.20429E-04   -0.19349E-04 35403   0.176E-02    0.122E-01
RMM:  31    -0.232431680175E+04   -0.81730E-05   -0.78249E-05 31337   0.140E-02    0.124E-01
RMM:  32    -0.232431679677E+04    0.49757E-05   -0.60129E-05 34197   0.102E-02    0.118E-01
RMM:  33    -0.232431677495E+04    0.21825E-04   -0.56276E-05 33212   0.105E-02    0.911E-02
RMM:  34    -0.232431674443E+04    0.30520E-04   -0.23450E-05 28839   0.954E-03    0.477E-02
RMM:  35    -0.232431674236E+04    0.20650E-05   -0.24205E-05 31893   0.576E-03    0.398E-02
RMM:  36    -0.232431674167E+04    0.69017E-06   -0.17430E-05 29906   0.529E-03    0.343E-02
RMM:  37    -0.232431673852E+04    0.31542E-05   -0.79233E-06 22967   0.463E-03    0.208E-02
RMM:  38    -0.232431673878E+04   -0.25803E-06   -0.52729E-06 20790   0.271E-03
   2 F= -.23243167E+04 E0= -.23215563E+04  d E =-.177549E+00
       N       E                     dE             d eps       ncg     rms          rms(c)
DAV:   1    -0.232417313268E+04    0.14361E+00   -0.34605E+02 27720   0.195E+01    0.378E+00
RMM:   2    -0.233854125955E+04   -0.14368E+02   -0.99150E+00 27788   0.659E+00    0.497E+01
RMM:   3    -0.233745432789E+04    0.10869E+01   -0.47045E+00 38244   0.266E+00    0.457E+01
RMM:   4    -0.232585315681E+04    0.11601E+02   -0.19338E+00 27722   0.319E+00    0.140E+01
RMM:   5    -0.233590879387E+04   -0.10056E+02   -0.18085E+00 37991   0.159E+00    0.457E+01
RMM:   6    -0.232740098183E+04    0.85078E+01   -0.13745E+00 36483   0.145E+00    0.206E+01
RMM:   7    -0.232549310358E+04    0.19079E+01   -0.11787E+00 27723   0.228E+00    0.124E+01
RMM:   8    -0.232502836682E+04    0.46474E+00   -0.54053E-01 27730   0.174E+00    0.814E+00
RMM:   9    -0.232570755997E+04   -0.67919E+00   -0.48781E-01 28651   0.130E+00    0.139E+01
RMM:  10    -0.232560261380E+04    0.10495E+00   -0.46775E-01 30807   0.108E+00    0.134E+01
RMM:  11    -0.232487924942E+04    0.72336E+00   -0.30987E-01 27800   0.116E+00    0.603E+00
RMM:  12    -0.232470016515E+04    0.17908E+00   -0.14158E-01 27742   0.889E-01    0.284E+00
RMM:  13    -0.232466238121E+04    0.37784E-01   -0.71300E-02 28398   0.523E-01    0.141E+00
RMM:  14    -0.232467062807E+04   -0.82469E-02   -0.10200E-01 35039   0.397E-01    0.167E+00
RMM:  15    -0.232467011314E+04    0.51493E-03   -0.44492E-02 30699   0.340E-01    0.159E+00
RMM:  16    -0.232466584762E+04    0.42655E-02   -0.26364E-02 32180   0.244E-01    0.125E+00
RMM:  17    -0.232466492563E+04    0.92200E-03   -0.25250E-02 34814   0.203E-01    0.111E+00
RMM:  18    -0.232466087210E+04    0.40535E-02   -0.10937E-02 29786   0.192E-01    0.716E-01
RMM:  19    -0.232465922914E+04    0.16430E-02   -0.64420E-03 30482   0.136E-01    0.477E-01
RMM:  20    -0.232465966758E+04   -0.43844E-03   -0.69093E-03 36076   0.101E-01    0.509E-01
RMM:  21    -0.232465918189E+04    0.48569E-03   -0.21097E-03 29279   0.874E-02    0.396E-01
RMM:  22    -0.232465890987E+04    0.27202E-03   -0.15981E-03 33449   0.543E-02    0.314E-01
RMM:  23    -0.232465889179E+04    0.18072E-04   -0.13094E-03 38435   0.388E-02    0.287E-01
RMM:  24    -0.232465864719E+04    0.24461E-03   -0.50635E-04 30527   0.384E-02    0.197E-01
RMM:  25    -0.232465859569E+04    0.51494E-04   -0.44312E-04 33411   0.289E-02    0.161E-01
RMM:  26    -0.232465858692E+04    0.87728E-05   -0.39430E-04 33918   0.271E-02    0.150E-01
RMM:  27    -0.232465852604E+04    0.60876E-04   -0.15063E-04 30219   0.225E-02    0.104E-01
RMM:  28    -0.232465852315E+04    0.28984E-05   -0.17153E-04 40453   0.106E-02    0.903E-02
RMM:  29    -0.232465849435E+04    0.28796E-04   -0.58889E-05 36364   0.814E-03    0.481E-02
RMM:  30    -0.232465848479E+04    0.95642E-05   -0.22960E-05 30776   0.647E-03    0.206E-02
RMM:  31    -0.232465848599E+04   -0.12013E-05   -0.17814E-05 29395   0.445E-03    0.205E-02
RMM:  32    -0.232465848704E+04   -0.10500E-05   -0.10409E-05 27316   0.494E-03    0.226E-02
RMM:  33    -0.232465848523E+04    0.18028E-05   -0.41661E-06 20064   0.407E-03    0.133E-02
RMM:  34    -0.232465848538E+04   -0.14229E-06   -0.29147E-06 18700   0.270E-03
   3 F= -.23246585E+04 E0= -.23218812E+04  d E =-.519295E+00
       N       E                     dE             d eps       ncg     rms          rms(c)
DAV:   1    -0.232461920368E+04    0.39282E-01   -0.67534E+01 27720   0.858E+00    0.148E+00
RMM:   2    -0.232661436858E+04   -0.19952E+01   -0.15059E+00 27903   0.250E+00    0.186E+01
RMM:   3    -0.232698593207E+04   -0.37156E+00   -0.76430E-01 38491   0.104E+00    0.200E+01
RMM:   4    -0.232494086412E+04    0.20451E+01   -0.25421E-01 27725   0.113E+00    0.631E+00
RMM:   5    -0.232614440205E+04   -0.12035E+01   -0.21107E-01 34621   0.648E-01    0.165E+01
RMM:   6    -0.232502253932E+04    0.11219E+01   -0.19053E-01 38221   0.511E-01    0.713E+00
RMM:   7    -0.232554712764E+04   -0.52459E+00   -0.27238E-01 28844   0.935E-01    0.128E+01
RMM:   8    -0.232482549954E+04    0.72163E+00   -0.11614E-01 28351   0.670E-01    0.458E+00
RMM:   9    -0.232473841534E+04    0.87084E-01   -0.71878E-02 27737   0.638E-01    0.278E+00
RMM:  10    -0.232475173137E+04   -0.13316E-01   -0.70141E-02 28946   0.483E-01    0.327E+00
RMM:  11    -0.232472518483E+04    0.26547E-01   -0.58900E-02 30109   0.407E-01    0.233E+00
RMM:  12    -0.232470297643E+04    0.22208E-01   -0.22662E-02 27733   0.357E-01    0.126E+00
RMM:  13    -0.232469713001E+04    0.58464E-02   -0.11389E-02 29985   0.186E-01    0.825E-01
RMM:  14    -0.232469836278E+04   -0.12328E-02   -0.13482E-02 34264   0.146E-01    0.896E-01
RMM:  15    -0.232469641495E+04    0.19478E-02   -0.72887E-03 31122   0.136E-01    0.643E-01
RMM:  16    -0.232469482298E+04    0.15920E-02   -0.29163E-03 28906   0.108E-01    0.355E-01
RMM:  17    -0.232469483442E+04   -0.11446E-04   -0.36886E-03 36466   0.700E-02    0.324E-01
RMM:  18    -0.232469472679E+04    0.10763E-03   -0.17959E-03 31343   0.673E-02    0.269E-01
RMM:  19    -0.232469442886E+04    0.29793E-03   -0.79973E-04 30379   0.489E-02    0.132E-01
RMM:  20    -0.232469447865E+04   -0.49798E-04   -0.88872E-04 40154   0.259E-02    0.131E-01
RMM:  21    -0.232469448820E+04   -0.95512E-05   -0.28262E-04 31076   0.275E-02    0.130E-01
RMM:  22    -0.232469443300E+04    0.55205E-04   -0.15312E-04 31364   0.200E-02    0.764E-02
RMM:  23    -0.232469443933E+04   -0.63340E-05   -0.15521E-04 39213   0.120E-02    0.724E-02
RMM:  24    -0.232469442976E+04    0.95742E-05   -0.67154E-05 31618   0.125E-02    0.552E-02
RMM:  25    -0.232469441863E+04    0.11128E-04   -0.37492E-05 31371   0.951E-03    0.263E-02
RMM:  26    -0.232469442178E+04   -0.31446E-05   -0.37816E-05 35725   0.515E-03    0.281E-02
RMM:  27    -0.232469442119E+04    0.58149E-06   -0.10822E-05 25444   0.460E-03    0.223E-02
RMM:  28    -0.232469441997E+04    0.12270E-05   -0.46363E-06 20356   0.383E-03    0.151E-02
RMM:  29    -0.232469441992E+04    0.51688E-07   -0.32450E-06 19205   0.263E-03
   4 F= -.23246944E+04 E0= -.23219115E+04  d E =-.555230E+00
       N       E                     dE             d eps       ncg     rms          rms(c)
DAV:   1    -0.232474709352E+04   -0.52674E-01   -0.77627E+01 27720   0.923E+00    0.151E+00
RMM:   2    -0.232730728062E+04   -0.25602E+01   -0.16125E+00 27966   0.261E+00    0.221E+01
RMM:   3    -0.232627471026E+04    0.10326E+01   -0.73642E-01 39161   0.986E-01    0.158E+01
RMM:   4    -0.232506055701E+04    0.12142E+01   -0.23900E-01 27722   0.110E+00    0.609E+00
RMM:   5    -0.232641873186E+04   -0.13582E+01   -0.23460E-01 33989   0.698E-01    0.174E+01
RMM:   6    -0.232536918405E+04    0.10495E+01   -0.24181E-01 39141   0.532E-01    0.941E+00
RMM:   7    -0.232602663117E+04   -0.65745E+00   -0.42701E-01 30165   0.102E+00    0.149E+01
RMM:   8    -0.232501734784E+04    0.10093E+01   -0.16986E-01 27849   0.860E-01    0.535E+00
RMM:   9    -0.232486429509E+04    0.15305E+00   -0.86210E-02 27839   0.654E-01    0.247E+00
RMM:  10    -0.232488925544E+04   -0.24960E-01   -0.95202E-02 29745   0.518E-01    0.329E+00
RMM:  11    -0.232487214046E+04    0.17115E-01   -0.69175E-02 28480   0.491E-01    0.263E+00
RMM:  12    -0.232484004861E+04    0.32092E-01   -0.24404E-02 27725   0.367E-01    0.124E+00
RMM:  13    -0.232483287968E+04    0.71689E-02   -0.12767E-02 29835   0.199E-01    0.604E-01
RMM:  14    -0.232483398789E+04   -0.11082E-02   -0.13175E-02 33250   0.153E-01    0.690E-01
RMM:  15    -0.232483288133E+04    0.11066E-02   -0.57310E-03 29940   0.132E-01    0.487E-01
RMM:  16    -0.232483208691E+04    0.79441E-03   -0.30088E-03 31020   0.875E-02    0.292E-01
RMM:  17    -0.232483224150E+04   -0.15459E-03   -0.30842E-03 37052   0.634E-02    0.298E-01
RMM:  18    -0.232483205777E+04    0.18373E-03   -0.13372E-03 30607   0.610E-02    0.218E-01
RMM:  19    -0.232483192057E+04    0.13720E-03   -0.87442E-04 32819   0.419E-02    0.132E-01
RMM:  20    -0.232483196324E+04   -0.42673E-04   -0.74210E-04 39812   0.254E-02    0.132E-01
RMM:  21    -0.232483194361E+04    0.19631E-04   -0.29470E-04 31073   0.278E-02    0.113E-01
RMM:  22    -0.232483189890E+04    0.44717E-04   -0.18178E-04 32472   0.197E-02    0.525E-02
RMM:  23    -0.232483190868E+04   -0.97878E-05   -0.16353E-04 40484   0.114E-02    0.542E-02
RMM:  24    -0.232483191003E+04   -0.13411E-05   -0.53242E-05 31656   0.111E-02    0.551E-02
RMM:  25    -0.232483190399E+04    0.60352E-05   -0.30191E-05 31718   0.796E-03    0.407E-02
RMM:  26    -0.232483190281E+04    0.11808E-05   -0.25642E-05 33310   0.494E-03    0.331E-02
RMM:  27    -0.232483189951E+04    0.33015E-05   -0.92537E-06 25803   0.462E-03    0.191E-02
RMM:  28    -0.232483189961E+04   -0.10285E-06   -0.43790E-06 20140   0.377E-03
   5 F= -.23248319E+04 E0= -.23220511E+04  d E =-.137480E+00
