<?xml version="1.0" encoding="ISO-8859-1"?>
<modeling>
 <generator>
  <i name="program" type="string">vasp </i>
  <i name="version" type="string">5.4.4.18Apr17-6-g9f103f2a35  </i>
  <i name="subversion" type="string">(build Sep 27 2018 12:46:37) complex + VL-xray_ parallel </i>
  <i name="platform" type="string">LLNL_Quartz_ifc </i>
  <i name="date" type="string">2021 09 26 </i>
  <i name="time" type="string">23:00:35 </i>
 </generator>
 <incar>
  <i type="int" name="ISTART">     2</i>
  <i type="string" name="PREC">accurate</i>
  <i type="string" name="ALGO"> Fast</i>
  <i type="int" name="ICHARG">     2</i>
  <i type="int" name="INIWAV">     1</i>
  <i type="int" name="NELM">   100</i>
  <i type="int" name="NELMIN">     4</i>
  <i type="int" name="IBRION">     2</i>
  <i name="EDIFF">      0.00000100</i>
  <i type="int" name="NSW">     5</i>
  <i type="int" name="ISIF">     2</i>
  <i type="int" name="ISYM">     2</i>
  <i name="ENCUT">    450.00000000</i>
  <i name="POTIM">      0.25000000</i>
  <i type="string" name="LREAL"> Auto</i>
  <i type="int" name="ISMEAR">     0</i>
  <i name="SIGMA">      0.15000000</i>
  <i type="logical" name="LWAVE"> F  </i>
  <i type="logical" name="LCHARG"> F  </i>
  <i type="int" name="ICORELEVEL">     0</i>
  <i type="int" name="CLNT">     1</i>
  <i type="int" name="CLN">     1</i>
  <i type="int" name="INCAR     ">     0</i>
  <i name="CLZ">      0.00000000</i>
  <v type="int" name="KPOINT_BSE">    -1     0     0     0</v>
  <i type="int" name="NELM">   100</i>
 </incar>
 <structure name="primitive_cell" >
  <crystal>
   <varray name="basis" >
    <v>       9.72667804       0.00000000       0.00000000 </v>
    <v>       0.00000000       8.42355028       0.00000000 </v>
    <v>       0.00000000       0.00000000      45.00000000 </v>
   </varray>
   <i name="volume">   3686.99226691 </i>
   <varray name="rec_basis" >
    <v>       0.10281002       0.00000000       0.00000000 </v>
    <v>       0.00000000       0.11871479       0.00000000 </v>
    <v>       0.00000000       0.00000000       0.02222222 </v>
   </varray>
  </crystal>
  <varray name="positions" >
   <v>       0.06180471       0.03121050       0.12436214 </v>
   <v>       0.18307226       0.11225543       0.16659000 </v>
   <v>       0.05571151      -0.13438817       0.16679608 </v>
   <v>       0.18617137      -0.21147848       0.12428085 </v>
   <v>      -0.06636125      -0.21164428       0.12468635 </v>
   <v>      -0.06876345       0.11457110       0.16724578 </v>
   <v>      -0.18648055       0.03173467       0.12435242 </v>
   <v>       0.31137110       0.03164830       0.12441588 </v>
   <v>       0.18470277       0.28761410       0.12452226 </v>
   <v>      -0.06553002       0.28743647       0.12443988 </v>
   <v>       0.30538882      -0.13476538       0.16609427 </v>
   <v>       0.05506416       0.36578525       0.16682559 </v>
   <v>      -0.19331425      -0.13581236       0.16725141 </v>
   <v>       0.43213119       0.11254734       0.16670543 </v>
   <v>       0.30683686       0.36450270       0.16686072 </v>
   <v>      -0.05944446      -0.04453648       0.21164351 </v>
   <v>       0.43460772      -0.21231901       0.12451517 </v>
   <v>       0.18234374      -0.38620095       0.16667492 </v>
   <v>       0.18972520      -0.04351268       0.21206527 </v>
   <v>       0.06476046       0.20514573       0.21163469 </v>
   <v>      -0.06695937      -0.38710211       0.16685010 </v>
   <v>      -0.31572579      -0.21155107       0.12476610 </v>
   <v>       0.06180662      -0.46879048       0.12431155 </v>
   <v>      -0.19490277       0.36633862       0.16646889 </v>
   <v>       0.43450675       0.28747322       0.12457377 </v>
   <v>      -0.31753873       0.11437892       0.16722813 </v>
   <v>      -0.31371732       0.28770822       0.12434826 </v>
   <v>       0.06678082      -0.29460425       0.21170213 </v>
   <v>      -0.18491851       0.20489150       0.21164228 </v>
   <v>      -0.18727937      -0.46932989       0.12433754 </v>
   <v>      -0.43767190       0.03280657       0.12459756 </v>
   <v>       0.31241237      -0.46829572       0.12428350 </v>
   <v>       0.31560834       0.20581245       0.21167965 </v>
   <v>      -0.44424216      -0.13498756       0.16667015 </v>
   <v>      -0.18335198      -0.29467933       0.21175455 </v>
   <v>       0.43180050      -0.38611906       0.16666424 </v>
   <v>      -0.31040315      -0.04409133       0.21194610 </v>
   <v>       0.31511618      -0.29609059       0.21242277 </v>
   <v>       0.43988793      -0.04318820       0.21226004 </v>
   <v>      -0.31743376      -0.38783750       0.16670021 </v>
   <v>       0.18960938       0.45511349       0.21164439 </v>
   <v>      -0.05990567       0.45578640       0.21199180 </v>
   <v>      -0.44396932       0.36567945       0.16676882 </v>
   <v>       0.05903060       0.03853306       0.25611327 </v>
   <v>       0.18419424      -0.21043655       0.25599996 </v>
   <v>      -0.06633412      -0.21115480       0.25594452 </v>
   <v>      -0.43369535       0.20338594       0.21182186 </v>
   <v>       0.30915267       0.03820406       0.25591372 </v>
   <v>      -0.43710129      -0.47002818       0.12485676 </v>
   <v>      -0.19079752       0.03822537       0.25615889 </v>
   <v>       0.18418153       0.28957482       0.25605495 </v>
   <v>      -0.06570188       0.28948713       0.25608639 </v>
   <v>      -0.31061324       0.45618991       0.21209839 </v>
   <v>       0.43988129       0.45583954       0.21187007 </v>
   <v>      -0.43487701      -0.29536175       0.21175462 </v>
   <v>       0.05986114      -0.46162778       0.25596829 </v>
   <v>       0.43369122      -0.21047990       0.25611233 </v>
   <v>      -0.31601325      -0.21085311       0.25612047 </v>
   <v>       0.43372911       0.28958098       0.25611590 </v>
   <v>      -0.31599994       0.28950864       0.25610926 </v>
   <v>       0.30856353      -0.46138079       0.25570129 </v>
   <v>      -0.44052141       0.03885899       0.25590900 </v>
   <v>      -0.19112844      -0.46189829       0.25625868 </v>
   <v>       0.06909658      -0.12527620       0.30045293 </v>
   <v>      -0.05534184       0.12382749       0.30032516 </v>
   <v>       0.19443756       0.12425638       0.30049963 </v>
   <v>      -0.18083367      -0.12521634       0.30042558 </v>
   <v>       0.31908444      -0.12552636       0.30030840 </v>
   <v>       0.06902486       0.37493235       0.30043705 </v>
   <v>      -0.05556286      -0.37573301       0.30019525 </v>
   <v>      -0.44114956      -0.46165447       0.25605206 </v>
   <v>      -0.30508292       0.12422318       0.30038480 </v>
   <v>       0.19424449      -0.37555512       0.30042383 </v>
   <v>      -0.18094633       0.37480350       0.30042027 </v>
   <v>       0.44422559       0.12440284       0.30047301 </v>
   <v>       0.31945063       0.37383568       0.30046921 </v>
   <v>      -0.30585304      -0.37515717       0.30035855 </v>
   <v>      -0.43067190      -0.12534456       0.30053372 </v>
   <v>       0.44450945      -0.37513798       0.30050225 </v>
   <v>      -0.43076307       0.37406846       0.30038610 </v>
   <v>       0.18379630      -0.04737118       0.34511713 </v>
   <v>      -0.06633288      -0.04836957       0.34496459 </v>
   <v>       0.05878327       0.20282877       0.34495044 </v>
   <v>       0.05850000      -0.29794550       0.34500152 </v>
   <v>       0.30884571       0.20236320       0.34492982 </v>
   <v>      -0.19115741       0.20263968       0.34507540 </v>
   <v>       0.30892365      -0.29774557       0.34491918 </v>
   <v>       0.43371970      -0.04730910       0.34506677 </v>
   <v>      -0.19122431      -0.29719109       0.34498793 </v>
   <v>      -0.31638433      -0.04816844       0.34494451 </v>
   <v>       0.18346631       0.45241974       0.34499380 </v>
   <v>      -0.06629681       0.45259231       0.34496402 </v>
   <v>      -0.44111108       0.20270663       0.34495339 </v>
   <v>       0.43366850       0.45268749       0.34509479 </v>
   <v>      -0.31646790       0.45241131       0.34506930 </v>
   <v>       0.06559133       0.03755306      -0.12465302 </v>
   <v>      -0.44152174      -0.29774265       0.34494644 </v>
   <v>       0.18759749      -0.20483425      -0.12433541 </v>
   <v>      -0.06235845      -0.20640093      -0.12481331 </v>
   <v>      -0.18684492       0.03973517      -0.12457789 </v>
   <v>       0.31453316       0.03996241      -0.12445029 </v>
   <v>       0.18843309       0.29454913      -0.12425098 </v>
   <v>      -0.06477190       0.29604640      -0.12472627 </v>
   <v>       0.06632024       0.03793423       0.38909055 </v>
   <v>       0.43692663      -0.20455812      -0.12431945 </v>
   <v>       0.06469283      -0.46141181      -0.12446199 </v>
   <v>      -0.31527607      -0.20462555      -0.12457215 </v>
   <v>       0.43663263       0.29637875      -0.12397796 </v>
   <v>      -0.31370006       0.29744072      -0.12426038 </v>
   <v>      -0.05875643      -0.21240105       0.38905548 </v>
   <v>      -0.18229235       0.03844171       0.38913670 </v>
   <v>       0.19130541      -0.21239549       0.38908759 </v>
   <v>      -0.05862166       0.28709409       0.38904534 </v>
   <v>       0.31647760       0.03757195       0.38906803 </v>
   <v>       0.19129092       0.28788896       0.38906149 </v>
   <v>      -0.18665606      -0.46146491      -0.12438857 </v>
   <v>       0.31434899      -0.46121742      -0.12421532 </v>
   <v>      -0.43653606       0.03895928      -0.12419986 </v>
   <v>      -0.30856901      -0.21215305       0.38904738 </v>
   <v>       0.06633582      -0.46253876       0.38914883 </v>
   <v>      -0.30867585       0.28729285       0.38907146 </v>
   <v>       0.44132087      -0.21250588       0.38908149 </v>
   <v>       0.44138758       0.28763425       0.38909651 </v>
   <v>      -0.18375216      -0.46249155       0.38911113 </v>
   <v>      -0.43361710       0.03767782       0.38909201 </v>
   <v>       0.31622873      -0.46225606       0.38908237 </v>
   <v>      -0.43641460      -0.46093710      -0.12432490 </v>
   <v>      -0.05831267      -0.03687080      -0.16643171 </v>
   <v>       0.19128210      -0.03728978      -0.16670786 </v>
   <v>       0.06645070       0.21349447      -0.16636326 </v>
   <v>       0.06588970      -0.28484176      -0.16635941 </v>
   <v>      -0.18215471       0.21392392      -0.16664621 </v>
   <v>       0.31695658       0.21179942      -0.16673086 </v>
   <v>      -0.43345173      -0.46232841       0.38909016 </v>
   <v>      -0.18311166      -0.28572698      -0.16696690 </v>
   <v>      -0.30849477      -0.03817736      -0.16686511 </v>
   <v>       0.31769416      -0.28745552      -0.16720779 </v>
   <v>       0.44269051      -0.03808487      -0.16689886 </v>
   <v>      -0.05853069       0.46275651      -0.16646843 </v>
   <v>       0.19173013       0.46255198      -0.16683250 </v>
   <v>       0.06254318      -0.12919546       0.43437348 </v>
   <v>       0.18751200       0.12000559       0.43445023 </v>
   <v>      -0.06278375       0.12001767       0.43462261 </v>
   <v>      -0.43395496       0.21299822      -0.16699246 </v>
   <v>      -0.30807371       0.46144287      -0.16693293 </v>
   <v>       0.44154567       0.46231672      -0.16685649 </v>
   <v>      -0.43364871      -0.28731260      -0.16692769 </v>
   <v>      -0.18825658      -0.12905141       0.43431986 </v>
   <v>       0.31210141      -0.12960111       0.43444821 </v>
   <v>       0.06251277       0.37096500       0.43438047 </v>
   <v>       0.18689331      -0.37977307       0.43444162 </v>
   <v>      -0.06264429      -0.37969823       0.43446054 </v>
   <v>      -0.31238275       0.11989790       0.43439447 </v>
   <v>       0.43704463       0.12055947       0.43438746 </v>
   <v>      -0.18801763       0.37174125       0.43426001 </v>
   <v>       0.31269842       0.37043720       0.43446836 </v>
   <v>      -0.31211604      -0.37961064       0.43443293 </v>
   <v>       0.43703460      -0.37955478       0.43439978 </v>
   <v>      -0.43789143      -0.12946965       0.43451478 </v>
   <v>      -0.43796668       0.37080088       0.43445684 </v>
   <v>       0.06009893      -0.12704858      -0.21180323 </v>
   <v>       0.18489650       0.12143331      -0.21172052 </v>
   <v>      -0.06477396       0.12269875      -0.21168753 </v>
   <v>      -0.18997290      -0.12784967      -0.21179554 </v>
   <v>       0.31133006      -0.12859317      -0.21194238 </v>
   <v>       0.06088686       0.37317552      -0.21187105 </v>
   <v>       0.43517739       0.12122221      -0.21137046 </v>
   <v>       0.18549808      -0.37915945      -0.21191958 </v>
   <v>      -0.06592970      -0.37729471      -0.21201786 </v>
   <v>      -0.31649752       0.12192432      -0.21167234 </v>
   <v>       0.31068263       0.37211815      -0.21176679 </v>
   <v>      -0.18955885       0.37327563      -0.21179571 </v>
   <v>       0.43406582      -0.37867649      -0.21147844 </v>
   <v>      -0.43998010      -0.12781709      -0.21172152 </v>
   <v>      -0.31509992      -0.37840831      -0.21181951 </v>
   <v>       0.18722684      -0.04420594       0.47868375 </v>
   <v>      -0.06281495      -0.04481936       0.47872606 </v>
   <v>       0.06246426       0.20596933       0.47863861 </v>
   <v>      -0.43983070       0.37190018      -0.21165759 </v>
   <v>       0.06221963      -0.29425340       0.47858002 </v>
   <v>       0.31223033       0.20572718       0.47865791 </v>
   <v>      -0.18781005       0.20569571       0.47870046 </v>
   <v>      -0.18773830      -0.29431177       0.47865053 </v>
   <v>       0.31217132      -0.29422589       0.47863727 </v>
   <v>       0.43722388      -0.04424912       0.47860321 </v>
   <v>      -0.31259951      -0.04443152       0.47867780 </v>
   <v>       0.18730676       0.45584992       0.47861527 </v>
   <v>      -0.06270886       0.45567026       0.47865532 </v>
   <v>      -0.43785815       0.20576375       0.47863109 </v>
   <v>      -0.31283994       0.45562142       0.47862339 </v>
   <v>       0.43735689       0.45576498       0.47858191 </v>
   <v>      -0.43776648      -0.29426273       0.47863973 </v>
   <v>       0.06561719       0.03972962      -0.25600296 </v>
   <v>      -0.05939987      -0.20990166      -0.25585493 </v>
   <v>       0.19033507      -0.20964508      -0.25600337 </v>
   <v>      -0.18449223       0.04028082      -0.25612106 </v>
   <v>      -0.05992864       0.28946980      -0.25600842 </v>
   <v>       0.31524351       0.04076384      -0.25610103 </v>
   <v>       0.19111260       0.29048092      -0.25609452 </v>
   <v>      -0.30994647      -0.20899755      -0.25595877 </v>
   <v>       0.06554723      -0.46008368      -0.25599496 </v>
   <v>       0.43986740      -0.20918320      -0.25595361 </v>
   <v>      -0.30944865       0.29016185      -0.25605987 </v>
   <v>       0.43986298       0.29093823      -0.25597827 </v>
   <v>      -0.18431835      -0.46000578      -0.25605113 </v>
   <v>       0.31557754      -0.45972688      -0.25595247 </v>
   <v>      -0.43394392       0.04040660      -0.25607367 </v>
   <v>       0.06157945      -0.12873889      -0.47870191 </v>
   <v>       0.18667210       0.12153387      -0.47861491 </v>
   <v>      -0.06352596       0.12125156      -0.47857513 </v>
   <v>      -0.18857313      -0.12875299      -0.47866347 </v>
   <v>       0.31168174      -0.12840867      -0.47862415 </v>
   <v>       0.06137710       0.37206360      -0.47863133 </v>
   <v>       0.18672534      -0.37878753      -0.47863478 </v>
   <v>      -0.06351176      -0.37863910      -0.47859167 </v>
   <v>      -0.31350442       0.12145879      -0.47865399 </v>
   <v>       0.43664605       0.12160973      -0.47862324 </v>
   <v>       0.31128496       0.37155462      -0.47864115 </v>
   <v>      -0.18825176       0.37191782      -0.47864724 </v>
   <v>      -0.43431082      -0.45940406      -0.25614088 </v>
   <v>       0.43657154      -0.37830324      -0.47871630 </v>
   <v>      -0.31346037      -0.37897210      -0.47871114 </v>
   <v>      -0.43822392      -0.12808997      -0.47860856 </v>
   <v>      -0.43836468       0.37140080      -0.47860133 </v>
   <v>       0.18524032      -0.04196149      -0.30032948 </v>
   <v>      -0.06479359      -0.04167307      -0.30038360 </v>
   <v>       0.05999247       0.20815882      -0.30040002 </v>
   <v>       0.06053213      -0.29226145      -0.30045459 </v>
   <v>       0.31048368       0.20791036      -0.30035422 </v>
   <v>      -0.18950368       0.20792219      -0.30034130 </v>
   <v>       0.31020530      -0.29257686      -0.30034929 </v>
   <v>      -0.18964797      -0.29211417      -0.30044823 </v>
   <v>       0.43501069      -0.04206653      -0.30045423 </v>
   <v>      -0.31510157      -0.04189056      -0.30037331 </v>
   <v>       0.18478618       0.45819481      -0.30036952 </v>
   <v>      -0.06489464       0.45802607      -0.30039423 </v>
   <v>      -0.43941227       0.20777505      -0.30037083 </v>
   <v>       0.43548188       0.45785398      -0.30037551 </v>
   <v>      -0.31501416       0.45805876      -0.30039501 </v>
   <v>       0.18704448      -0.04274561      -0.43460847 </v>
   <v>      -0.06339018      -0.04276413      -0.43452733 </v>
   <v>       0.06222753       0.20717903      -0.43465190 </v>
   <v>      -0.43963159      -0.29239626      -0.30043894 </v>
   <v>       0.06180228      -0.29376007      -0.43448648 </v>
   <v>      -0.18871984       0.20695266      -0.43462244 </v>
   <v>       0.31147326       0.20657305      -0.43452140 </v>
   <v>       0.31157942      -0.29282913      -0.43455210 </v>
   <v>      -0.18848368      -0.29339909      -0.43451714 </v>
   <v>       0.43713377      -0.04280306      -0.43467008 </v>
   <v>      -0.31245679      -0.04285545      -0.43449571 </v>
   <v>       0.18750762       0.45714234      -0.43455786 </v>
   <v>      -0.06340128       0.45658425      -0.43440816 </v>
   <v>      -0.43758289       0.20712374      -0.43454194 </v>
   <v>      -0.31310789       0.45714476      -0.43460003 </v>
   <v>       0.43696498       0.45717510      -0.43456592 </v>
   <v>      -0.43776361      -0.29289412      -0.43452389 </v>
   <v>       0.06654047      -0.12521587      -0.34511015 </v>
   <v>      -0.05852203       0.12474976      -0.34511429 </v>
   <v>       0.19148551       0.12504898      -0.34510036 </v>
   <v>      -0.18364295      -0.12516822      -0.34503749 </v>
   <v>       0.31658669      -0.12492088      -0.34515437 </v>
   <v>       0.06637119       0.37490653      -0.34506856 </v>
   <v>      -0.05848408      -0.37482209      -0.34512524 </v>
   <v>       0.19144673      -0.37506115      -0.34505520 </v>
   <v>      -0.30844678       0.12503214      -0.34514026 </v>
   <v>      -0.18349923       0.37488706      -0.34510923 </v>
   <v>       0.44155413       0.12482425      -0.34513700 </v>
   <v>       0.31647945       0.37444812      -0.34517337 </v>
   <v>      -0.30859881      -0.37505051      -0.34505377 </v>
   <v>      -0.43387172      -0.12533731      -0.34504741 </v>
   <v>       0.44149694      -0.37522079      -0.34515589 </v>
   <v>      -0.43347194       0.37490801      -0.34510815 </v>
   <v>       0.05874172       0.03760991      -0.38913791 </v>
   <v>       0.18377524      -0.21125393      -0.38918397 </v>
   <v>      -0.06627910      -0.21253775      -0.38910351 </v>
   <v>      -0.19122222       0.03789052      -0.38913124 </v>
   <v>       0.30815751       0.03822785      -0.38891252 </v>
   <v>       0.18408731       0.28825162      -0.38902978 </v>
   <v>      -0.06623447       0.28785314      -0.38908729 </v>
   <v>       0.43363251      -0.21160052      -0.38919006 </v>
   <v>       0.05860207      -0.46223106      -0.38908744 </v>
   <v>      -0.31620063      -0.21214260      -0.38915414 </v>
   <v>       0.43348509       0.28782008      -0.38910537 </v>
   <v>      -0.31639705       0.28807797      -0.38904108 </v>
   <v>       0.30875821      -0.46199393      -0.38910144 </v>
   <v>      -0.19129973      -0.46214235      -0.38909008 </v>
   <v>      -0.44125950       0.03787448      -0.38905415 </v>
   <v>      -0.44113606      -0.46205788      -0.38912079 </v>
  </varray>
 </structure>
 <varray name="primitive_index" >
  <v type="int" >        1 </v>
  <v type="int" >      125 </v>
  <v type="int" >       60 </v>
  <v type="int" >       83 </v>
  <v type="int" >       44 </v>
  <v type="int" >       26 </v>
  <v type="int" >      202 </v>
  <v type="int" >      256 </v>
  <v type="int" >      111 </v>
  <v type="int" >      155 </v>
  <v type="int" >      277 </v>
  <v type="int" >       51 </v>
  <v type="int" >      102 </v>
  <v type="int" >      182 </v>
  <v type="int" >      108 </v>
  <v type="int" >      212 </v>
  <v type="int" >      170 </v>
  <v type="int" >       20 </v>
  <v type="int" >      146 </v>
  <v type="int" >       50 </v>
  <v type="int" >      104 </v>
  <v type="int" >      163 </v>
  <v type="int" >      176 </v>
  <v type="int" >      284 </v>
  <v type="int" >      117 </v>
  <v type="int" >      166 </v>
  <v type="int" >      145 </v>
  <v type="int" >      250 </v>
  <v type="int" >      167 </v>
  <v type="int" >      205 </v>
  <v type="int" >      114 </v>
  <v type="int" >       91 </v>
  <v type="int" >      249 </v>
  <v type="int" >      192 </v>
  <v type="int" >      213 </v>
  <v type="int" >      174 </v>
  <v type="int" >       92 </v>
  <v type="int" >      276 </v>
  <v type="int" >      229 </v>
  <v type="int" >       97 </v>
  <v type="int" >      189 </v>
  <v type="int" >      175 </v>
  <v type="int" >       30 </v>
  <v type="int" >      185 </v>
  <v type="int" >      200 </v>
  <v type="int" >       52 </v>
  <v type="int" >      103 </v>
  <v type="int" >      179 </v>
  <v type="int" >      283 </v>
  <v type="int" >       24 </v>
  <v type="int" >      112 </v>
  <v type="int" >      127 </v>
  <v type="int" >      261 </v>
  <v type="int" >      139 </v>
  <v type="int" >      243 </v>
  <v type="int" >      168 </v>
  <v type="int" >      137 </v>
  <v type="int" >      118 </v>
  <v type="int" >      265 </v>
  <v type="int" >       58 </v>
  <v type="int" >      275 </v>
  <v type="int" >      221 </v>
  <v type="int" >       81 </v>
  <v type="int" >      214 </v>
  <v type="int" >      135 </v>
  <v type="int" >      215 </v>
  <v type="int" >       72 </v>
  <v type="int" >       98 </v>
  <v type="int" >      226 </v>
  <v type="int" >      178 </v>
  <v type="int" >       28 </v>
  <v type="int" >      109 </v>
  <v type="int" >      263 </v>
  <v type="int" >      220 </v>
  <v type="int" >      159 </v>
  <v type="int" >      242 </v>
  <v type="int" >      130 </v>
  <v type="int" >      210 </v>
  <v type="int" >      101 </v>
  <v type="int" >      171 </v>
  <v type="int" >      258 </v>
  <v type="int" >      194 </v>
  <v type="int" >       47 </v>
  <v type="int" >      216 </v>
  <v type="int" >       86 </v>
  <v type="int" >      207 </v>
  <v type="int" >      208 </v>
  <v type="int" >      172 </v>
  <v type="int" >       73 </v>
  <v type="int" >       25 </v>
  <v type="int" >      116 </v>
  <v type="int" >       12 </v>
  <v type="int" >      219 </v>
  <v type="int" >      206 </v>
  <v type="int" >       48 </v>
  <v type="int" >      282 </v>
  <v type="int" >      164 </v>
  <v type="int" >      268 </v>
  <v type="int" >      281 </v>
  <v type="int" >       14 </v>
  <v type="int" >      245 </v>
  <v type="int" >      120 </v>
  <v type="int" >      280 </v>
  <v type="int" >      124 </v>
  <v type="int" >      150 </v>
  <v type="int" >      266 </v>
  <v type="int" >       29 </v>
  <v type="int" >      255 </v>
  <v type="int" >      191 </v>
  <v type="int" >      190 </v>
  <v type="int" >      279 </v>
  <v type="int" >      148 </v>
  <v type="int" >       13 </v>
  <v type="int" >      165 </v>
  <v type="int" >      248 </v>
  <v type="int" >      231 </v>
  <v type="int" >       18 </v>
  <v type="int" >      161 </v>
  <v type="int" >       45 </v>
  <v type="int" >      273 </v>
  <v type="int" >       84 </v>
  <v type="int" >      264 </v>
  <v type="int" >        4 </v>
  <v type="int" >      123 </v>
  <v type="int" >       16 </v>
  <v type="int" >       67 </v>
  <v type="int" >       64 </v>
  <v type="int" >       17 </v>
  <v type="int" >        7 </v>
  <v type="int" >      259 </v>
  <v type="int" >      134 </v>
  <v type="int" >        6 </v>
  <v type="int" >       39 </v>
  <v type="int" >      222 </v>
  <v type="int" >      253 </v>
  <v type="int" >       88 </v>
  <v type="int" >        5 </v>
  <v type="int" >      110 </v>
  <v type="int" >       36 </v>
  <v type="int" >      181 </v>
  <v type="int" >      285 </v>
  <v type="int" >      160 </v>
  <v type="int" >      158 </v>
  <v type="int" >      143 </v>
  <v type="int" >       82 </v>
  <v type="int" >       74 </v>
  <v type="int" >      241 </v>
  <v type="int" >      235 </v>
  <v type="int" >       23 </v>
  <v type="int" >      218 </v>
  <v type="int" >      238 </v>
  <v type="int" >      131 </v>
  <v type="int" >      257 </v>
  <v type="int" >      201 </v>
  <v type="int" >       80 </v>
  <v type="int" >      113 </v>
  <v type="int" >      232 </v>
  <v type="int" >      278 </v>
  <v type="int" >       69 </v>
  <v type="int" >      251 </v>
  <v type="int" >      197 </v>
  <v type="int" >        3 </v>
  <v type="int" >      149 </v>
  <v type="int" >       55 </v>
  <v type="int" >      224 </v>
  <v type="int" >      254 </v>
  <v type="int" >       49 </v>
  <v type="int" >      272 </v>
  <v type="int" >      132 </v>
  <v type="int" >      188 </v>
  <v type="int" >      138 </v>
  <v type="int" >       57 </v>
  <v type="int" >      184 </v>
  <v type="int" >       33 </v>
  <v type="int" >       66 </v>
  <v type="int" >       94 </v>
  <v type="int" >      236 </v>
  <v type="int" >      223 </v>
  <v type="int" >      106 </v>
  <v type="int" >      157 </v>
  <v type="int" >      230 </v>
  <v type="int" >       21 </v>
  <v type="int" >      234 </v>
  <v type="int" >       99 </v>
  <v type="int" >      105 </v>
  <v type="int" >       75 </v>
  <v type="int" >      244 </v>
  <v type="int" >      269 </v>
  <v type="int" >      237 </v>
  <v type="int" >      199 </v>
  <v type="int" >      156 </v>
  <v type="int" >      169 </v>
  <v type="int" >        9 </v>
  <v type="int" >       46 </v>
  <v type="int" >      262 </v>
  <v type="int" >      151 </v>
  <v type="int" >      187 </v>
  <v type="int" >      239 </v>
  <v type="int" >       11 </v>
  <v type="int" >       43 </v>
  <v type="int" >      211 </v>
  <v type="int" >       31 </v>
  <v type="int" >       19 </v>
  <v type="int" >       71 </v>
  <v type="int" >       87 </v>
  <v type="int" >      288 </v>
  <v type="int" >      267 </v>
  <v type="int" >       27 </v>
  <v type="int" >      140 </v>
  <v type="int" >      286 </v>
  <v type="int" >       10 </v>
  <v type="int" >      144 </v>
  <v type="int" >      107 </v>
  <v type="int" >       68 </v>
  <v type="int" >      203 </v>
  <v type="int" >       34 </v>
  <v type="int" >      119 </v>
  <v type="int" >      183 </v>
  <v type="int" >      177 </v>
  <v type="int" >      270 </v>
  <v type="int" >      252 </v>
  <v type="int" >      195 </v>
  <v type="int" >       77 </v>
  <v type="int" >      247 </v>
  <v type="int" >      173 </v>
  <v type="int" >      225 </v>
  <v type="int" >       37 </v>
  <v type="int" >      274 </v>
  <v type="int" >       63 </v>
  <v type="int" >      233 </v>
  <v type="int" >      154 </v>
  <v type="int" >      141 </v>
  <v type="int" >       38 </v>
  <v type="int" >       54 </v>
  <v type="int" >      246 </v>
  <v type="int" >      152 </v>
  <v type="int" >       53 </v>
  <v type="int" >      193 </v>
  <v type="int" >       76 </v>
  <v type="int" >      162 </v>
  <v type="int" >      129 </v>
  <v type="int" >       62 </v>
  <v type="int" >      133 </v>
  <v type="int" >       65 </v>
  <v type="int" >      271 </v>
  <v type="int" >       93 </v>
  <v type="int" >       90 </v>
  <v type="int" >       32 </v>
  <v type="int" >       56 </v>
  <v type="int" >       95 </v>
  <v type="int" >       59 </v>
  <v type="int" >       42 </v>
  <v type="int" >        8 </v>
  <v type="int" >      228 </v>
  <v type="int" >       70 </v>
  <v type="int" >      186 </v>
  <v type="int" >      196 </v>
  <v type="int" >      122 </v>
  <v type="int" >      121 </v>
  <v type="int" >       79 </v>
  <v type="int" >        2 </v>
  <v type="int" >      198 </v>
  <v type="int" >      240 </v>
  <v type="int" >      153 </v>
  <v type="int" >      209 </v>
  <v type="int" >       35 </v>
  <v type="int" >      204 </v>
  <v type="int" >       85 </v>
  <v type="int" >      227 </v>
  <v type="int" >       89 </v>
  <v type="int" >       40 </v>
  <v type="int" >       78 </v>
  <v type="int" >      142 </v>
  <v type="int" >       15 </v>
  <v type="int" >      136 </v>
  <v type="int" >      217 </v>
  <v type="int" >      287 </v>
  <v type="int" >       61 </v>
  <v type="int" >      100 </v>
  <v type="int" >       96 </v>
  <v type="int" >      126 </v>
  <v type="int" >      180 </v>
  <v type="int" >      115 </v>
  <v type="int" >      147 </v>
  <v type="int" >       41 </v>
  <v type="int" >       22 </v>
  <v type="int" >      260 </v>
  <v type="int" >      128 </v>
 </varray>
 <kpoints>
  <generation param="Gamma">
   <v type="int" name="divisions">       4        4        1 </v>
   <v name="usershift">      0.00000000       0.00000000       0.00000000 </v>
   <v name="genvec1">      0.25000000       0.00000000       0.00000000 </v>
   <v name="genvec2">      0.00000000       0.25000000       0.00000000 </v>
   <v name="genvec3">      0.00000000       0.00000000       1.00000000 </v>
   <v name="shift">      0.00000000       0.00000000       0.00000000 </v>
  </generation>
  <varray name="kpointlist" >
   <v>       0.00000000       0.00000000       0.00000000 </v>
   <v>       0.25000000       0.00000000       0.00000000 </v>
   <v>       0.50000000       0.00000000       0.00000000 </v>
   <v>       0.00000000       0.25000000       0.00000000 </v>
   <v>       0.25000000       0.25000000       0.00000000 </v>
   <v>       0.50000000       0.25000000       0.00000000 </v>
   <v>      -0.25000000       0.25000000       0.00000000 </v>
   <v>       0.00000000       0.50000000       0.00000000 </v>
   <v>       0.25000000       0.50000000       0.00000000 </v>
   <v>       0.50000000       0.50000000       0.00000000 </v>
  </varray>
  <varray name="weights" >
   <v>       0.06250000 </v>
   <v>       0.12500000 </v>
   <v>       0.06250000 </v>
   <v>       0.12500000 </v>
   <v>       0.12500000 </v>
   <v>       0.12500000 </v>
   <v>       0.12500000 </v>
   <v>       0.06250000 </v>
   <v>       0.12500000 </v>
   <v>       0.06250000 </v>
  </varray>
 </kpoints>
 <parameters>
  <separator name="general" >
   <i type="string" name="SYSTEM">unknown system</i>
   <i type="logical" name="LCOMPAT"> F  </i>
  </separator>
  <separator name="electronic" >
   <i type="string" name="PREC">accura</i>
   <i name="ENMAX">    450.00000000</i>
   <i name="ENAUG">    838.43500000</i>
   <i name="EDIFF">      0.00000100</i>
   <i type="int" name="IALGO">    68</i>
   <i type="int" name="IWAVPR">    11</i>
   <i type="int" name="NBANDS">  1386</i>
   <i name="NELECT">   2290.00000000</i>
   <i type="int" name="TURBO">     0</i>
   <i type="int" name="IRESTART">     0</i>
   <i type="int" name="NREBOOT">     0</i>
   <i type="int" name="NMIN">     0</i>
   <i name="EREF">      0.00000000</i>
   <separator name="electronic smearing" >
    <i type="int" name="ISMEAR">     0</i>
    <i name="SIGMA">      0.15000000</i>
    <i name="KSPACING">      0.50000000</i>
    <i type="logical" name="KGAMMA"> T  </i>
   </separator>
   <separator name="electronic projectors" >
    <i type="logical" name="LREAL"> T  </i>
    <v name="ROPT">     -0.00025000     -0.00025000</v>
    <i type="int" name="LMAXPAW">  -100</i>
    <i type="int" name="LMAXMIX">     2</i>
    <i type="logical" name="NLSPLINE"> F  </i>
   </separator>
   <separator name="electronic startup" >
    <i type="int" name="ISTART">     0</i>
    <i type="int" name="ICHARG">     2</i>
    <i type="int" name="INIWAV">     1</i>
   </separator>
   <separator name="electronic spin" >
    <i type="int" name="ISPIN">     1</i>
    <i type="logical" name="LNONCOLLINEAR"> F  </i>
    <v name="MAGMOM">      1.00000000      1.00000000      1.00000000      1.00000000      1.00000000      1.00000000      1.00000000      1.00000000      1.00000000      1.00000000      1.00000000      1.00000000      1.00000000      1.00000000      1.00000000      1.00000000      1.00000000      1.00000000      1.00000000      1.00000000
      1.00000000      1.00000000      1.00000000      1.00000000      1.00000000      1.00000000      1.00000000      1.00000000      1.00000000      1.00000000      1.00000000      1.00000000      1.00000000      1.00000000      1.00000000      1.00000000      1.00000000      1.00000000      1.00000000      1.00000000
      1.00000000      1.00000000      1.00000000      1.00000000      1.00000000      1.00000000      1.00000000      1.00000000      1.00000000      1.00000000      1.00000000      1.00000000      1.00000000      1.00000000      1.00000000      1.00000000      1.00000000      1.00000000      1.00000000      1.00000000
      1.00000000      1.00000000      1.00000000      1.00000000      1.00000000      1.00000000      1.00000000      1.00000000      1.00000000      1.00000000      1.00000000      1.00000000      1.00000000      1.00000000      1.00000000      1.00000000      1.00000000      1.00000000      1.00000000      1.00000000
      1.00000000      1.00000000      1.00000000      1.00000000      1.00000000      1.00000000      1.00000000      1.00000000      1.00000000      1.00000000      1.00000000      1.00000000      1.00000000      1.00000000      1.00000000      1.00000000      1.00000000      1.00000000      1.00000000      1.00000000
      1.00000000      1.00000000      1.00000000      1.00000000      1.00000000      1.00000000      1.00000000      1.00000000      1.00000000      1.00000000      1.00000000      1.00000000      1.00000000      1.00000000      1.00000000      1.00000000      1.00000000      1.00000000      1.00000000      1.00000000
      1.00000000      1.00000000      1.00000000      1.00000000      1.00000000      1.00000000      1.00000000      1.00000000      1.00000000      1.00000000      1.00000000      1.00000000      1.00000000      1.00000000      1.00000000      1.00000000      1.00000000      1.00000000      1.00000000      1.00000000
      1.00000000      1.00000000      1.00000000      1.00000000      1.00000000      1.00000000      1.00000000      1.00000000      1.00000000      1.00000000      1.00000000      1.00000000      1.00000000      1.00000000      1.00000000      1.00000000      1.00000000      1.00000000      1.00000000      1.00000000
      1.00000000      1.00000000      1.00000000      1.00000000      1.00000000      1.00000000      1.00000000      1.00000000      1.00000000      1.00000000      1.00000000      1.00000000      1.00000000      1.00000000      1.00000000      1.00000000      1.00000000      1.00000000      1.00000000      1.00000000
      1.00000000      1.00000000      1.00000000      1.00000000      1.00000000      1.00000000      1.00000000      1.00000000      1.00000000      1.00000000      1.00000000      1.00000000      1.00000000      1.00000000      1.00000000      1.00000000      1.00000000      1.00000000      1.00000000      1.00000000
      1.00000000      1.00000000      1.00000000      1.00000000      1.00000000      1.00000000      1.00000000      1.00000000      1.00000000      1.00000000      1.00000000      1.00000000      1.00000000      1.00000000      1.00000000      1.00000000      1.00000000      1.00000000      1.00000000      1.00000000
      1.00000000      1.00000000      1.00000000      1.00000000      1.00000000      1.00000000      1.00000000      1.00000000      1.00000000      1.00000000      1.00000000      1.00000000      1.00000000      1.00000000      1.00000000      1.00000000      1.00000000      1.00000000      1.00000000      1.00000000
      1.00000000      1.00000000      1.00000000      1.00000000      1.00000000      1.00000000      1.00000000      1.00000000      1.00000000      1.00000000      1.00000000      1.00000000      1.00000000      1.00000000      1.00000000      1.00000000      1.00000000      1.00000000      1.00000000      1.00000000
      1.00000000      1.00000000      1.00000000      1.00000000      1.00000000      1.00000000      1.00000000      1.00000000      1.00000000      1.00000000      1.00000000      1.00000000      1.00000000      1.00000000      1.00000000      1.00000000      1.00000000      1.00000000      1.00000000      1.00000000
      1.00000000      1.00000000      1.00000000      1.00000000      1.00000000      1.00000000      1.00000000      1.00000000</v>
    <i name="NUPDOWN">     -1.00000000</i>
    <i type="logical" name="LSORBIT"> F  </i>
    <v name="SAXIS">      0.00000000      0.00000000      1.00000000</v>
    <i type="logical" name="LSPIRAL"> F  </i>
    <v name="QSPIRAL">      0.00000000      0.00000000      0.00000000</v>
    <i type="logical" name="LZEROZ"> F  </i>
   </separator>
   <separator name="electronic exchange-correlation" >
    <i type="logical" name="LASPH"> F  </i>
    <i type="logical" name="LMETAGGA"> F  </i>
   </separator>
   <separator name="electronic convergence" >
    <i type="int" name="NELM">   100</i>
    <i type="int" name="NELMDL">     0</i>
    <i type="int" name="NELMIN">     4</i>
    <i name="ENINI">    450.00000000</i>
    <separator name="electronic convergence detail" >
     <i type="logical" name="LDIAG"> T  </i>
     <i type="logical" name="LSUBROT"> F  </i>
     <i name="WEIMIN">      0.00100000</i>
     <i name="EBREAK">      0.00000000</i>
     <i name="DEPER">      0.30000000</i>
     <i type="int" name="NRMM">     4</i>
     <i name="TIME">      0.40000000</i>
    </separator>
   </separator>
   <separator name="electronic mixer" >
    <i name="AMIX">      0.40000000</i>
    <i name="BMIX">      1.00000000</i>
    <i name="AMIN">      0.10000000</i>
    <i name="AMIX_MAG">      1.60000000</i>
    <i name="BMIX_MAG">      1.00000000</i>
    <separator name="electronic mixer details" >
     <i type="int" name="IMIX">     4</i>
     <i type="logical" name="MIXFIRST"> F  </i>
     <i type="int" name="MAXMIX">   -45</i>
     <i name="WC">    100.00000000</i>
     <i type="int" name="INIMIX">     1</i>
     <i type="int" name="MIXPRE">     1</i>
     <i type="int" name="MREMOVE">     5</i>
    </separator>
   </separator>
   <separator name="electronic dipolcorrection" >
    <i type="logical" name="LDIPOL"> F  </i>
    <i type="logical" name="LMONO"> F  </i>
    <i type="int" name="IDIPOL">     0</i>
    <i name="EPSILON">      1.00000000</i>
    <v name="DIPOL">   -100.00000000   -100.00000000   -100.00000000</v>
    <i name="EFIELD">      0.00000000</i>
   </separator>
  </separator>
  <separator name="grids" >
   <i type="int" name="NGX">    70</i>
   <i type="int" name="NGY">    60</i>
   <i type="int" name="NGZ">   320</i>
   <i type="int" name="NGXF">   140</i>
   <i type="int" name="NGYF">   120</i>
   <i type="int" name="NGZF">   640</i>
   <i type="logical" name="ADDGRID"> F  </i>
  </separator>
  <separator name="ionic" >
   <i type="int" name="NSW">     5</i>
   <i type="int" name="IBRION">     2</i>
   <i type="int" name="MDALGO">     0</i>
   <i type="int" name="ISIF">     2</i>
   <i name="PSTRESS">      0.00000000</i>
   <i name="EDIFFG">      0.00001000</i>
   <i type="int" name="NFREE">     1</i>
   <i name="POTIM">      0.25000000</i>
   <i name="SMASS">     -3.00000000</i>
   <i name="SCALEE">      1.00000000</i>
  </separator>
  <separator name="ionic md" >
   <i name="TEBEG">      0.00010000</i>
   <i name="TEEND">      0.00010000</i>
   <i type="int" name="NBLOCK">     1</i>
   <i type="int" name="KBLOCK">     5</i>
   <i type="int" name="NPACO">   256</i>
   <i name="APACO">     16.00000000</i>
  </separator>
  <separator name="symmetry" >
   <i type="int" name="ISYM">     2</i>
   <i name="SYMPREC">      0.00001000</i>
  </separator>
  <separator name="dos" >
   <i type="int" name="LORBIT">     0</i>
   <v name="RWIGS">     -1.00000000     -1.00000000</v>
   <i type="int" name="NEDOS">   301</i>
   <i name="EMIN">     10.00000000</i>
   <i name="EMAX">    -10.00000000</i>
   <i name="EFERMI">      0.00000000</i>
  </separator>
  <separator name="writing" >
   <i type="int" name="NWRITE">     2</i>
   <i type="logical" name="LWAVE"> F  </i>
   <i type="logical" name="LDOWNSAMPLE"> F  </i>
   <i type="logical" name="LCHARG"> F  </i>
   <i type="logical" name="LPARD"> F  </i>
   <i type="logical" name="LVTOT"> F  </i>
   <i type="logical" name="LVHAR"> F  </i>
   <i type="logical" name="LELF"> F  </i>
   <i type="logical" name="LOPTICS"> F  </i>
   <v name="STM">      0.00000000      0.00000000      0.00000000      0.00000000      0.00000000      0.00000000      0.00000000</v>
  </separator>
  <separator name="performance" >
   <i type="int" name="NPAR">    14</i>
   <i type="int" name="NSIM">     4</i>
   <i type="int" name="NBLK">    -1</i>
   <i type="logical" name="LPLANE"> T  </i>
   <i type="logical" name="LSCALAPACK"> T  </i>
   <i type="logical" name="LSCAAWARE"> T  </i>
   <i type="logical" name="LSCALU"> F  </i>
   <i type="logical" name="LASYNC"> F  </i>
   <i type="logical" name="LORBITALREAL"> F  </i>
  </separator>
  <separator name="miscellaneous" >
   <i type="int" name="IDIOT">     3</i>
   <i type="int" name="ISPECIAL">     0</i>
   <i type="logical" name="LMUSIC"> F  </i>
   <v name="POMASS">     55.84700000     54.93800000</v>
   <v name="DARWINR">      0.00000000      0.00000000</v>
   <v name="DARWINV">      1.00000000      1.00000000</v>
   <i type="logical" name="LCORR"> T  </i>
  </separator>
  <i type="logical" name="GGA_COMPAT"> T  </i>
  <i type="logical" name="LBERRY"> F  </i>
  <i type="int" name="ICORELEVEL">     0</i>
  <i type="logical" name="LDAU"> F  </i>
  <i type="int" name="I_CONSTRAINED_M">     0</i>
  <separator name="electronic exchange-correlation" >
   <i type="string" name="GGA">--</i>
   <i type="int" name="VOSKOWN">     0</i>
   <i type="logical" name="LHFCALC"> F  </i>
   <i type="string" name="PRECFOCK"></i>
   <i type="logical" name="LSYMGRAD"> F  </i>
   <i type="logical" name="LHFONE"> F  </i>
   <i type="logical" name="LRHFCALC"> F  </i>
   <i type="logical" name="LTHOMAS"> F  </i>
   <i type="logical" name="LMODELHF"> F  </i>
   <i name="ENCUT4O">     -1.00000000</i>
   <i type="int" name="EXXOEP">     0</i>
   <i type="int" name="FOURORBIT">     0</i>
   <i name="AEXX">      0.00000000</i>
   <i name="HFALPHA">      0.00000000</i>
   <i name="MCALPHA">      0.00000000</i>
   <i name="ALDAX">      1.00000000</i>
   <i name="AGGAX">      1.00000000</i>
   <i name="ALDAC">      1.00000000</i>
   <i name="AGGAC">      1.00000000</i>
   <i type="int" name="NKREDX">     1</i>
   <i type="int" name="NKREDY">     1</i>
   <i type="int" name="NKREDZ">     1</i>
   <i type="logical" name="SHIFTRED"> F  </i>
   <i type="logical" name="ODDONLY"> F  </i>
   <i type="logical" name="EVENONLY"> F  </i>
   <i type="int" name="LMAXFOCK">     0</i>
   <i type="int" name="NMAXFOCKAE">     0</i>
   <i type="logical" name="LFOCKAEDFT"> F  </i>
   <i name="HFSCREEN">      0.00000000</i>
   <i name="HFSCREENC">      0.00000000</i>
   <i type="int" name="NBANDSGWLOW">     0</i>
  </separator>
  <separator name="vdW DFT" >
   <i type="logical" name="LUSE_VDW"> F  </i>
   <i name="Zab_VDW">     -0.84910000</i>
   <i name="PARAM1">      0.12340000</i>
   <i name="PARAM2">      1.00000000</i>
   <i name="PARAM3">      0.00000000</i>
  </separator>
  <separator name="model GW" >
   <i type="int" name="MODEL_GW">     0</i>
   <i name="MODEL_EPS0">      7.68123389</i>
   <i name="MODEL_ALPHA">      1.00000000</i>
  </separator>
  <separator name="linear response parameters" >
   <i type="logical" name="LEPSILON"> F  </i>
   <i type="logical" name="LRPA"> F  </i>
   <i type="logical" name="LNABLA"> F  </i>
   <i type="logical" name="LVEL"> F  </i>
   <i type="int" name="KINTER">     0</i>
   <i name="CSHIFT">      0.10000000</i>
   <i name="OMEGAMAX">     -1.00000000</i>
   <i name="DEG_THRESHOLD">      0.00200000</i>
   <i name="RTIME">     -0.10000000</i>
   <i name="WPLASMAI">      0.00000000</i>
   <v name="DFIELD">      0.00000000      0.00000000      0.00000000</v>
   <v name="WPLASMA">      0.00000000      0.00000000      0.00000000      0.00000000      0.00000000      0.00000000      0.00000000      0.00000000      0.00000000</v>
  </separator>
  <separator name="orbital magnetization" >
   <i type="logical" name="NUCIND"> F  </i>
   <v name="MAGPOS">      0.00000000      0.00000000      0.00000000</v>
   <i type="logical" name="LNICSALL"> T  </i>
   <i type="logical" name="ORBITALMAG"> F  </i>
   <i type="logical" name="LMAGBLOCH"> F  </i>
   <i type="logical" name="LCHIMAG"> F  </i>
   <i type="logical" name="LGAUGE"> T  </i>
   <i type="int" name="MAGATOM">     0</i>
   <v name="MAGDIPOL">      0.00000000      0.00000000      0.00000000</v>
   <v name="AVECCONST">      0.00000000      0.00000000      0.00000000</v>
  </separator>
  <separator name="response functions" >
   <i type="logical" name="LADDER"> F  </i>
   <i type="logical" name="LRPAFORCE"> F  </i>
   <i type="logical" name="LFXC"> F  </i>
   <i type="logical" name="LHARTREE"> T  </i>
   <i type="int" name="IBSE">     0</i>
   <v type="int" name="KPOINT">    -1     0     0     0</v>
   <i type="logical" name="LTCTE"> F  </i>
   <i type="logical" name="LTETE"> F  </i>
   <i type="logical" name="LTRIPLET"> F  </i>
   <i type="logical" name="LFXCEPS"> F  </i>
   <i type="logical" name="LFXHEG"> F  </i>
   <i type="int" name="NATURALO">     2</i>
   <i type="logical" name="L2ORDER"> F  </i>
   <i type="logical" name="LMP2LT"> F  </i>
   <i type="logical" name="LUSEW"> F  </i>
   <i name="ENCUTGW">     -2.00000000</i>
   <i name="ENCUTGWSOFT">     -2.00000000</i>
   <i name="ENCUTLF">     -1.00000000</i>
   <i type="int" name="LMAXMP2">    -1</i>
   <i name="SCISSOR">      0.00000000</i>
   <i type="int" name="NOMEGA">     0</i>
   <i type="int" name="NOMEGAR">     0</i>
   <i type="int" name="NBANDSGW">    -1</i>
   <i type="int" name="NBANDSO">    -1</i>
   <i type="int" name="NBANDSV">    -1</i>
   <i type="int" name="NELM">   100</i>
   <i type="int" name="NELMHF">     1</i>
   <i type="int" name="DIM">     3</i>
   <i type="int" name="ANTIRES">     0</i>
   <i name="OMEGAMAX">    -30.00000000</i>
   <i name="OMEGAMIN">    -30.00000000</i>
   <i name="OMEGATL">   -200.00000000</i>
   <i type="int" name="OMEGAGRID">   140</i>
   <i name="CSHIFT">     -0.10000000</i>
   <i type="logical" name="SELFENERGY"> F  </i>
   <i type="logical" name="LSPECTRAL"> F  </i>
   <i type="logical" name="LSPECTRALGW"> F  </i>
   <i type="logical" name="LSINGLES"> F  </i>
   <i type="logical" name="LFERMIGW"> F  </i>
   <i type="logical" name="ODDONLYGW"> F  </i>
   <i type="logical" name="EVENONLYGW"> F  </i>
   <i type="int" name="NKREDLFX">     1</i>
   <i type="int" name="NKREDLFY">     1</i>
   <i type="int" name="NKREDLFZ">     1</i>
   <i type="int" name="MAXMEM">  2800</i>
   <i type="int" name="TELESCOPE">     0</i>
   <i type="int" name="TAUPAR">     1</i>
   <i type="int" name="OMEGAPAR">    -1</i>
   <i name="LAMBDA">      1.00000000</i>
  </separator>
  <separator name="External order field" >
   <i name="OFIELD_KAPPA">      0.00000000</i>
   <v name="OFIELD_K">      0.00000000      0.00000000      0.00000000</v>
   <i name="OFIELD_Q6_NEAR">      0.00000000</i>
   <i name="OFIELD_Q6_FAR">      0.00000000</i>
   <i name="OFIELD_A">      0.00000000</i>
  </separator>
 </parameters>
 <atominfo>
  <atoms>     288 </atoms>
  <types>       2 </types>
  <array name="atoms" >
   <dimension dim="1">ion</dimension>
   <field type="string">element</field>
   <field type="int">atomtype</field>
   <set>
    <rc><c>Fe</c><c>   1</c></rc>
    <rc><c>Fe</c><c>   1</c></rc>
    <rc><c>Fe</c><c>   1</c></rc>
    <rc><c>Fe</c><c>   1</c></rc>
    <rc><c>Fe</c><c>   1</c></rc>
    <rc><c>Fe</c><c>   1</c></rc>
    <rc><c>Fe</c><c>   1</c></rc>
    <rc><c>Fe</c><c>   1</c></rc>
    <rc><c>Fe</c><c>   1</c></rc>
    <rc><c>Fe</c><c>   1</c></rc>
    <rc><c>Fe</c><c>   1</c></rc>
    <rc><c>Fe</c><c>   1</c></rc>
    <rc><c>Fe</c><c>   1</c></rc>
    <rc><c>Fe</c><c>   1</c></rc>
    <rc><c>Fe</c><c>   1</c></rc>
    <rc><c>Fe</c><c>   1</c></rc>
    <rc><c>Fe</c><c>   1</c></rc>
    <rc><c>Fe</c><c>   1</c></rc>
    <rc><c>Fe</c><c>   1</c></rc>
    <rc><c>Fe</c><c>   1</c></rc>
    <rc><c>Fe</c><c>   1</c></rc>
    <rc><c>Fe</c><c>   1</c></rc>
    <rc><c>Fe</c><c>   1</c></rc>
    <rc><c>Fe</c><c>   1</c></rc>
    <rc><c>Fe</c><c>   1</c></rc>
    <rc><c>Fe</c><c>   1</c></rc>
    <rc><c>Fe</c><c>   1</c></rc>
    <rc><c>Fe</c><c>   1</c></rc>
    <rc><c>Fe</c><c>   1</c></rc>
    <rc><c>Fe</c><c>   1</c></rc>
    <rc><c>Fe</c><c>   1</c></rc>
    <rc><c>Fe</c><c>   1</c></rc>
    <rc><c>Fe</c><c>   1</c></rc>
    <rc><c>Fe</c><c>   1</c></rc>
    <rc><c>Fe</c><c>   1</c></rc>
    <rc><c>Fe</c><c>   1</c></rc>
    <rc><c>Fe</c><c>   1</c></rc>
    <rc><c>Fe</c><c>   1</c></rc>
    <rc><c>Fe</c><c>   1</c></rc>
    <rc><c>Fe</c><c>   1</c></rc>
    <rc><c>Fe</c><c>   1</c></rc>
    <rc><c>Fe</c><c>   1</c></rc>
    <rc><c>Fe</c><c>   1</c></rc>
    <rc><c>Fe</c><c>   1</c></rc>
    <rc><c>Fe</c><c>   1</c></rc>
    <rc><c>Fe</c><c>   1</c></rc>
    <rc><c>Fe</c><c>   1</c></rc>
    <rc><c>Fe</c><c>   1</c></rc>
    <rc><c>Fe</c><c>   1</c></rc>
    <rc><c>Fe</c><c>   1</c></rc>
    <rc><c>Fe</c><c>   1</c></rc>
    <rc><c>Fe</c><c>   1</c></rc>
    <rc><c>Fe</c><c>   1</c></rc>
    <rc><c>Fe</c><c>   1</c></rc>
    <rc><c>Fe</c><c>   1</c></rc>
    <rc><c>Fe</c><c>   1</c></rc>
    <rc><c>Fe</c><c>   1</c></rc>
    <rc><c>Fe</c><c>   1</c></rc>
    <rc><c>Fe</c><c>   1</c></rc>
    <rc><c>Fe</c><c>   1</c></rc>
    <rc><c>Fe</c><c>   1</c></rc>
    <rc><c>Fe</c><c>   1</c></rc>
    <rc><c>Fe</c><c>   1</c></rc>
    <rc><c>Fe</c><c>   1</c></rc>
    <rc><c>Fe</c><c>   1</c></rc>
    <rc><c>Fe</c><c>   1</c></rc>
    <rc><c>Fe</c><c>   1</c></rc>
    <rc><c>Fe</c><c>   1</c></rc>
    <rc><c>Fe</c><c>   1</c></rc>
    <rc><c>Fe</c><c>   1</c></rc>
    <rc><c>Fe</c><c>   1</c></rc>
    <rc><c>Fe</c><c>   1</c></rc>
    <rc><c>Fe</c><c>   1</c></rc>
    <rc><c>Fe</c><c>   1</c></rc>
    <rc><c>Fe</c><c>   1</c></rc>
    <rc><c>Fe</c><c>   1</c></rc>
    <rc><c>Fe</c><c>   1</c></rc>
    <rc><c>Fe</c><c>   1</c></rc>
    <rc><c>Fe</c><c>   1</c></rc>
    <rc><c>Fe</c><c>   1</c></rc>
    <rc><c>Fe</c><c>   1</c></rc>
    <rc><c>Fe</c><c>   1</c></rc>
    <rc><c>Fe</c><c>   1</c></rc>
    <rc><c>Fe</c><c>   1</c></rc>
    <rc><c>Fe</c><c>   1</c></rc>
    <rc><c>Fe</c><c>   1</c></rc>
    <rc><c>Fe</c><c>   1</c></rc>
    <rc><c>Fe</c><c>   1</c></rc>
    <rc><c>Fe</c><c>   1</c></rc>
    <rc><c>Fe</c><c>   1</c></rc>
    <rc><c>Fe</c><c>   1</c></rc>
    <rc><c>Fe</c><c>   1</c></rc>
    <rc><c>Fe</c><c>   1</c></rc>
    <rc><c>Fe</c><c>   1</c></rc>
    <rc><c>Fe</c><c>   1</c></rc>
    <rc><c>Fe</c><c>   1</c></rc>
    <rc><c>Fe</c><c>   1</c></rc>
    <rc><c>Fe</c><c>   1</c></rc>
    <rc><c>Fe</c><c>   1</c></rc>
    <rc><c>Fe</c><c>   1</c></rc>
    <rc><c>Fe</c><c>   1</c></rc>
    <rc><c>Fe</c><c>   1</c></rc>
    <rc><c>Fe</c><c>   1</c></rc>
    <rc><c>Fe</c><c>   1</c></rc>
    <rc><c>Fe</c><c>   1</c></rc>
    <rc><c>Fe</c><c>   1</c></rc>
    <rc><c>Fe</c><c>   1</c></rc>
    <rc><c>Fe</c><c>   1</c></rc>
    <rc><c>Fe</c><c>   1</c></rc>
    <rc><c>Fe</c><c>   1</c></rc>
    <rc><c>Fe</c><c>   1</c></rc>
    <rc><c>Fe</c><c>   1</c></rc>
    <rc><c>Fe</c><c>   1</c></rc>
    <rc><c>Fe</c><c>   1</c></rc>
    <rc><c>Fe</c><c>   1</c></rc>
    <rc><c>Fe</c><c>   1</c></rc>
    <rc><c>Fe</c><c>   1</c></rc>
    <rc><c>Fe</c><c>   1</c></rc>
    <rc><c>Fe</c><c>   1</c></rc>
    <rc><c>Fe</c><c>   1</c></rc>
    <rc><c>Fe</c><c>   1</c></rc>
    <rc><c>Fe</c><c>   1</c></rc>
    <rc><c>Fe</c><c>   1</c></rc>
    <rc><c>Fe</c><c>   1</c></rc>
    <rc><c>Fe</c><c>   1</c></rc>
    <rc><c>Fe</c><c>   1</c></rc>
    <rc><c>Fe</c><c>   1</c></rc>
    <rc><c>Fe</c><c>   1</c></rc>
    <rc><c>Fe</c><c>   1</c></rc>
    <rc><c>Fe</c><c>   1</c></rc>
    <rc><c>Fe</c><c>   1</c></rc>
    <rc><c>Fe</c><c>   1</c></rc>
    <rc><c>Fe</c><c>   1</c></rc>
    <rc><c>Fe</c><c>   1</c></rc>
    <rc><c>Fe</c><c>   1</c></rc>
    <rc><c>Fe</c><c>   1</c></rc>
    <rc><c>Fe</c><c>   1</c></rc>
    <rc><c>Fe</c><c>   1</c></rc>
    <rc><c>Fe</c><c>   1</c></rc>
    <rc><c>Fe</c><c>   1</c></rc>
    <rc><c>Fe</c><c>   1</c></rc>
    <rc><c>Fe</c><c>   1</c></rc>
    <rc><c>Fe</c><c>   1</c></rc>
    <rc><c>Fe</c><c>   1</c></rc>
    <rc><c>Fe</c><c>   1</c></rc>
    <rc><c>Fe</c><c>   1</c></rc>
    <rc><c>Fe</c><c>   1</c></rc>
    <rc><c>Fe</c><c>   1</c></rc>
    <rc><c>Fe</c><c>   1</c></rc>
    <rc><c>Fe</c><c>   1</c></rc>
    <rc><c>Fe</c><c>   1</c></rc>
    <rc><c>Fe</c><c>   1</c></rc>
    <rc><c>Fe</c><c>   1</c></rc>
    <rc><c>Fe</c><c>   1</c></rc>
    <rc><c>Fe</c><c>   1</c></rc>
    <rc><c>Fe</c><c>   1</c></rc>
    <rc><c>Fe</c><c>   1</c></rc>
    <rc><c>Fe</c><c>   1</c></rc>
    <rc><c>Fe</c><c>   1</c></rc>
    <rc><c>Fe</c><c>   1</c></rc>
    <rc><c>Fe</c><c>   1</c></rc>
    <rc><c>Fe</c><c>   1</c></rc>
    <rc><c>Fe</c><c>   1</c></rc>
    <rc><c>Fe</c><c>   1</c></rc>
    <rc><c>Fe</c><c>   1</c></rc>
    <rc><c>Fe</c><c>   1</c></rc>
    <rc><c>Fe</c><c>   1</c></rc>
    <rc><c>Fe</c><c>   1</c></rc>
    <rc><c>Fe</c><c>   1</c></rc>
    <rc><c>Fe</c><c>   1</c></rc>
    <rc><c>Fe</c><c>   1</c></rc>
    <rc><c>Fe</c><c>   1</c></rc>
    <rc><c>Fe</c><c>   1</c></rc>
    <rc><c>Fe</c><c>   1</c></rc>
    <rc><c>Fe</c><c>   1</c></rc>
    <rc><c>Fe</c><c>   1</c></rc>
    <rc><c>Fe</c><c>   1</c></rc>
    <rc><c>Fe</c><c>   1</c></rc>
    <rc><c>Fe</c><c>   1</c></rc>
    <rc><c>Fe</c><c>   1</c></rc>
    <rc><c>Fe</c><c>   1</c></rc>
    <rc><c>Fe</c><c>   1</c></rc>
    <rc><c>Fe</c><c>   1</c></rc>
    <rc><c>Fe</c><c>   1</c></rc>
    <rc><c>Fe</c><c>   1</c></rc>
    <rc><c>Fe</c><c>   1</c></rc>
    <rc><c>Fe</c><c>   1</c></rc>
    <rc><c>Fe</c><c>   1</c></rc>
    <rc><c>Fe</c><c>   1</c></rc>
    <rc><c>Fe</c><c>   1</c></rc>
    <rc><c>Fe</c><c>   1</c></rc>
    <rc><c>Fe</c><c>   1</c></rc>
    <rc><c>Fe</c><c>   1</c></rc>
    <rc><c>Fe</c><c>   1</c></rc>
    <rc><c>Fe</c><c>   1</c></rc>
    <rc><c>Fe</c><c>   1</c></rc>
    <rc><c>Fe</c><c>   1</c></rc>
    <rc><c>Fe</c><c>   1</c></rc>
    <rc><c>Fe</c><c>   1</c></rc>
    <rc><c>Fe</c><c>   1</c></rc>
    <rc><c>Fe</c><c>   1</c></rc>
    <rc><c>Fe</c><c>   1</c></rc>
    <rc><c>Fe</c><c>   1</c></rc>
    <rc><c>Fe</c><c>   1</c></rc>
    <rc><c>Fe</c><c>   1</c></rc>
    <rc><c>Fe</c><c>   1</c></rc>
    <rc><c>Fe</c><c>   1</c></rc>
    <rc><c>Fe</c><c>   1</c></rc>
    <rc><c>Fe</c><c>   1</c></rc>
    <rc><c>Fe</c><c>   1</c></rc>
    <rc><c>Fe</c><c>   1</c></rc>
    <rc><c>Fe</c><c>   1</c></rc>
    <rc><c>Fe</c><c>   1</c></rc>
    <rc><c>Fe</c><c>   1</c></rc>
    <rc><c>Fe</c><c>   1</c></rc>
    <rc><c>Fe</c><c>   1</c></rc>
    <rc><c>Fe</c><c>   1</c></rc>
    <rc><c>Fe</c><c>   1</c></rc>
    <rc><c>Fe</c><c>   1</c></rc>
    <rc><c>Fe</c><c>   1</c></rc>
    <rc><c>Fe</c><c>   1</c></rc>
    <rc><c>Fe</c><c>   1</c></rc>
    <rc><c>Fe</c><c>   1</c></rc>
    <rc><c>Fe</c><c>   1</c></rc>
    <rc><c>Fe</c><c>   1</c></rc>
    <rc><c>Fe</c><c>   1</c></rc>
    <rc><c>Fe</c><c>   1</c></rc>
    <rc><c>Fe</c><c>   1</c></rc>
    <rc><c>Fe</c><c>   1</c></rc>
    <rc><c>Fe</c><c>   1</c></rc>
    <rc><c>Fe</c><c>   1</c></rc>
    <rc><c>Fe</c><c>   1</c></rc>
    <rc><c>Fe</c><c>   1</c></rc>
    <rc><c>Fe</c><c>   1</c></rc>
    <rc><c>Fe</c><c>   1</c></rc>
    <rc><c>Fe</c><c>   1</c></rc>
    <rc><c>Fe</c><c>   1</c></rc>
    <rc><c>Fe</c><c>   1</c></rc>
    <rc><c>Fe</c><c>   1</c></rc>
    <rc><c>Fe</c><c>   1</c></rc>
    <rc><c>Fe</c><c>   1</c></rc>
    <rc><c>Fe</c><c>   1</c></rc>
    <rc><c>Fe</c><c>   1</c></rc>
    <rc><c>Fe</c><c>   1</c></rc>
    <rc><c>Fe</c><c>   1</c></rc>
    <rc><c>Fe</c><c>   1</c></rc>
    <rc><c>Fe</c><c>   1</c></rc>
    <rc><c>Fe</c><c>   1</c></rc>
    <rc><c>Fe</c><c>   1</c></rc>
    <rc><c>Fe</c><c>   1</c></rc>
    <rc><c>Fe</c><c>   1</c></rc>
    <rc><c>Fe</c><c>   1</c></rc>
    <rc><c>Fe</c><c>   1</c></rc>
    <rc><c>Fe</c><c>   1</c></rc>
    <rc><c>Fe</c><c>   1</c></rc>
    <rc><c>Fe</c><c>   1</c></rc>
    <rc><c>Fe</c><c>   1</c></rc>
    <rc><c>Fe</c><c>   1</c></rc>
    <rc><c>Fe</c><c>   1</c></rc>
    <rc><c>Fe</c><c>   1</c></rc>
    <rc><c>Fe</c><c>   1</c></rc>
    <rc><c>Fe</c><c>   1</c></rc>
    <rc><c>Fe</c><c>   1</c></rc>
    <rc><c>Fe</c><c>   1</c></rc>
    <rc><c>Fe</c><c>   1</c></rc>
    <rc><c>Fe</c><c>   1</c></rc>
    <rc><c>Fe</c><c>   1</c></rc>
    <rc><c>Fe</c><c>   1</c></rc>
    <rc><c>Fe</c><c>   1</c></rc>
    <rc><c>Fe</c><c>   1</c></rc>
    <rc><c>Fe</c><c>   1</c></rc>
    <rc><c>Fe</c><c>   1</c></rc>
    <rc><c>Fe</c><c>   1</c></rc>
    <rc><c>Fe</c><c>   1</c></rc>
    <rc><c>Mn</c><c>   2</c></rc>
    <rc><c>Mn</c><c>   2</c></rc>
    <rc><c>Mn</c><c>   2</c></rc>
    <rc><c>Mn</c><c>   2</c></rc>
    <rc><c>Mn</c><c>   2</c></rc>
    <rc><c>Mn</c><c>   2</c></rc>
    <rc><c>Mn</c><c>   2</c></rc>
    <rc><c>Mn</c><c>   2</c></rc>
    <rc><c>Mn</c><c>   2</c></rc>
    <rc><c>Mn</c><c>   2</c></rc>
    <rc><c>Mn</c><c>   2</c></rc>
    <rc><c>Mn</c><c>   2</c></rc>
    <rc><c>Mn</c><c>   2</c></rc>
    <rc><c>Mn</c><c>   2</c></rc>
   </set>
  </array>
  <array name="atomtypes" >
   <dimension dim="1">type</dimension>
   <field type="int">atomspertype</field>
   <field type="string">element</field>
   <field>mass</field>
   <field>valence</field>
   <field type="string">pseudopotential</field>
   <set>
    <rc><c> 274</c><c>Fe</c><c>     55.84700000</c><c>      8.00000000</c><c>  PAW_PBE Fe_GW 31Mar2010               </c></rc>
    <rc><c>  14</c><c>Mn</c><c>     54.93800000</c><c>      7.00000000</c><c>  PAW_PBE Mn_GW 31Mar2010               </c></rc>
   </set>
  </array>
 </atominfo>
 <structure name="initialpos" >
  <crystal>
   <varray name="basis" >
    <v>       9.72667804       0.00000000       0.00000000 </v>
    <v>       0.00000000       8.42355028       0.00000000 </v>
    <v>       0.00000000       0.00000000      45.00000000 </v>
   </varray>
   <i name="volume">   3686.99226691 </i>
   <varray name="rec_basis" >
    <v>       0.10281002       0.00000000       0.00000000 </v>
    <v>       0.00000000       0.11871479       0.00000000 </v>
    <v>       0.00000000       0.00000000       0.02222222 </v>
   </varray>
  </crystal>
  <varray name="positions" >
   <v>       0.06180471       0.03121050       0.12436214 </v>
   <v>       0.31658669       0.87507912       0.65484563 </v>
   <v>       0.18489650       0.12143331       0.78827948 </v>
   <v>       0.44138758       0.28763425       0.38909651 </v>
   <v>       0.31769416       0.71254448       0.83279221 </v>
   <v>       0.81784529       0.21392392       0.83335379 </v>
   <v>       0.19128210       0.96271022       0.83329214 </v>
   <v>       0.56241711       0.20712374       0.56545806 </v>
   <v>       0.06561719       0.03972962       0.74399704 </v>
   <v>       0.81142687       0.87124701       0.52133653 </v>
   <v>       0.19111260       0.29048092       0.74390548 </v>
   <v>       0.93370319       0.45259231       0.34496402 </v>
   <v>       0.94137834       0.28709409       0.38904534 </v>
   <v>       0.81315508       0.03973517       0.87542211 </v>
   <v>       0.18377524       0.78874607       0.61081603 </v>
   <v>       0.56638290       0.03767782       0.38909201 </v>
   <v>       0.94168733       0.96312920       0.83356829 </v>
   <v>       0.31434899       0.53878258       0.87578468 </v>
   <v>       0.69055135       0.29016185       0.74394013 </v>
   <v>       0.18234374       0.61379905       0.16667492 </v>
   <v>       0.81218995       0.20569571       0.47870046 </v>
   <v>       0.80870027       0.53785765       0.61090992 </v>
   <v>       0.31210141       0.87039889       0.43444821 </v>
   <v>       0.80920248       0.03822537       0.25615889 </v>
   <v>       0.68361567       0.95183156       0.34494451 </v>
   <v>       0.93123655       0.11457110       0.16724578 </v>
   <v>       0.06157945       0.87126111       0.52129809 </v>
   <v>       0.55885044       0.53834553       0.25605206 </v>
   <v>       0.68472393       0.79537445       0.87542785 </v>
   <v>       0.55603068       0.36567945       0.16676882 </v>
   <v>       0.43986740       0.79081680       0.74404639 </v>
   <v>       0.81151632       0.70660091       0.56548286 </v>
   <v>       0.56001990       0.87218291       0.78827848 </v>
   <v>       0.68649558       0.12145879       0.52134601 </v>
   <v>       0.81650077       0.37488706       0.65489077 </v>
   <v>       0.94146931       0.46275651       0.83353157 </v>
   <v>       0.05999247       0.20815882       0.69959998 </v>
   <v>       0.43501069       0.95793347       0.69954577 </v>
   <v>       0.31695658       0.21179942       0.83326914 </v>
   <v>       0.44149694       0.62477921       0.65484411 </v>
   <v>       0.30875821       0.53800607       0.61089856 </v>
   <v>       0.93659872       0.45658425       0.56559184 </v>
   <v>       0.69005353       0.79100245       0.74404123 </v>
   <v>       0.93363875       0.78835572       0.12468635 </v>
   <v>       0.69143099       0.78784695       0.38904738 </v>
   <v>       0.94060013       0.79009834       0.74414507 </v>
   <v>       0.05878327       0.20282877       0.34495044 </v>
   <v>       0.68353210       0.45241131       0.34506930 </v>
   <v>       0.43517739       0.12122221       0.78862954 </v>
   <v>       0.06476046       0.20514573       0.21163469 </v>
   <v>       0.05506416       0.36578525       0.16682559 </v>
   <v>       0.93366588       0.78884520       0.25594452 </v>
   <v>       0.56058773       0.20777505       0.69962917 </v>
   <v>       0.68489843       0.95810944       0.69962669 </v>
   <v>       0.81002710       0.87215033       0.78820446 </v>
   <v>       0.43713377       0.95719694       0.56532992 </v>
   <v>       0.81044115       0.37327563       0.78820429 </v>
   <v>       0.68400006       0.28950864       0.25610926 </v>
   <v>       0.18750762       0.45714234       0.56544214 </v>
   <v>       0.05571151       0.86561183       0.16679608 </v>
   <v>       0.18408731       0.28825162       0.61097022 </v>
   <v>       0.06222753       0.20717903       0.56534810 </v>
   <v>       0.31048368       0.20791036       0.69964578 </v>
   <v>       0.56358540       0.53906290       0.87567510 </v>
   <v>       0.06180228       0.70623993       0.56551352 </v>
   <v>       0.68490008       0.62159169       0.78818049 </v>
   <v>       0.31622873       0.53774394       0.38908237 </v>
   <v>       0.18672534       0.62121247       0.52136522 </v>
   <v>       0.56210857       0.87053035       0.43451478 </v>
   <v>       0.43696498       0.45717510       0.56543408 </v>
   <v>       0.43986298       0.29093823       0.74402173 </v>
   <v>       0.81916633       0.87478366       0.30042558 </v>
   <v>       0.80877569       0.70280891       0.34498793 </v>
   <v>       0.44154567       0.46231672       0.83314351 </v>
   <v>       0.68740049       0.95556848       0.47867780 </v>
   <v>       0.68498584       0.45805876       0.69960499 </v>
   <v>       0.56177608       0.87191003       0.52139144 </v>
   <v>       0.56652806       0.37490801       0.65489185 </v>
   <v>       0.81635705       0.87483178       0.65496251 </v>
   <v>       0.81198237       0.37174125       0.43426001 </v>
   <v>       0.80887156       0.53810171       0.25625868 </v>
   <v>       0.69192629       0.46144287       0.83306707 </v>
   <v>       0.18617137       0.78852152       0.12428085 </v>
   <v>       0.69132415       0.28729285       0.38907146 </v>
   <v>       0.31647945       0.37444812       0.65482663 </v>
   <v>       0.30884571       0.20236320       0.34492982 </v>
   <v>       0.81568165       0.53999422       0.74394887 </v>
   <v>       0.69150523       0.96182264       0.83313489 </v>
   <v>       0.56612828       0.87466269       0.65495259 </v>
   <v>       0.31157942       0.70717087       0.56544790 </v>
   <v>       0.31241237       0.53170428       0.12428350 </v>
   <v>       0.68959685       0.95590867       0.21194610 </v>
   <v>       0.31147326       0.20657305       0.56547860 </v>
   <v>       0.18722684       0.95579406       0.47868375 </v>
   <v>       0.68754321       0.95714455       0.56550429 </v>
   <v>       0.43363251       0.78839948       0.61080994 </v>
   <v>       0.68256624       0.61216250       0.16670021 </v>
   <v>       0.31908444       0.87447364       0.30030840 </v>
   <v>       0.31217132       0.70577411       0.47863727 </v>
   <v>       0.93376553       0.28785314       0.61091271 </v>
   <v>       0.44450945       0.62486202       0.30050225 </v>
   <v>       0.80668575       0.86418764       0.16725141 </v>
   <v>       0.56630465       0.20338594       0.21182186 </v>
   <v>       0.93304063       0.61289789       0.16685010 </v>
   <v>       0.43722388       0.95575088       0.47860321 </v>
   <v>       0.56016930       0.37190018       0.78834241 </v>
   <v>       0.06137710       0.37206360       0.52136867 </v>
   <v>       0.30683686       0.36450270       0.16686072 </v>
   <v>       0.69491708       0.12422318       0.30038480 </v>
   <v>       0.44269051       0.96191513       0.83310114 </v>
   <v>       0.18470277       0.28761410       0.12452226 </v>
   <v>       0.18418153       0.28957482       0.25605495 </v>
   <v>       0.31269842       0.37043720       0.43446836 </v>
   <v>       0.56232810       0.03280657       0.12459756 </v>
   <v>       0.43348509       0.28782008       0.61089463 </v>
   <v>       0.18346631       0.45241974       0.34499380 </v>
   <v>       0.43450675       0.28747322       0.12457377 </v>
   <v>       0.68398675       0.78914689       0.25612047 </v>
   <v>       0.43664605       0.12160973       0.52137676 </v>
   <v>       0.18843309       0.29454913       0.87574902 </v>
   <v>       0.19148551       0.12504898       0.65489964 </v>
   <v>       0.94147797       0.12474976       0.65488571 </v>
   <v>       0.81624784       0.53750845       0.38911113 </v>
   <v>       0.06632024       0.03793423       0.38909055 </v>
   <v>       0.18307226       0.11225543       0.16659000 </v>
   <v>       0.05860207       0.53776894       0.61091256 </v>
   <v>       0.93429812       0.28948713       0.25608639 </v>
   <v>       0.55886394       0.53794212       0.61087921 </v>
   <v>       0.93660982       0.95723587       0.56547267 </v>
   <v>       0.69414696       0.62484283       0.30035855 </v>
   <v>       0.93735571       0.62030177       0.43446054 </v>
   <v>       0.93407030       0.62270529       0.78798214 </v>
   <v>       0.56036841       0.70760374       0.69956106 </v>
   <v>       0.06588970       0.71515824       0.83364059 </v>
   <v>       0.94465816       0.12382749       0.30032516 </v>
   <v>       0.93372090       0.78746225       0.61089649 </v>
   <v>       0.43369122       0.78952010       0.25611233 </v>
   <v>       0.31068263       0.37211815       0.78823321 </v>
   <v>       0.43988129       0.45583954       0.21187007 </v>
   <v>       0.18667210       0.12153387       0.52138509 </v>
   <v>       0.81035203       0.70788583       0.69955177 </v>
   <v>       0.05874172       0.03760991       0.61086209 </v>
   <v>       0.56604504       0.21299822       0.83300754 </v>
   <v>       0.31168174       0.87159133       0.52137585 </v>
   <v>       0.68628268       0.28770822       0.12434826 </v>
   <v>       0.18972520       0.95648732       0.21206527 </v>
   <v>       0.68360295       0.28807797       0.61095892 </v>
   <v>       0.19130541       0.78760451       0.38908759 </v>
   <v>       0.93522604       0.12269875       0.78831247 </v>
   <v>       0.43692663       0.79544188       0.87568055 </v>
   <v>       0.81550777       0.04028082       0.74387894 </v>
   <v>       0.93510536       0.45802607       0.69960577 </v>
   <v>       0.19144673       0.62493885       0.65494480 </v>
   <v>       0.31020530       0.70742314       0.69965071 </v>
   <v>       0.93446998       0.28743647       0.12443988 </v>
   <v>       0.43735689       0.45576498       0.47858191 </v>
   <v>       0.06221963       0.70574660       0.47858002 </v>
   <v>       0.93721625       0.12001767       0.43462261 </v>
   <v>       0.44422559       0.12440284       0.30047301 </v>
   <v>       0.18751200       0.12000559       0.43445023 </v>
   <v>       0.56346394       0.03895928       0.87580014 </v>
   <v>       0.18704448       0.95725439       0.56539153 </v>
   <v>       0.68427421       0.78844893       0.12476610 </v>
   <v>       0.55847826       0.70225735       0.34494644 </v>
   <v>       0.31647760       0.03757195       0.38906803 </v>
   <v>       0.68246127       0.11437892       0.16722813 </v>
   <v>       0.81508149       0.20489150       0.21164228 </v>
   <v>       0.05986114       0.53837222       0.25596829 </v>
   <v>       0.56223352       0.70573727       0.47863973 </v>
   <v>       0.43460772       0.78768099       0.12451517 </v>
   <v>       0.56923693       0.37406846       0.30038610 </v>
   <v>       0.43371970       0.95269090       0.34506677 </v>
   <v>       0.18524032       0.95803851       0.69967052 </v>
   <v>       0.43180050       0.61388094       0.16666424 </v>
   <v>       0.94009433       0.45578640       0.21199180 </v>
   <v>       0.06180662       0.53120952       0.12431155 </v>
   <v>       0.81174824       0.37191782       0.52135276 </v>
   <v>       0.94443714       0.62426699       0.30019525 </v>
   <v>       0.30915267       0.03820406       0.25591372 </v>
   <v>       0.68379937       0.78785740       0.61084586 </v>
   <v>       0.19173013       0.46255198       0.83316750 </v>
   <v>       0.43213119       0.11254734       0.16670543 </v>
   <v>       0.31128496       0.37155462       0.52135885 </v>
   <v>       0.43406582       0.62132351       0.78852156 </v>
   <v>       0.05903060       0.03853306       0.25611327 </v>
   <v>       0.56223639       0.70710588       0.56547611 </v>
   <v>       0.94007136       0.28946980       0.74399158 </v>
   <v>       0.68350248       0.12192432       0.78832766 </v>
   <v>       0.18960938       0.45511349       0.21164439 </v>
   <v>       0.94124357       0.78759895       0.38905548 </v>
   <v>       0.68629994       0.29744072       0.87573962 </v>
   <v>       0.55575784       0.86501244       0.16667015 </v>
   <v>       0.43548188       0.45785398       0.69962449 </v>
   <v>       0.93366712       0.95163043       0.34496459 </v>
   <v>       0.68653963       0.62102790       0.52128886 </v>
   <v>       0.06654047       0.87478413       0.65488985 </v>
   <v>       0.06009893       0.87295142       0.78819677 </v>
   <v>       0.06637119       0.37490653       0.65493144 </v>
   <v>       0.68716006       0.45562142       0.47862339 </v>
   <v>       0.18419424       0.78956345       0.25599996 </v>
   <v>       0.43704463       0.12055947       0.43438746 </v>
   <v>       0.81351945       0.03173467       0.12435242 </v>
   <v>       0.93648824       0.62136090       0.52140833 </v>
   <v>       0.44155413       0.12482425       0.65486300 </v>
   <v>       0.81272063       0.53067011       0.12433754 </v>
   <v>       0.43366850       0.45268749       0.34509479 </v>
   <v>       0.80884259       0.20263968       0.34507540 </v>
   <v>       0.30892365       0.70225443       0.34491918 </v>
   <v>       0.69155322       0.12503214       0.65485974 </v>
   <v>       0.56932810       0.87465544       0.30053372 </v>
   <v>       0.06554723       0.53991632       0.74400504 </v>
   <v>       0.94055554       0.95546352       0.21164351 </v>
   <v>       0.81664802       0.70532067       0.21175455 </v>
   <v>       0.06909658       0.87472380       0.30045293 </v>
   <v>       0.19443756       0.12425638       0.30049963 </v>
   <v>       0.05850000       0.70205450       0.34500152 </v>
   <v>       0.80877778       0.03789052       0.61086876 </v>
   <v>       0.06251277       0.37096500       0.43438047 </v>
   <v>       0.55888892       0.20270663       0.34495339 </v>
   <v>       0.81905367       0.37480350       0.30042027 </v>
   <v>       0.55947859       0.03885899       0.25590900 </v>
   <v>       0.56654827       0.53767159       0.38909016 </v>
   <v>       0.06246426       0.20596933       0.47863861 </v>
   <v>       0.31133006       0.87140683       0.78805762 </v>
   <v>       0.93520641       0.95832693       0.69961640 </v>
   <v>       0.06902486       0.37493235       0.30043705 </v>
   <v>       0.69140119       0.62494949       0.65494623 </v>
   <v>       0.68689211       0.45714476       0.56539997 </v>
   <v>       0.43988793       0.95681180       0.21226004 </v>
   <v>       0.31223033       0.20572718       0.47865791 </v>
   <v>       0.81334394       0.53853509       0.87561143 </v>
   <v>       0.68788396       0.62038936       0.43443293 </v>
   <v>       0.81049632       0.20792219       0.69965870 </v>
   <v>       0.81226170       0.70568823       0.47865053 </v>
   <v>       0.81174342       0.87094859       0.43431986 </v>
   <v>       0.93718505       0.95518064       0.47872606 </v>
   <v>       0.56214185       0.20576375       0.47863109 </v>
   <v>       0.18689331       0.62022693       0.43444162 </v>
   <v>       0.31524351       0.04076384       0.74389897 </v>
   <v>       0.94151592       0.62517791       0.65487476 </v>
   <v>       0.56635129       0.71268740       0.83307231 </v>
   <v>       0.31945063       0.37383568       0.30046921 </v>
   <v>       0.56512299       0.70463825       0.21175462 </v>
   <v>       0.18730676       0.45584992       0.47861527 </v>
   <v>       0.31453316       0.03996241       0.87554971 </v>
   <v>       0.18478618       0.45819481       0.69963048 </v>
   <v>       0.56163532       0.37140080       0.52139867 </v>
   <v>       0.19129092       0.28788896       0.38906149 </v>
   <v>       0.31560834       0.20581245       0.21167965 </v>
   <v>       0.06678082       0.70539575       0.21170213 </v>
   <v>       0.56203332       0.37080088       0.43445684 </v>
   <v>       0.43657154       0.62169676       0.52128370 </v>
   <v>       0.81688834       0.71427302       0.83303310 </v>
   <v>       0.06088686       0.37317552       0.78812895 </v>
   <v>       0.43663263       0.29637875       0.87602204 </v>
   <v>       0.31137110       0.03164830       0.12441588 </v>
   <v>       0.68761725       0.11989790       0.43439447 </v>
   <v>       0.18379630       0.95262882       0.34511713 </v>
   <v>       0.06645070       0.21349447       0.83363674 </v>
   <v>       0.55874050       0.03787448       0.61094585 </v>
   <v>       0.68938676       0.45618991       0.21209839 </v>
   <v>       0.19033507       0.79035492       0.74399663 </v>
   <v>       0.19424449       0.62444488       0.30042383 </v>
   <v>       0.44132087       0.78749412       0.38908149 </v>
   <v>       0.43372911       0.28958098       0.25611590 </v>
   <v>       0.06469283       0.53858819       0.87553801 </v>
   <v>       0.56605608       0.04040660       0.74392633 </v>
   <v>       0.18759749       0.79516575       0.87566459 </v>
   <v>       0.93729114       0.45567026       0.47865532 </v>
   <v>       0.56568918       0.54059594       0.74385912 </v>
   <v>       0.81128016       0.20695266       0.56537756 </v>
   <v>       0.18549808       0.62084055       0.78808042 </v>
   <v>       0.06633582       0.53746124       0.38914883 </v>
   <v>       0.06053213       0.70773855       0.69954541 </v>
   <v>       0.30856353       0.53861921       0.25570129 </v>
   <v>       0.31511618       0.70390941       0.21242277 </v>
   <v>       0.30538882       0.86523462       0.16609427 </v>
   <v>       0.43703460       0.62044522       0.43439978 </v>
   <v>       0.81770765       0.03844171       0.38913670 </v>
   <v>       0.93522810       0.29604640       0.87527373 </v>
   <v>       0.93764155       0.79359907       0.87518669 </v>
   <v>       0.06559133       0.03755306       0.87534698 </v>
   <v>       0.56289871       0.52997182       0.12485676 </v>
   <v>       0.80509723       0.36633862       0.16646889 </v>
   <v>       0.06254318       0.87080454       0.43437348 </v>
   <v>       0.93647404       0.12125156       0.52142487 </v>
   <v>       0.30815751       0.03822785       0.61108748 </v>
   <v>       0.31557754       0.54027312       0.74404753 </v>
  </varray>
 </structure>
 <calculation>
  <scstep>
   <time name="dav">   54.19   54.20</time>
   <time name="total">   54.33   54.38</time>
   <energy>
    <i name="alphaZ">  16293.21160653 </i>
    <i name="ewald"> 734887.90320612 </i>
    <i name="hartreedc">-925387.49854683 </i>
    <i name="XCdc">  -6511.90711396 </i>
    <i name="pawpsdc"> 162273.92519768 </i>
    <i name="pawaedc">-159623.75899949 </i>
    <i name="eentropy">     -1.07459065 </i>
    <i name="bandstr">  38483.99141883 </i>
    <i name="atom"> 168671.76673737 </i>
    <i name="e_fr_energy">  29086.55891559 </i>
    <i name="e_wo_entrp">  29087.63350624 </i>
    <i name="e_0_energy">  29087.09621092 </i>
   </energy>
  </scstep>
  <scstep>
   <time name="dav">   53.68   53.71</time>
   <time name="total">   53.68   53.72</time>
   <energy>
    <i name="e_fr_energy">   1190.33066515 </i>
    <i name="e_wo_entrp">   1191.81280115 </i>
    <i name="e_0_energy">   1191.07173315 </i>
   </energy>
  </scstep>
  <scstep>
   <time name="dav">   70.57   70.60</time>
   <time name="total">   70.57   70.61</time>
   <energy>
    <i name="e_fr_energy">  -1949.00260822 </i>
    <i name="e_wo_entrp">  -1945.44687946 </i>
    <i name="e_0_energy">  -1947.22474384 </i>
   </energy>
  </scstep>
  <scstep>
   <time name="dav">   88.40   88.44</time>
   <time name="total">   88.41   88.44</time>
   <energy>
    <i name="e_fr_energy">  -2618.68238460 </i>
    <i name="e_wo_entrp">  -2615.16419068 </i>
    <i name="e_0_energy">  -2616.92328764 </i>
   </energy>
  </scstep>
  <scstep>
   <time name="dav">   84.28   84.32</time>
   <time name="total">   86.36   86.40</time>
   <energy>
    <i name="e_fr_energy">  -2738.51622662 </i>
    <i name="e_wo_entrp">  -2734.87335031 </i>
    <i name="e_0_energy">  -2736.69478847 </i>
   </energy>
  </scstep>
  <scstep>
   <time name="diag">    8.21    8.22</time>
   <time name="diis">   37.41   37.41</time>
   <time name="orth">    2.27    2.27</time>
   <time name="total">   50.02   50.06</time>
   <energy>
    <i name="e_fr_energy">  -5330.79656789 </i>
    <i name="e_wo_entrp">  -5327.66536917 </i>
    <i name="e_0_energy">  -5329.23096853 </i>
   </energy>
  </scstep>
  <scstep>
   <time name="diag">    8.30    8.30</time>
   <time name="diis">   22.22   22.22</time>
   <time name="orth">    2.26    2.26</time>
   <time name="total">   34.90   34.93</time>
[...]
       <r>     5.8530     0.0000  2772.0000 </r>
       <r>     5.8958     0.0000  2772.0000 </r>
       <r>     5.9385     0.0000  2772.0000 </r>
       <r>     5.9813     0.0000  2772.0000 </r>
       <r>     6.0240     0.0000  2772.0000 </r>
       <r>     6.0668     0.0000  2772.0000 </r>
       <r>     6.1095     0.0000  2772.0000 </r>
       <r>     6.1523     0.0000  2772.0000 </r>
       <r>     6.1950     0.0000  2772.0000 </r>
       <r>     6.2378     0.0000  2772.0000 </r>
       <r>     6.2805     0.0000  2772.0000 </r>
       <r>     6.3233     0.0000  2772.0000 </r>
       <r>     6.3660     0.0000  2772.0000 </r>
       <r>     6.4088     0.0000  2772.0000 </r>
       <r>     6.4515     0.0000  2772.0000 </r>
       <r>     6.4943     0.0000  2772.0000 </r>
       <r>     6.5370     0.0000  2772.0000 </r>
       <r>     6.5798     0.0000  2772.0000 </r>
       <r>     6.6225     0.0000  2772.0000 </r>
       <r>     6.6653     0.0000  2772.0000 </r>
       <r>     6.7080     0.0000  2772.0000 </r>
       <r>     6.7508     0.0000  2772.0000 </r>
       <r>     6.7935     0.0000  2772.0000 </r>
      </set>
     </set>
    </array>
   </total>
  </dos>
 </calculation>
 <structure name="finalpos" >
  <crystal>
   <varray name="basis" >
    <v>       9.72667804       0.00000000       0.00000000 </v>
    <v>       0.00000000       8.42355028       0.00000000 </v>
    <v>       0.00000000       0.00000000      45.00000000 </v>
   </varray>
   <i name="volume">   3686.99226691 </i>
   <varray name="rec_basis" >
    <v>       0.10281002       0.00000000       0.00000000 </v>
    <v>       0.00000000       0.11871479       0.00000000 </v>
    <v>       0.00000000       0.00000000       0.02222222 </v>
   </varray>
  </crystal>
  <varray name="positions" >
   <v>       0.06071514       0.03357802       0.12463916 </v>
   <v>       0.31379726       0.87410773       0.65481155 </v>
   <v>       0.18721260       0.12342928       0.78820337 </v>
   <v>       0.43953006       0.28811151       0.38947172 </v>
   <v>       0.31477254       0.71020284       0.83315780 </v>
   <v>       0.81590461       0.21126315       0.83341616 </v>
   <v>       0.18911128       0.96062567       0.83346229 </v>
   <v>       0.56163950       0.20598204       0.56566849 </v>
   <v>       0.06326252       0.04040382       0.74394962 </v>
   <v>       0.81124931       0.87215502       0.52174723 </v>
   <v>       0.18854755       0.29076403       0.74401281 </v>
   <v>       0.93714937       0.45422806       0.34515101 </v>
   <v>       0.93941524       0.28749688       0.38936449 </v>
   <v>       0.81261584       0.04360805       0.87528526 </v>
   <v>       0.18581054       0.78917366       0.61041963 </v>
   <v>       0.56415635       0.03782031       0.38944671 </v>
   <v>       0.94123272       0.96127263       0.83350858 </v>
   <v>       0.31373907       0.54319785       0.87535177 </v>
   <v>       0.68879832       0.29043410       0.74395539 </v>
   <v>       0.18459392       0.61740460       0.16666918 </v>
   <v>       0.81194459       0.20517057       0.47844325 </v>
   <v>       0.81079598       0.53900676       0.61046860 </v>
   <v>       0.31278257       0.87119619       0.43431752 </v>
   <v>       0.81173978       0.03821075       0.25609378 </v>
   <v>       0.68701673       0.95421102       0.34507410 </v>
   <v>       0.93335881       0.11683819       0.16683705 </v>
   <v>       0.06212696       0.87233315       0.52156238 </v>
   <v>       0.56165583       0.53845769       0.25604290 </v>
   <v>       0.68709830       0.79319630       0.87531861 </v>
   <v>       0.55873691       0.36714956       0.16654330 </v>
   <v>       0.43881057       0.79110905       0.74402831 </v>
   <v>       0.81177865       0.70619843       0.56566686 </v>
   <v>       0.56209752       0.87331542       0.78817732 </v>
   <v>       0.68654767       0.12201795       0.52164942 </v>
   <v>       0.81354540       0.37406307       0.65485225 </v>
   <v>       0.94063860       0.46108690       0.83343792 </v>
   <v>       0.06158986       0.20732914       0.69964824 </v>
   <v>       0.43700618       0.95721794       0.69954118 </v>
   <v>       0.31450481       0.20976758       0.83355366 </v>
   <v>       0.43874732       0.62396918       0.65480819 </v>
   <v>       0.31107868       0.53942254       0.61043356 </v>
   <v>       0.93673586       0.45572118       0.56569832 </v>
   <v>       0.68893925       0.79129245       0.74396982 </v>
   <v>       0.93381836       0.78481516       0.12492572 </v>
   <v>       0.68933619       0.78768945       0.38939234 </v>
   <v>       0.93878578       0.79089311       0.74398068 </v>
   <v>       0.06223401       0.20430944       0.34506935 </v>
   <v>       0.68744809       0.45395979       0.34507616 </v>
   <v>       0.43672989       0.12339433       0.78835663 </v>
   <v>       0.06278743       0.20423181       0.21168405 </v>
   <v>       0.05758984       0.36687360       0.16658542 </v>
   <v>       0.93637288       0.78847971       0.25601977 </v>
   <v>       0.56213542       0.20735337       0.69961809 </v>
   <v>       0.68700224       0.95709798       0.69960172 </v>
   <v>       0.81157700       0.87383593       0.78807587 </v>
   <v>       0.43697371       0.95615771       0.56562862 </v>
   <v>       0.81197275       0.37375946       0.78816059 </v>
   <v>       0.68672935       0.28812092       0.25616034 </v>
   <v>       0.18655110       0.45611029       0.56564263 </v>
   <v>       0.05898403       0.86739795       0.16659150 </v>
   <v>       0.18605731       0.28937616       0.61050997 </v>
   <v>       0.06180250       0.20595236       0.56562001 </v>
   <v>       0.31207173       0.20728462       0.69961767 </v>
   <v>       0.56439632       0.54362530       0.87522044 </v>
   <v>       0.06156582       0.70612536       0.56561918 </v>
   <v>       0.68659784       0.62378603       0.78811825 </v>
   <v>       0.31430111       0.53797289       0.38942538 </v>
   <v>       0.18699992       0.62246437       0.52166745 </v>
   <v>       0.56276236       0.87128280       0.43427458 </v>
   <v>       0.43688126       0.45615453       0.56567525 </v>
   <v>       0.43889093       0.29123739       0.74398992 </v>
   <v>       0.81525418       0.87304507       0.30036944 </v>
   <v>       0.81208045       0.70370996       0.34513828 </v>
   <v>       0.44015118       0.45992748       0.83342136 </v>
   <v>       0.68742330       0.95484350       0.47842776 </v>
   <v>       0.68691773       0.45735664       0.69957026 </v>
   <v>       0.56195056       0.87238094       0.52159064 </v>
   <v>       0.56411554       0.37392046       0.65475196 </v>
   <v>       0.81360869       0.87407380       0.65483002 </v>
   <v>       0.81206041       0.37065977       0.43417505 </v>
   <v>       0.81156043       0.53790388       0.25617044 </v>
   <v>       0.69052428       0.46039188       0.83336094 </v>
   <v>       0.18514836       0.78458311       0.12442682 </v>
   <v>       0.68925555       0.28758914       0.38940055 </v>
   <v>       0.31356805       0.37399488       0.65474073 </v>
   <v>       0.31224931       0.20378124       0.34520228 </v>
   <v>       0.81387902       0.54071461       0.74388605 </v>
   <v>       0.69033206       0.96057343       0.83344113 </v>
   <v>       0.56359079       0.87408365       0.65481872 </v>
   <v>       0.31176547       0.70639245       0.56565610 </v>
   <v>       0.31021148       0.53455304       0.12457279 </v>
   <v>       0.68810681       0.95440028       0.21188246 </v>
   <v>       0.31183072       0.20641694       0.56560289 </v>
   <v>       0.18720973       0.95491251       0.47839486 </v>
   <v>       0.68710667       0.95602058       0.56573098 </v>
   <v>       0.43626309       0.78928349       0.61039139 </v>
   <v>       0.68311145       0.61560593       0.16679559 </v>
   <v>       0.31530570       0.87273233       0.30042628 </v>
   <v>       0.31197612       0.70504697       0.47828871 </v>
   <v>       0.93588746       0.28926709       0.61042994 </v>
   <v>       0.44032927       0.62275490       0.30056059 </v>
   <v>       0.80829099       0.86622067       0.16688209 </v>
   <v>       0.56393117       0.20357699       0.21200030 </v>
   <v>       0.93440394       0.61616508       0.16689799 </v>
   <v>       0.43718573       0.95469839       0.47832126 </v>
   <v>       0.56192346       0.37322646       0.78826911 </v>
   <v>       0.06171470       0.37283852       0.52160342 </v>
   <v>       0.30854269       0.36650253       0.16653065 </v>
   <v>       0.69033582       0.12290580       0.30050370 </v>
   <v>       0.44055328       0.95991652       0.83338282 </v>
   <v>       0.18491771       0.28394314       0.12478062 </v>
   <v>       0.18667836       0.28769427       0.25612020 </v>
   <v>       0.31274619       0.37110826       0.43429036 </v>
   <v>       0.56089208       0.03376715       0.12467770 </v>
   <v>       0.43603652       0.28907560       0.61039150 </v>
   <v>       0.18710107       0.45401299       0.34510830 </v>
   <v>       0.43365018       0.28352360       0.12481395 </v>
   <v>       0.68659546       0.78830847       0.25618126 </v>
   <v>       0.43688693       0.12267858       0.52153294 </v>
   <v>       0.18964033       0.29224841       0.87556172 </v>
   <v>       0.18859951       0.12396711       0.65490847 </v>
   <v>       0.93843572       0.12382558       0.65485633 </v>
   <v>       0.81412958       0.53770376       0.38939853 </v>
   <v>       0.06454376       0.03797156       0.38939873 </v>
   <v>       0.18361409       0.11578560       0.16679887 </v>
   <v>       0.06029905       0.53915649       0.61042842 </v>
   <v>       0.93655609       0.28799379       0.25608405 </v>
   <v>       0.56144216       0.53936065       0.61039607 </v>
   <v>       0.93681285       0.95558939       0.56564513 </v>
   <v>       0.69032518       0.62333980       0.30056647 </v>
   <v>       0.93743961       0.62121519       0.43427290 </v>
   <v>       0.93667901       0.62496093       0.78812210 </v>
   <v>       0.56163519       0.70710161       0.69952697 </v>
   <v>       0.06435070       0.71204926       0.83345945 </v>
   <v>       0.94020745       0.12306180       0.30046283 </v>
   <v>       0.93572325       0.78863666       0.61048529 </v>
   <v>       0.43704027       0.78851298       0.25625274 </v>
   <v>       0.31181826       0.37287213       0.78821133 </v>
   <v>       0.43889697       0.45421039       0.21185769 </v>
   <v>       0.18692552       0.12241238       0.52159235 </v>
   <v>       0.81183239       0.70768180       0.69958752 </v>
   <v>       0.06034299       0.03922745       0.61035461 </v>
   <v>       0.56455449       0.21007730       0.83323323 </v>
   <v>       0.31184527       0.87232170       0.52162972 </v>
   <v>       0.68596063       0.28315005       0.12457894 </v>
   <v>       0.18794795       0.95536938       0.21190551 </v>
   <v>       0.68569288       0.28957060       0.61056001 </v>
   <v>       0.18936510       0.78715702       0.38942411 </v>
   <v>       0.93686715       0.12467444       0.78819028 </v>
   <v>       0.43783270       0.79244874       0.87533048 </v>
   <v>       0.81382387       0.04067344       0.74388569 </v>
   <v>       0.93678073       0.45742177       0.69956678 </v>
   <v>       0.18872787       0.62393108       0.65484215 </v>
   <v>       0.31196453       0.70696214       0.69961736 </v>
   <v>       0.93389869       0.28328277       0.12458721 </v>
   <v>       0.43725480       0.45457205       0.47834397 </v>
   <v>       0.06224003       0.70442917       0.47836769 </v>
   <v>       0.93745941       0.12107903       0.43455926 </v>
   <v>       0.44059799       0.12255641       0.30052351 </v>
   <v>       0.18733904       0.12109258       0.43417820 </v>
   <v>       0.56445303       0.04335952       0.87539484 </v>
   <v>       0.18631785       0.95617991       0.56566002 </v>
   <v>       0.68519961       0.78538565       0.12498054 </v>
   <v>       0.56231322       0.70421087       0.34521005 </v>
   <v>       0.31446552       0.03780167       0.38941702 </v>
   <v>       0.68470723       0.11647201       0.16693921 </v>
   <v>       0.81351299       0.20371344       0.21184320 </v>
   <v>       0.06141300       0.53838374       0.25600628 </v>
   <v>       0.56244228       0.70490471       0.47834510 </v>
   <v>       0.43431298       0.78507036       0.12451217 </v>
   <v>       0.56498106       0.37284650       0.30043409 </v>
   <v>       0.43706807       0.95409466       0.34508918 </v>
   <v>       0.18680090       0.95739581       0.69964834 </v>
   <v>       0.43394793       0.61662271       0.16674032 </v>
   <v>       0.93832497       0.45460211       0.21201845 </v>
   <v>       0.06034414       0.53324548       0.12463246 </v>
   <v>       0.81174466       0.37267276       0.52162204 </v>
   <v>       0.94051125       0.62358504       0.30045956 </v>
   <v>       0.31185803       0.03826648       0.25607596 </v>
   <v>       0.68594617       0.78875329       0.61043663 </v>
   <v>       0.18995364       0.46070936       0.83349418 </v>
   <v>       0.43457276       0.11546604       0.16689680 </v>
   <v>       0.31165291       0.37267793       0.52157105 </v>
   <v>       0.43696776       0.62358382       0.78830815 </v>
   <v>       0.06118538       0.03833748       0.25607207 </v>
   <v>       0.56192113       0.70621732       0.56565118 </v>
   <v>       0.93884832       0.29011621       0.74393419 </v>
   <v>       0.68666018       0.12377278       0.78807876 </v>
   <v>       0.18746791       0.45460487       0.21178450 </v>
   <v>       0.93929355       0.78746786       0.38942704 </v>
   <v>       0.68737234       0.29260337       0.87546863 </v>
   <v>       0.55753631       0.86681308       0.16668698 </v>
   <v>       0.43702715       0.45725411       0.69953973 </v>
   <v>       0.93740692       0.95408281       0.34510580 </v>
   <v>       0.68660183       0.62238385       0.52161577 </v>
   <v>       0.06360431       0.87382745       0.65487443 </v>
   <v>       0.06215586       0.87371174       0.78826783 </v>
   <v>       0.06332276       0.37403467       0.65483750 </v>
   <v>       0.68707892       0.45471254       0.47825966 </v>
   <v>       0.18653304       0.78866686       0.25617798 </v>
   <v>       0.43760201       0.12144738       0.43432186 </v>
   <v>       0.81082756       0.03440176       0.12478159 </v>
   <v>       0.93649868       0.62232829       0.52161994 </v>
   <v>       0.43919118       0.12394550       0.65487212 </v>
   <v>       0.81174563       0.53363926       0.12443737 </v>
   <v>       0.43723662       0.45403937       0.34513940 </v>
   <v>       0.81222772       0.20383759       0.34516695 </v>
   <v>       0.31250881       0.70393777       0.34506915 </v>
   <v>       0.68875117       0.12386935       0.65484315 </v>
   <v>       0.56547008       0.87284508       0.30049693 </v>
   <v>       0.06336859       0.54045653       0.74391247 </v>
   <v>       0.93851238       0.95490866       0.21183078 </v>
   <v>       0.81378798       0.70424548       0.21189887 </v>
   <v>       0.06516658       0.87287854       0.30060229 </v>
   <v>       0.19033310       0.12274417       0.30046132 </v>
   <v>       0.06230183       0.70403346       0.34519283 </v>
   <v>       0.81096331       0.03898413       0.61041556 </v>
   <v>       0.06268485       0.37082085       0.43419425 </v>
   <v>       0.56246237       0.20379969       0.34518900 </v>
   <v>       0.81526650       0.37330290       0.30040178 </v>
   <v>       0.56212791       0.03862364       0.25613093 </v>
   <v>       0.56402033       0.53771786       0.38944258 </v>
   <v>       0.06252641       0.20486318       0.47843952 </v>
   <v>       0.31221993       0.87283335       0.78805828 </v>
   <v>       0.93678868       0.95739241       0.69954353 </v>
   <v>       0.06566194       0.37283178       0.30049567 </v>
   <v>       0.68861471       0.62423640       0.65485109 </v>
   <v>       0.68686000       0.45602878       0.56567586 </v>
   <v>       0.43845066       0.95506830       0.21202137 </v>
   <v>       0.31211409       0.20468089       0.47837456 </v>
   <v>       0.81339765       0.54310961       0.87525541 </v>
   <v>       0.68790343       0.62087374       0.43426371 </v>
   <v>       0.81194123       0.20711126       0.69957999 </v>
   <v>       0.81235199       0.70478315       0.47836776 </v>
   <v>       0.81192746       0.87104402       0.43429357 </v>
   <v>       0.93716169       0.95438405       0.47845977 </v>
   <v>       0.56239668       0.20458385       0.47838277 </v>
   <v>       0.18731931       0.62089396       0.43427752 </v>
   <v>       0.31347013       0.04103255       0.74397298 </v>
   <v>       0.93857167       0.62435684       0.65482088 </v>
   <v>       0.56481633       0.71032628       0.83321680 </v>
   <v>       0.31528274       0.37246293       0.30051857 </v>
   <v>       0.56369754       0.70434163       0.21181591 </v>
   <v>       0.18737980       0.45470573       0.47831023 </v>
   <v>       0.31519286       0.04447152       0.87536884 </v>
   <v>       0.18666571       0.45724550       0.69955264 </v>
   <v>       0.56219279       0.37262870       0.52159135 </v>
   <v>       0.18892719       0.28798237       0.38943833 </v>
   <v>       0.31354910       0.20435750       0.21175398 </v>
   <v>       0.06344677       0.70428341       0.21172811 </v>
   <v>       0.56253202       0.37107061       0.43430367 </v>
   <v>       0.43690034       0.62261562       0.52150731 </v>
   <v>       0.81525779       0.71132300       0.83312283 </v>
   <v>       0.06229901       0.37429472       0.78814845 </v>
   <v>       0.43767377       0.29255887       0.87554860 </v>
   <v>       0.31082835       0.03377482       0.12434643 </v>
   <v>       0.68786065       0.12144305       0.43425329 </v>
   <v>       0.18724391       0.95378858       0.34515915 </v>
   <v>       0.06454761       0.21074962       0.83338545 </v>
   <v>       0.56130955       0.03906892       0.61043743 </v>
   <v>       0.68792237       0.45426583       0.21197466 </v>
   <v>       0.18840202       0.79074000       0.74396816 </v>
   <v>       0.19033519       0.62273360       0.30046685 </v>
   <v>       0.43941620       0.78747318       0.38940983 </v>
   <v>       0.43671123       0.28814674       0.25610168 </v>
   <v>       0.06562317       0.54299519       0.87536981 </v>
   <v>       0.56448356       0.04095304       0.74404144 </v>
   <v>       0.18878209       0.79255763       0.87549320 </v>
   <v>       0.93715703       0.45440879       0.47834431 </v>
   <v>       0.56419378       0.54122493       0.74390820 </v>
   <v>       0.81168152       0.20613447       0.56568528 </v>
   <v>       0.18716920       0.62394725       0.78814683 </v>
   <v>       0.06493665       0.53775926       0.38948135 </v>
   <v>       0.06203300       0.70756216       0.69957186 </v>
   <v>       0.31133101       0.53800212       0.25606814 </v>
   <v>       0.31377471       0.70431425       0.21209178 </v>
   <v>       0.30742647       0.86679912       0.16610031 </v>
   <v>       0.43732811       0.62060148       0.43427223 </v>
   <v>       0.81512513       0.03757037       0.38934986 </v>
   <v>       0.93677910       0.29329828       0.87534681 </v>
   <v>       0.93784758       0.79077924       0.87524613 </v>
   <v>       0.06579640       0.04237377       0.87517750 </v>
   <v>       0.56182177       0.53320037       0.12494968 </v>
   <v>       0.80753038       0.36678273       0.16608347 </v>
   <v>       0.06239199       0.87128121       0.43415373 </v>
   <v>       0.93676827       0.12269966       0.52153596 </v>
   <v>       0.31070448       0.03873969       0.61056078 </v>
   <v>       0.31387409       0.54111253       0.74405763 </v>
  </varray>
 </structure>
</modeling>
