 vasp.5.4.4.18Apr17-6-g9f103f2a35 (build May 29 2019 08:40:53) complex           
 executed on             LinuxPGI date 2021.11.22  07:08:18
 running on  160 total cores
 distrk:  each k-point on   40 cores,    4 groups
 distr:  one band on NCORES_PER_BAND=   4 cores,   10 groups


--------------------------------------------------------------------------------------------------------


 INCAR:
 POTCAR:    PAW_PBE Fe_GW 31Mar2010               
 POTCAR:    PAW_PBE Mn_GW 31Mar2010               

 ----------------------------------------------------------------------------- 
|                                                                             |
|           W    W    AA    RRRRR   N    N  II  N    N   GGGG   !!!           |
|           W    W   A  A   R    R  NN   N  II  NN   N  G    G  !!!           |
|           W    W  A    A  R    R  N N  N  II  N N  N  G       !!!           |
|           W WW W  AAAAAA  RRRRR   N  N N  II  N  N N  G  GGG   !            |
|           WW  WW  A    A  R   R   N   NN  II  N   NN  G    G                |
|           W    W  A    A  R    R  N    N  II  N    N   GGGG   !!!           |
|                                                                             |
|      For optimal performance we recommend to set                            |
|        NCORE= 4 - approx SQRT( number of cores)                             |
|      NCORE specifies how many cores store one orbital (NPAR=cpu/NCORE).     |
|      This setting can  greatly improve the performance of VASP for DFT.     |
|      The default,   NCORE=1            might be grossly inefficient         |
|      on modern multi-core architectures or massively parallel machines.     |
|      Do your own testing !!!!                                               |
|      Unfortunately you need to use the default for GW and RPA calculations. |
|      (for HF NCORE is supported but not extensively tested yet)             |
|                                                                             |
 ----------------------------------------------------------------------------- 


 ----------------------------------------------------------------------------- 
|                                                                             |
|           W    W    AA    RRRRR   N    N  II  N    N   GGGG   !!!           |
|           W    W   A  A   R    R  NN   N  II  NN   N  G    G  !!!           |
|           W    W  A    A  R    R  N N  N  II  N N  N  G       !!!           |
|           W WW W  AAAAAA  RRRRR   N  N N  II  N  N N  G  GGG   !            |
|           WW  WW  A    A  R   R   N   NN  II  N   NN  G    G                |
|           W    W  A    A  R    R  N    N  II  N    N   GGGG   !!!           |
|                                                                             |
|      You have enabled k-point parallelism (KPAR>1).                         |
|      This developmental code was originally  written by Paul Kent at ORNL,  |
|      and carefully double checked in Vienna.                                |
|      GW as well as linear response parallelism added by Martijn Marsman     |
|      and Georg Kresse.                                                      |
|      Carefully verify results versus KPAR=1.                                |
|      Report problems to Paul Kent and Vienna.                               |
|                                                                             |
 ----------------------------------------------------------------------------- 

 POTCAR:    PAW_PBE Fe_GW 31Mar2010               
   SHA256 =  2f8cc54f0048d2b8131fafa2fd9471601c7f588f91a54eba7a0e33760ec848ea Fe
   COPYR  = (c) Copyright 31Mar2010 Georg Kresse                                
   COPYR  = This file is part of the software VASP. Any use, copying, and all ot
   COPYR  = If you do not have a valid VASP license, you may not use, copy or di
   VRHFIN =Fe:  d7 s1                                                           
   LEXCH  = PE                                                                  
   EATOM  =   594.3155 eV,   43.6810 Ry                                         
                                                                                
   TITEL  = PAW_PBE Fe_GW 31Mar2010                                             
   LULTRA =        F    use ultrasoft PP ?                                      
   IUNSCR =        1    unscreen: 0-lin 1-nonlin 2-no                           
   RPACOR =    1.800    partial core radius                                     
   POMASS =   55.847; ZVAL   =    8.000    mass and valenz                      
   RCORE  =    2.300    outmost cutoff radius                                   
   RWIGS  =    2.300; RWIGS  =    1.217    wigner-seitz radius (au A)           
   ENMAX  =  321.007; ENMIN  =  240.755 eV                                      
   RCLOC  =    1.701    cutoff for local pot                                    
   LCOR   =        T    correct aug charges                                     
   LPAW   =        T    paw PP                                                  
   EAUG   =  753.401                                                            
   DEXC   =    0.000                                                            
   RMAX   =    2.356    core radius for proj-oper                               
   RAUG   =    1.300    factor for augmentation sphere                          
   RDEP   =    2.442    radius for radial grids                                 
   RDEPT  =    1.800    core radius for aug-charge                              
                                                                                
   Atomic configuration                                                         
    9 entries                                                                   
     n  l   j            E        occ.                                          
     1  0  0.50     -6993.8440   2.0000                                         
     2  0  0.50      -814.6047   2.0000                                         
     2  1  1.50      -693.3689   6.0000                                         
     3  0  0.50       -89.4732   2.0000                                         
     3  1  1.50       -55.6373   6.0000                                         
     3  2  2.50        -3.8151   7.0000                                         
     4  0  0.50        -4.2551   1.0000                                         
     4  1  1.50        -3.4015   0.0000                                         
     4  3  2.50        -1.3606   0.0000                                         
   Description                                                                  
     l       E           TYP  RCUT    TYP  RCUT                                 
     2     -3.8151215     23  2.100                                             
     2     -5.1757041     23  2.100                                             
     0     -4.2550988     23  2.300                                             
     0     54.4233040     23  2.300                                             
     1     -2.7211652     23  2.300                                             
     1     68.0291300     23  2.300                                             
     3     27.2116520     23  2.300                                             
  local pseudopotential read in
  partial core-charges read in
  partial kinetic energy density read in
  kinetic energy density of atom read in
  atomic valenz-charges read in
  non local Contribution for L=            2  read in
    real space projection operators read in
  non local Contribution for L=            2  read in
    real space projection operators read in
  non local Contribution for L=            0  read in
    real space projection operators read in
  non local Contribution for L=            0  read in
    real space projection operators read in
  non local Contribution for L=            1  read in
    real space projection operators read in
  non local Contribution for L=            1  read in
    real space projection operators read in
  non local Contribution for L=            3  read in
    real space projection operators read in
    PAW grid and wavefunctions read in
 
   number of l-projection  operators is LMAX  =            7
   number of lm-projection operators is LMMAX =           25
 
 POTCAR:    PAW_PBE Mn_GW 31Mar2010               
   SHA256 =  94ae266cf9f02ce3d66f03781e79a4abde1ab929a3c493eac5d81431ef91e174 Mn
   COPYR  = (c) Copyright 31Mar2010 Georg Kresse                                
   COPYR  = This file is part of the software VASP. Any use, copying, and all ot
   COPYR  = If you do not have a valid VASP license, you may not use, copy or di
   VRHFIN =Mn: d6 s1                                                            
   LEXCH  = PE                                                                  
   EATOM  =   416.7540 eV,   30.6306 Ry                                         
                                                                                
   TITEL  = PAW_PBE Mn_GW 31Mar2010                                             
   LULTRA =        F    use ultrasoft PP ?                                      
   IUNSCR =        1    unscreen: 0-lin 1-nonlin 2-no                           
   RPACOR =    1.800    partial core radius                                     
   POMASS =   54.938; ZVAL   =    7.000    mass and valenz                      
   RCORE  =    2.400    outmost cutoff radius                                   
   RWIGS  =    2.500; RWIGS  =    1.323    wigner-seitz radius (au A)           
   ENMAX  =  278.466; ENMIN  =  208.850 eV                                      
   RCLOC  =    1.725    cutoff for local pot                                    
   LCOR   =        T    correct aug charges                                     
   LPAW   =        T    paw PP                                                  
   EAUG   =  838.435                                                            
   DEXC   =    0.000                                                            
   RMAX   =    2.458    core radius for proj-oper                               
   RAUG   =    1.300    factor for augmentation sphere                          
   RDEP   =    2.492    radius for radial grids                                 
   RDEPT  =    1.800    core radius for aug-charge                              
                                                                                
   Atomic configuration                                                         
    9 entries                                                                   
     n  l   j            E        occ.                                          
     1  0  0.50     -6424.8287   2.0000                                         
     2  0  0.50      -739.1153   2.0000                                         
     2  1  1.50      -625.3949   6.0000                                         
     3  0  0.50       -81.6100   2.0000                                         
     3  1  1.50       -50.4666   6.0000                                         
     3  2  2.50        -3.3745   6.0000                                         
     4  0  0.50        -4.1331   1.0000                                         
     4  1  0.50        -4.0817   0.0000                                         
     4  3  2.50        -1.3606   0.0000                                         
   Description                                                                  
     l       E           TYP  RCUT    TYP  RCUT                                 
     2     -3.3744623     23  2.250                                             
     2     -4.7350449     23  2.250                                             
     0     -4.1331408     23  2.300                                             
     0     54.4233040     23  2.300                                             
     1     -2.7211652     23  2.400                                             
     1     68.0291300     23  2.400                                             
     3     27.2116520     23  2.400                                             
  local pseudopotential read in
  partial core-charges read in
  partial kinetic energy density read in
  kinetic energy density of atom read in
  atomic valenz-charges read in
  non local Contribution for L=            2  read in
    real space projection operators read in
  non local Contribution for L=            2  read in
    real space projection operators read in
  non local Contribution for L=            0  read in
    real space projection operators read in
  non local Contribution for L=            0  read in
    real space projection operators read in
  non local Contribution for L=            1  read in
    real space projection operators read in
  non local Contribution for L=            1  read in
    real space projection operators read in
  non local Contribution for L=            3  read in
    real space projection operators read in
    PAW grid and wavefunctions read in
 
   number of l-projection  operators is LMAX  =            7
   number of lm-projection operators is LMMAX =           25
 
 Optimization of the real space projectors (new method)

 maximal supplied QI-value         = 16.25
 optimisation between [QCUT,QGAM] = [ 11.38, 22.75] = [ 36.24,144.96] Ry 
 Optimized for a Real-space Cutoff    1.47 Angstroem

   l    n(q)    QCUT    max X(q) W(low)/X(q) W(high)/X(q)  e(spline) 
   2      9    11.376   131.327    0.18E-03    0.15E-03    0.32E-06
   2      9    11.376   127.187    0.18E-03    0.15E-03    0.32E-06
   0     10    11.376    16.887    0.65E-04    0.39E-04    0.15E-06
   0     10    11.376     8.663    0.39E-04    0.30E-04    0.12E-06
   1     10    11.376     5.390    0.67E-04    0.60E-04    0.14E-06
   1     10    11.376     3.548    0.40E-04    0.37E-04    0.94E-07
   3      9    11.376     4.269    0.82E-04    0.22E-03    0.14E-06
 Optimization of the real space projectors (new method)

 maximal supplied QI-value         = 15.68
 optimisation between [QCUT,QGAM] = [ 11.45, 22.90] = [ 36.71,146.85] Ry 
 Optimized for a Real-space Cutoff    1.52 Angstroem

   l    n(q)    QCUT    max X(q) W(low)/X(q) W(high)/X(q)  e(spline) 
   2      9    11.450   123.144    0.15E-03    0.12E-04    0.31E-06
   2      9    11.450   117.938    0.15E-03    0.12E-04    0.31E-06
   0     10    11.450    19.684    0.63E-04    0.21E-04    0.22E-06
   0     10    11.450     9.378    0.37E-04    0.16E-04    0.17E-06
   1     10    11.450     5.531    0.25E-04    0.81E-04    0.11E-06
   1     10    11.450     3.850    0.15E-04    0.46E-04    0.77E-07
   3      9    11.450     4.123    0.90E-04    0.12E-03    0.18E-06
  PAW_PBE Fe_GW 31Mar2010               :
 energy of atom  1       EATOM= -594.3155
 kinetic energy error for atom=    0.0081 (will be added to EATOM!!)
  PAW_PBE Mn_GW 31Mar2010               :
 energy of atom  2       EATOM= -416.7540
 kinetic energy error for atom=    0.0025 (will be added to EATOM!!)
 
 
 POSCAR: FeMn_288_15                             
  positions in direct lattice
  velocities in cartesian coordinates
 exchange correlation table for  LEXCH =        8
   RHO(1)=    0.500       N(1)  =     2000
   RHO(2)=  100.500       N(2)  =     4000
 


--------------------------------------------------------------------------------------------------------


 ion  position               nearest neighbor table
   1  0.688  0.791  0.610-  62 2.42  17 2.42 264 2.42  44 2.42 171 2.43 275 2.43 255 2.43   5 2.43
                           124 2.44 261 2.45 142 2.45 265 2.46
   2  0.437  0.461  0.831- 258 2.36 193 2.36 199 2.36  24 2.43 112 2.43 215 2.43 217 2.43 152 2.43
                           102 2.43 150 2.45 179 2.45  25 2.46
   3  0.563  0.703  0.346- 276 2.42 212 2.42 132 2.43 221 2.43 235 2.43 116 2.43 172 2.43  71 2.43
                           283 2.43 119 2.44 227 2.44   6 2.44
   4  0.562  0.207  0.565-  47 2.41  92 2.43 230 2.43 233 2.43 274 2.43 261 2.43 282 2.43  74 2.44
                           275 2.44 196 2.44  61 2.45 162 2.46
   5  0.562  0.541  0.610- 182 2.42  37 2.42  17 2.42 124 2.43 226 2.43  61 2.43 162 2.43 255 2.43
                             1 2.43 265 2.45 230 2.46 233 2.46
   6  0.688  0.619  0.302- 122 2.43 131 2.43  19 2.43  95 2.43 227 2.43  55 2.43 137 2.43 119 2.43
                           118 2.44 116 2.44   3 2.44 221 2.44
   7  0.813  0.377  0.786-   9 2.42 222 2.43 139 2.43 187 2.43 144 2.43  70 2.43 150 2.43  93 2.43
                            87 2.43 217 2.45 125 2.45  27 2.46
   8  0.813  0.537  0.390- 221 2.42  43 2.42 116 2.43  63 2.43 154 2.43  20 2.43 212 2.43 197 2.43
                           276 2.44  94 2.44 158 2.45  82 2.45
   9  0.813  0.543  0.742-   7 2.42 139 2.43  70 2.43 240 2.43  87 2.43  73 2.43 167 2.43 236 2.43
                           222 2.43 194 2.43  32 2.43 254 2.44
  10  0.812  0.372  0.521-  58 2.38 110 2.38  13 2.38 233 2.41 282 2.42  47 2.42  33 2.43 252 2.43
                            92 2.43 103 2.43 280 2.44 277 2.44
  11  0.938  0.961  0.831- 281 2.35 149 2.36 109 2.36 247 2.42 202 2.42  27 2.43 195 2.43  56 2.44
                           136 2.44 144 2.45 173 2.46  51 2.47
  12  0.563  0.044  0.873- 152 2.36 157 2.36  56 2.36 149 2.42  83 2.43  97 2.43 130 2.43 269 2.43
                           258 2.44
  13  0.812  0.205  0.479- 103 2.38  92 2.38  10 2.38  35 2.42  94 2.42  69 2.42 110 2.43  58 2.43
                            38 2.43  67 2.43 223 2.44 153 2.44
  14  0.563  0.709  0.698-  73 2.42 279 2.43 254 2.43 167 2.43 268 2.43 155 2.43 189 2.44 145 2.44
                           194 2.44  62 2.44  17 2.44 182 2.45
  15  0.312  0.537  0.390- 235 2.42  72 2.42 172 2.43  63 2.43 101 2.43 132 2.43 229 2.43 121 2.43
                           276 2.43  54 2.44 135 2.44 133 2.45
  16  0.187  0.122  0.521- 148 2.38 153 2.38 270 2.38 257 2.41 138 2.42  74 2.42 216 2.42 277 2.43
                            26 2.43 274 2.43 103 2.43  89 2.44
  17  0.688  0.625  0.654-   5 2.42   1 2.42 255 2.42 190 2.43  62 2.43 264 2.43  37 2.43 232 2.43
                           254 2.44 182 2.44  14 2.44 167 2.44
  18  0.937  0.283  0.127- 166 2.36 267 2.36 146 2.36  59 2.42 237 2.43  84 2.43 206 2.43  75 2.44
                           263 2.44
  19  0.563  0.535  0.258-  55 2.43 137 2.43 204 2.43 122 2.43   6 2.43  77 2.43 231 2.43 251 2.43
                           183 2.43 175 2.43 227 2.43 234 2.43
  20  0.938  0.287  0.390-  43 2.42 120 2.42 238 2.42 248 2.43 113 2.43 101 2.43   8 2.43  63 2.43
                           197 2.43  69 2.44  94 2.45 188 2.46
  21  0.063  0.868  0.169- 237 2.36  34 2.36 271 2.36 166 2.43 253 2.43  39 2.43  23 2.43 185 2.43
                           246 2.44 249 2.45 151 2.46 239 2.46
  22  0.188  0.623  0.521- 209 2.38 100 2.38 181 2.38  98 2.42 201 2.42  29 2.42 225 2.43  26 2.43
                           277 2.43  89 2.43 280 2.43 216 2.43
  23  0.813  0.867  0.169- 271 2.36  59 2.37 168 2.37 185 2.42 286 2.43  21 2.43 203 2.43 243 2.43
                           166 2.44 165 2.45 163 2.46 239 2.46
  24  0.313  0.711  0.831- 269 2.36 192 2.37 193 2.37 112 2.43 157 2.43 215 2.43   2 2.43 195 2.43
                           202 2.44 228 2.45 179 2.45 244 2.45
  25  0.312  0.377  0.786- 128 2.42 170 2.43 156 2.43 179 2.43 244 2.43  80 2.43  40 2.43 150 2.43
                           187 2.43   2 2.46 102 2.46 215 2.46
  26  0.312  0.873  0.521- 270 2.37 127 2.37 209 2.38 257 2.42  98 2.42 196 2.42 216 2.42  22 2.43
                            16 2.43 225 2.43 274 2.43 211 2.44
  27  0.813  0.210  0.831-  68 2.35 149 2.35 130 2.36  11 2.43 247 2.43  56 2.43 125 2.43 217 2.44
                           152 2.44 144 2.46   7 2.46  93 2.46
  28  0.062  0.541  0.610- 115 2.42 232 2.42  96 2.43 171 2.43  85 2.43 255 2.43  53 2.43 226 2.43
                           178 2.43  29 2.45 252 2.45 201 2.45
  29  0.063  0.707  0.565- 278 2.42 216 2.42  22 2.42 280 2.42  98 2.43 257 2.43 252 2.43 201 2.43
                           142 2.44 171 2.45  28 2.45 178 2.45
  30  0.062  0.868  0.302-  52 2.43  95 2.43 266 2.43 126 2.43  88 2.43 131 2.43 207 2.43 213 2.43
                            66 2.43  41 2.44  78 2.45  31 2.45
  31  0.187  0.953  0.346- 229 2.42 273 2.42 113 2.42  78 2.43 120 2.43 235 2.43  41 2.43 283 2.43
                            49 2.43 213 2.44  66 2.44  30 2.45
  32  0.938  0.793  0.742- 200 2.43  70 2.43 194 2.43  46 2.43  51 2.43 240 2.43 107 2.43  36 2.43
                           218 2.43 173 2.43 167 2.43   9 2.43
  33  0.687  0.622  0.521-  48 2.38 245 2.38  58 2.38 233 2.41 142 2.42 265 2.42  10 2.43  47 2.43
                           211 2.43 225 2.43 280 2.43 186 2.43
  34  0.187  0.784  0.127-  21 2.36 246 2.36 253 2.36 242 2.43  75 2.43 237 2.43 214 2.43 271 2.43
                           108 2.43
  35  0.688  0.121  0.435-  67 2.41  13 2.42  69 2.43  94 2.43  38 2.43 111 2.43  76 2.43 105 2.43
                           161 2.44 197 2.44 248 2.45 191 2.45
  36  0.813  0.043  0.742-  51 2.42 210 2.43  87 2.43  93 2.43 139 2.43 194 2.43  32 2.43 279 2.43
                           218 2.43 104 2.43 144 2.44 200 2.44
  37  0.562  0.375  0.654-   5 2.42 162 2.42  61 2.42 174 2.43 208 2.43 285 2.43 182 2.43  17 2.43
                           190 2.44 129 2.44 268 2.44 254 2.44
  38  0.563  0.206  0.479- 274 2.37  92 2.38  47 2.38 161 2.42  76 2.42  42 2.43  35 2.43  58 2.43
                            13 2.43  67 2.43 148 2.44 127 2.44
  39  0.188  0.118  0.169- 206 2.36 214 2.37 237 2.37 123 2.43  65 2.43 267 2.43 166 2.43  21 2.43
                           253 2.43 249 2.45 198 2.45  50 2.45
  40  0.437  0.127  0.786- 170 2.43 150 2.43  80 2.43  25 2.43  93 2.43 272 2.43 228 2.43 104 2.43
                            64 2.44 157 2.45 152 2.46 102 2.46
  41  0.063  0.703  0.346-  63 2.41 154 2.42 229 2.43  72 2.43  43 2.43  31 2.43  78 2.43 235 2.43
                           221 2.43  30 2.44 266 2.44  95 2.44
  42  0.437  0.455  0.479-  89 2.38  47 2.38 225 2.38 133 2.41  76 2.43  54 2.43  38 2.43 148 2.43
                           181 2.43 209 2.43  58 2.43 245 2.44
  43  0.938  0.453  0.346-  20 2.42  63 2.42   8 2.42  72 2.43  41 2.43 238 2.43 116 2.43 120 2.43
                           221 2.43  95 2.44 143 2.44 118 2.45
  44  0.812  0.040  0.610- 264 2.42   1 2.42 285 2.43 220 2.43 275 2.43 171 2.43  53 2.43 288 2.43
                           162 2.44 282 2.45 261 2.46 278 2.47
  45  0.562  0.035  0.258- 119 2.42 234 2.43  91 2.43 219 2.43 175 2.43 122 2.43 141 2.43 224 2.43
                            99 2.43 183 2.43 250 2.43 163 2.43
  46  0.187  0.793  0.742- 205 2.43 244 2.43  32 2.43 240 2.43 218 2.43 189 2.43 128 2.43 107 2.43
                            64 2.43 155 2.43 228 2.43 173 2.43
  47  0.563  0.373  0.521-  42 2.38  38 2.38  58 2.38   4 2.41 233 2.42 230 2.42  10 2.42  33 2.43
                            89 2.43 225 2.43 274 2.44  92 2.44
  48  0.812  0.705  0.479- 280 2.38  33 2.38 186 2.38  82 2.42 111 2.42 158 2.43 245 2.43 223 2.43
                            58 2.43  67 2.43 100 2.43 110 2.43
  49  0.312  0.203  0.346- 273 2.42 121 2.42 101 2.42 283 2.43 120 2.43 169 2.43  72 2.43 172 2.43
                            31 2.43  81 2.44 213 2.44  99 2.44
  50  0.062  0.201  0.214-  52 2.43 249 2.43 239 2.43 106 2.43 159 2.43  90 2.43 198 2.43  79 2.43
                           259 2.43 267 2.45  39 2.45 166 2.45
  51  0.812  0.877  0.786- 194 2.42  36 2.42 272 2.43  70 2.43  32 2.43 222 2.43  93 2.43 173 2.44
                           144 2.44 136 2.46  56 2.46  11 2.47
  52  0.063  0.035  0.258-  30 2.43  50 2.43 207 2.43 213 2.43 239 2.43  79 2.43  88 2.43 259 2.43
                           126 2.43 249 2.43 219 2.43  91 2.44
  53  0.938  0.290  0.610- 220 2.42 190 2.43 115 2.43  96 2.43 288 2.43  28 2.43  44 2.43 162 2.43
                           255 2.44 252 2.45 282 2.45 138 2.46
  54  0.313  0.371  0.435- 148 2.42  42 2.43 133 2.43  76 2.43 181 2.43 161 2.43 135 2.43 188 2.43
                           114 2.43  15 2.44 121 2.45 101 2.45
  55  0.563  0.369  0.302-  19 2.43 250 2.43   6 2.43  99 2.43 227 2.43 175 2.43 118 2.43  81 2.44
                           183 2.44 169 2.44 172 2.44 116 2.44
  56  0.687  0.960  0.831-  97 2.36 149 2.36  12 2.36 157 2.43 112 2.43 152 2.43 136 2.43  27 2.43
                            11 2.44 272 2.45  93 2.45  51 2.46
  57  0.187  0.125  0.654-  96 2.42 288 2.42 220 2.43 115 2.43 117 2.43 208 2.43 160 2.43 174 2.43
                           205 2.44  86 2.44 256 2.45 287 2.45
  58  0.688  0.455  0.479-  10 2.38  47 2.38  33 2.38 158 2.42  76 2.42  94 2.42  38 2.43  13 2.43
                           110 2.43  48 2.43 245 2.43  42 2.43
  59  0.813  0.034  0.127- 166 2.36 203 2.36  23 2.37  18 2.42 237 2.43 271 2.43  84 2.43 168 2.44
                           134 2.44
  60  0.063  0.871  0.435- 100 2.42 270 2.42 223 2.42 262 2.43  82 2.43 114 2.43 111 2.43 135 2.43
                            69 2.43 113 2.45 229 2.45 154 2.45
  61  0.438  0.291  0.610- 208 2.42  37 2.42 174 2.43 162 2.43 275 2.43   5 2.43 226 2.43 117 2.43
                            96 2.44 230 2.45   4 2.45  74 2.45
  62  0.563  0.875  0.654-   1 2.42 124 2.43 275 2.43 182 2.43 264 2.43  17 2.43 160 2.43 208 2.43
                           285 2.44  14 2.44 145 2.45 279 2.45
  63  0.062  0.537  0.390-  41 2.41  72 2.42  43 2.42   8 2.43  15 2.43  20 2.43 154 2.43 101 2.43
                           229 2.43 135 2.45 188 2.45  82 2.46
  64  0.312  0.043  0.742- 287 2.42 218 2.43 156 2.43 228 2.43 170 2.43 104 2.43 145 2.43  46 2.43
                           205 2.43 189 2.43  80 2.43  40 2.44
  65  0.437  0.117  0.169- 176 2.36 134 2.36 214 2.36  39 2.43 253 2.43 123 2.43 203 2.44 243 2.44
                           241 2.44 224 2.45 198 2.45 141 2.46
  66  0.313  0.869  0.302- 227 2.43  91 2.43 213 2.43 119 2.43 234 2.43 266 2.43  99 2.43  30 2.43
                            88 2.43 235 2.44  31 2.44 283 2.45
  67  0.687  0.955  0.479- 211 2.37 186 2.38  92 2.39  35 2.41 105 2.42 111 2.42 245 2.43 127 2.43
                            48 2.43 223 2.43  13 2.43  38 2.43
  68  0.936  0.294  0.873-  27 2.35 247 2.37 125 2.37 130 2.42 149 2.43 164 2.43 140 2.43 281 2.44
                           147 2.45
  69  0.937  0.121  0.435- 153 2.42 223 2.42  13 2.42  35 2.43 111 2.43  94 2.43 114 2.43 188 2.43
                            60 2.43  20 2.44 248 2.44 113 2.45
  70  0.937  0.627  0.786-  32 2.43 187 2.43  51 2.43   9 2.43 222 2.43   7 2.43 240 2.43 173 2.43
                           244 2.43 125 2.45 136 2.45 195 2.46
  71  0.688  0.953  0.346- 212 2.42 191 2.42 248 2.42  78 2.43 238 2.43 221 2.43   3 2.43 169 2.43
                           283 2.43 250 2.44 131 2.44 119 2.45
  72  0.187  0.453  0.346- 101 2.42  63 2.42  15 2.42  43 2.43  41 2.43 120 2.43  49 2.43 172 2.44
                           266 2.44 235 2.44 143 2.44  81 2.45
  73  0.563  0.543  0.742-  14 2.42 254 2.43   9 2.43 189 2.43 194 2.43 128 2.43 170 2.43 268 2.43
                            87 2.43 179 2.43 222 2.44 150 2.44
  74  0.312  0.207  0.565-  89 2.42 138 2.42  16 2.42 201 2.42 257 2.43 230 2.43 274 2.43   4 2.44
                           117 2.44 196 2.44  96 2.45  61 2.45
  75  0.063  0.534  0.127- 246 2.36 185 2.36 267 2.36 242 2.42  34 2.43 206 2.43 271 2.43  18 2.44
                           263 2.44
  76  0.563  0.371  0.435-  38 2.42  58 2.42  42 2.43  94 2.43 133 2.43 158 2.43  54 2.43 161 2.43
                            35 2.43 276 2.45 197 2.45 121 2.45
  77  0.687  0.451  0.214- 175 2.42 141 2.43 231 2.43 159 2.43 137 2.43  90 2.43  19 2.43 204 2.44
                           165 2.44 241 2.45 146 2.46 286 2.48
  78  0.937  0.953  0.346- 154 2.42 248 2.42 113 2.43  71 2.43  31 2.43 221 2.43 120 2.43  41 2.43
                           238 2.43 207 2.44 131 2.44  30 2.45
  79  0.937  0.285  0.258- 118 2.42  90 2.43 207 2.43 175 2.43 143 2.43 284 2.43 137 2.43  52 2.43
                           219 2.43  50 2.43 159 2.43 259 2.43
  80  0.187  0.127  0.786- 156 2.43 144 2.43 173 2.43  40 2.43  25 2.43 218 2.43  64 2.43 187 2.44
                           228 2.44 202 2.45 102 2.46 247 2.46
  81  0.312  0.369  0.302- 259 2.43 251 2.43 143 2.43 266 2.43  99 2.43 213 2.43 183 2.43  55 2.44
                           227 2.44  49 2.44 172 2.45  72 2.45
  82  0.938  0.621  0.435- 110 2.41 100 2.41  48 2.42  60 2.43 111 2.43 135 2.43 188 2.43 158 2.43
                            94 2.44 154 2.45   8 2.45  63 2.46
  83  0.313  0.045  0.873- 102 2.35 157 2.36 202 2.36 258 2.42 147 2.43  12 2.43 269 2.44 281 2.44
                           192 2.45
  84  0.688  0.285  0.127- 146 2.35 241 2.36 203 2.37 263 2.43  18 2.43 260 2.43  59 2.43 176 2.44
                           134 2.44
  85  0.188  0.625  0.654- 178 2.42 226 2.42 182 2.43 174 2.43 232 2.43  28 2.43 115 2.43 160 2.43
                            86 2.43 180 2.44 155 2.44 107 2.44
  86  0.062  0.874  0.654- 288 2.41 178 2.42 171 2.43 264 2.43 232 2.43  85 2.43 220 2.43 160 2.43
                            57 2.44 107 2.44 200 2.44 205 2.45
  87  0.688  0.293  0.742- 210 2.43  93 2.43 129 2.43  36 2.43 254 2.43 139 2.43   9 2.43 104 2.43
                            73 2.43   7 2.43 170 2.44 150 2.44
  88  0.187  0.785  0.258- 266 2.43 151 2.43 249 2.43 126 2.43  30 2.43 284 2.43 251 2.43  52 2.43
                           234 2.43 184 2.43  66 2.43  91 2.44
  89  0.313  0.373  0.521-  42 2.38 181 2.38 148 2.38 230 2.42  74 2.42 201 2.42  47 2.43 225 2.43
                           274 2.43  22 2.43 277 2.43  16 2.44
  90  0.937  0.451  0.214-  79 2.43 284 2.43 165 2.43 137 2.43  77 2.43 159 2.43  50 2.43 151 2.43
                           106 2.43 185 2.46 267 2.46 146 2.46
  91  0.313  0.035  0.258- 198 2.43 234 2.43  45 2.43  66 2.43 183 2.43  99 2.43 224 2.43 259 2.43
                           213 2.43 249 2.44  52 2.44  88 2.44
  92  0.688  0.122  0.521-  38 2.38  13 2.38  67 2.39 261 2.41 186 2.42 282 2.42   4 2.43 103 2.43
                           211 2.43  10 2.43 274 2.43  47 2.44
  93  0.687  0.127  0.786-  87 2.43 150 2.43 104 2.43  36 2.43 272 2.43  40 2.43  51 2.43   7 2.43
                           144 2.43  56 2.45 152 2.46  27 2.46
  94  0.812  0.371  0.435-  13 2.42  58 2.42  76 2.43  35 2.43 110 2.43 158 2.43  69 2.43  82 2.44
                           188 2.44   8 2.44 197 2.44  20 2.45
  95  0.937  0.619  0.302-  30 2.43 126 2.43 118 2.43   6 2.43 131 2.43 143 2.43 266 2.43 137 2.43
                           284 2.44  43 2.44  41 2.44 221 2.45
  96  0.187  0.291  0.610- 115 2.42  57 2.42  28 2.43 174 2.43  53 2.43 288 2.43 117 2.43 226 2.43
                            61 2.44 201 2.45  74 2.45 138 2.45
  97  0.688  0.794  0.873- 112 2.36 136 2.36  56 2.36 164 2.43 199 2.43 109 2.43 269 2.43  12 2.43
                           149 2.43
  98  0.312  0.706  0.565-  22 2.42 225 2.42  26 2.42 196 2.43 257 2.43  29 2.43 201 2.43 230 2.43
                           265 2.43 226 2.45 124 2.45 178 2.46
  99  0.437  0.119  0.302- 183 2.43 119 2.43  91 2.43 213 2.43  81 2.43 250 2.43  55 2.43  45 2.43
                            66 2.43 283 2.44  49 2.44 169 2.44
 100  0.063  0.705  0.479- 280 2.38  22 2.38 216 2.38  82 2.41  60 2.42 135 2.43 223 2.43 181 2.43
                           209 2.43 110 2.43  48 2.43 270 2.44
 101  0.187  0.287  0.390-  72 2.42 120 2.42  49 2.42 113 2.43  15 2.43  20 2.43 273 2.43 121 2.43
                            63 2.43 114 2.44  54 2.45 188 2.46
 102  0.312  0.210  0.831-  83 2.35 147 2.35 258 2.36 202 2.43 247 2.43 157 2.43   2 2.43 215 2.43
                           152 2.44  80 2.46  40 2.46  25 2.46
 103  0.937  0.123  0.521-  13 2.38 153 2.38 223 2.38 278 2.42 282 2.42 138 2.43  92 2.43 277 2.43
                            10 2.43  16 2.43 186 2.43 216 2.43
 104  0.562  0.043  0.742- 129 2.43 272 2.43  93 2.43  87 2.43  64 2.43 170 2.43 279 2.43 189 2.43
                            36 2.43  40 2.43 145 2.43 194 2.43
 105  0.563  0.871  0.435- 245 2.42  67 2.42 127 2.42 158 2.43 111 2.43 133 2.43  35 2.43 161 2.43
                           262 2.44 191 2.44 212 2.45 132 2.45
 106  0.188  0.451  0.214- 284 2.43 259 2.43 184 2.43  50 2.43 251 2.43 151 2.43 198 2.43  90 2.43
                           231 2.43 246 2.45 267 2.46 123 2.46
 107  0.062  0.708  0.698- 236 2.42 240 2.43 167 2.43 180 2.43 200 2.43  32 2.43  46 2.43 155 2.43
                           205 2.44  86 2.44 232 2.44  85 2.44
 108  0.438  0.784  0.127- 177 2.36 243 2.36 253 2.37 260 2.43 168 2.43 134 2.43  34 2.43 242 2.43
                           214 2.43
 109  0.938  0.793  0.873- 195 2.35 136 2.36  11 2.36 140 2.42 164 2.43 192 2.43  97 2.43 281 2.44
                           149 2.45
 110  0.937  0.455  0.479- 277 2.38  10 2.38 280 2.39  82 2.41 188 2.42  13 2.43  94 2.43  58 2.43
                           100 2.43 181 2.43  48 2.43 153 2.43
 111  0.813  0.871  0.435-  48 2.42  67 2.42 223 2.42  35 2.43  69 2.43 105 2.43  60 2.43  82 2.43
                           158 2.44 248 2.44 154 2.45 212 2.45
 112  0.562  0.710  0.831- 199 2.36 269 2.36  97 2.36  24 2.43 136 2.43 157 2.43  56 2.43 217 2.43
                             2 2.43 272 2.45 222 2.46 179 2.46
 113  0.062  0.037  0.390- 120 2.41  31 2.42  78 2.43 248 2.43  20 2.43 101 2.43 273 2.43 154 2.43
                           229 2.43 114 2.44  60 2.45  69 2.45
 114  0.187  0.121  0.435- 270 2.42 153 2.42 148 2.43  60 2.43 188 2.43  69 2.43 262 2.43 161 2.43
                            54 2.43 101 2.44 113 2.44 273 2.45
 115  0.063  0.375  0.654-  96 2.42  28 2.42 232 2.43  53 2.43 174 2.43  57 2.43  85 2.43 220 2.43
                           190 2.43 256 2.44 180 2.44 236 2.45
 116  0.688  0.453  0.346- 197 2.42 276 2.42   8 2.43 221 2.43  43 2.43 238 2.43   3 2.43 169 2.43
                           172 2.43   6 2.44  55 2.44 118 2.45
 117  0.312  0.041  0.610- 160 2.42 208 2.43 288 2.43  57 2.43 178 2.43 124 2.43 275 2.43  61 2.43
                            96 2.43  74 2.44 257 2.45 196 2.46
 118  0.813  0.369  0.302-  79 2.42 137 2.43 143 2.43  95 2.43 250 2.43 207 2.43 175 2.43  55 2.43
                             6 2.44 238 2.44 116 2.45  43 2.45
 119  0.563  0.870  0.302-  45 2.42 250 2.43  99 2.43 131 2.43  66 2.43 234 2.43 227 2.43 122 2.43
                             6 2.43   3 2.44  71 2.45 283 2.45
 120  0.063  0.203  0.346- 113 2.41 101 2.42  20 2.42 238 2.43  49 2.43  31 2.43  72 2.43  43 2.43
                            78 2.43 143 2.44 207 2.44 213 2.45
 121  0.437  0.287  0.390- 169 2.42 172 2.42  49 2.42 191 2.43 273 2.43 197 2.43 101 2.43 276 2.43
                            15 2.43  54 2.45  76 2.45 161 2.45
 122  0.688  0.785  0.258-   6 2.43 163 2.43 165 2.43 219 2.43 137 2.43 126 2.43  19 2.43 204 2.43
                            45 2.43 234 2.43 119 2.43 131 2.43
 123  0.312  0.367  0.169- 176 2.35 206 2.36 242 2.36  39 2.43  65 2.43 267 2.43 246 2.43 241 2.44
                           177 2.44 198 2.46 106 2.46 231 2.46
 124  0.437  0.790  0.610- 182 2.42 160 2.42 226 2.42 178 2.43  62 2.43   5 2.43 117 2.43   1 2.44
                           275 2.44 196 2.45  98 2.45 265 2.45
 125  0.938  0.461  0.831- 140 2.36  68 2.37 164 2.37 215 2.43 136 2.43 195 2.43 217 2.43  27 2.43
                           247 2.44 187 2.45  70 2.45   7 2.45
 126  0.937  0.785  0.258- 165 2.43 239 2.43  95 2.43 122 2.43  30 2.43 151 2.43  88 2.43 284 2.43
                           137 2.43  52 2.43 219 2.43 131 2.43
 127  0.438  0.955  0.479-  26 2.37 211 2.38 274 2.38 161 2.41 105 2.42 262 2.43 245 2.43 209 2.43
                            67 2.43 270 2.43  38 2.44 148 2.44
 128  0.313  0.543  0.742-  25 2.42 170 2.43 244 2.43 155 2.43 179 2.43 189 2.43 156 2.43  46 2.43
                            73 2.43 240 2.43 268 2.43 180 2.44
 129  0.563  0.209  0.698- 104 2.43 210 2.43  87 2.43 254 2.43 145 2.43 268 2.43 279 2.43 287 2.44
                           170 2.44  37 2.44 285 2.44 208 2.45
 130  0.688  0.294  0.873-  27 2.36 152 2.37 217 2.37  68 2.42 149 2.42 164 2.43 199 2.43  12 2.43
                           258 2.44
 131  0.812  0.869  0.302-   6 2.43 219 2.43 207 2.43 119 2.43  30 2.43  95 2.43 122 2.43 250 2.43
                           126 2.43 221 2.44  78 2.44  71 2.44
 132  0.437  0.787  0.390- 283 2.42 235 2.42   3 2.43 229 2.43 273 2.43 191 2.43  15 2.43 276 2.43
                           212 2.43 262 2.45 105 2.45 133 2.45
 133  0.437  0.621  0.435-  42 2.41 245 2.42 209 2.42  54 2.43 135 2.43  76 2.43 158 2.43 262 2.43
                           105 2.43 132 2.45  15 2.45 276 2.46
 134  0.562  0.034  0.127-  65 2.36 203 2.36 243 2.36 176 2.43 214 2.43 108 2.43  84 2.44 168 2.44
                            59 2.44
 135  0.188  0.621  0.435- 181 2.42 262 2.43 100 2.43 209 2.43 133 2.43  60 2.43  82 2.43 188 2.43
                            54 2.43 229 2.44  15 2.44  63 2.45
 136  0.812  0.710  0.831-  97 2.36 109 2.36 164 2.37 112 2.43 125 2.43 217 2.43  56 2.43 195 2.43
                            11 2.44 222 2.45  70 2.45  51 2.46
 137  0.812  0.535  0.258- 118 2.43 165 2.43  19 2.43 122 2.43  77 2.43  90 2.43  79 2.43   6 2.43
                           175 2.43 126 2.43  95 2.43 284 2.44
 138  0.063  0.206  0.565-  16 2.42 277 2.42  74 2.42 103 2.43 201 2.43 257 2.43 252 2.44 282 2.44
                           278 2.44 288 2.45  96 2.45  53 2.46
 139  0.938  0.293  0.742- 144 2.43   7 2.43   9 2.43 187 2.43  87 2.43  36 2.43 236 2.43 240 2.43
                           218 2.43 156 2.43 256 2.43 210 2.43
 140  0.062  0.544  0.873- 215 2.36 195 2.36 125 2.36 109 2.42 192 2.43 193 2.43 164 2.43 147 2.43
                            68 2.43
 141  0.562  0.201  0.214-  77 2.43 231 2.43 198 2.43 183 2.43 224 2.43  45 2.43 159 2.43 163 2.43
                           175 2.43 241 2.45 203 2.45  65 2.46
 142  0.812  0.707  0.565-  33 2.42 186 2.42 280 2.42 278 2.42 233 2.43 265 2.43 261 2.43 252 2.43
                            29 2.44 255 2.45 171 2.45   1 2.45
 143  0.063  0.369  0.302-  81 2.43 118 2.43 259 2.43 284 2.43  79 2.43 207 2.43 213 2.43  95 2.43
                           266 2.43 120 2.44  72 2.44  43 2.44
 144  0.938  0.127  0.786- 139 2.43  80 2.43 173 2.43   7 2.43 187 2.43  93 2.43  36 2.44 218 2.44
                            51 2.44  11 2.45 247 2.45  27 2.46
 145  0.437  0.959  0.698- 189 2.43 279 2.43  64 2.43 129 2.43 205 2.43 155 2.43 104 2.43 287 2.43
                            14 2.44 208 2.44 160 2.45  62 2.45
 146  0.812  0.367  0.169-  84 2.35  18 2.36 263 2.37 241 2.42 286 2.43 203 2.43 166 2.43 185 2.44
                           267 2.44 159 2.46  77 2.46  90 2.46
 147  0.188  0.294  0.873- 102 2.35 215 2.36 247 2.37 258 2.42  83 2.43 193 2.43 140 2.43 281 2.44
                            68 2.45
 148  0.312  0.206  0.479- 274 2.37  16 2.38  89 2.38 161 2.42  54 2.42 153 2.43 181 2.43  42 2.43
                           114 2.43 270 2.43  38 2.44 127 2.44
 149  0.812  0.045  0.873-  27 2.35  56 2.36  11 2.36 130 2.42  12 2.42  68 2.43  97 2.43 281 2.44
                           109 2.45
 150  0.563  0.377  0.786-  93 2.43 222 2.43  40 2.43 179 2.43   7 2.43  25 2.43 170 2.44  73 2.44
                            87 2.44 217 2.45 152 2.45   2 2.45
 151  0.062  0.701  0.214- 284 2.43 165 2.43  88 2.43 126 2.43 184 2.43 106 2.43 239 2.43 249 2.43
                            90 2.43  21 2.46 246 2.46 185 2.46
 152  0.563  0.211  0.831-  12 2.36 258 2.36 130 2.37 217 2.43  56 2.43 157 2.43   2 2.43  27 2.44
                           102 2.44 150 2.45  40 2.46  93 2.46
 153  0.063  0.205  0.478-  16 2.38 103 2.38 277 2.39 188 2.41 114 2.42  69 2.42 148 2.43 270 2.43
                           181 2.43 223 2.43 110 2.43  13 2.44
 154  0.937  0.787  0.390-  78 2.42 221 2.42  41 2.42 248 2.43   8 2.43 212 2.43 113 2.43  63 2.43
                           229 2.43 111 2.45  60 2.45  82 2.45
 155  0.312  0.709  0.698- 128 2.43 180 2.43 268 2.43  46 2.43 145 2.43  14 2.43 107 2.43 205 2.43
                           189 2.43  85 2.44 160 2.44 182 2.44
 156  0.188  0.293  0.742- 170 2.43 287 2.43  80 2.43  64 2.43  25 2.43 180 2.43 218 2.43 128 2.43
                           139 2.43 256 2.43 240 2.43 187 2.44
 157  0.438  0.960  0.831- 269 2.36  83 2.36  12 2.36  56 2.43  24 2.43 112 2.43 152 2.43 102 2.43
                           202 2.44  40 2.45 272 2.45 228 2.46
 158  0.687  0.621  0.435-  58 2.42 245 2.42  48 2.43 105 2.43  76 2.43  94 2.43 133 2.43  82 2.43
                           111 2.44 212 2.44   8 2.45 276 2.45
 159  0.812  0.201  0.214-  77 2.43 219 2.43 239 2.43 175 2.43 163 2.43  50 2.43  90 2.43 141 2.43
                            79 2.43 166 2.46 203 2.46 146 2.46
 160  0.312  0.875  0.654- 178 2.42 117 2.42 124 2.42 182 2.43  85 2.43  62 2.43  57 2.43 208 2.43
                            86 2.43 155 2.44 205 2.45 145 2.45
 161  0.438  0.121  0.435- 127 2.41  38 2.42 148 2.42  54 2.43  76 2.43 114 2.43 105 2.43  35 2.44
                           262 2.44 121 2.45 191 2.46 273 2.46
 162  0.687  0.291  0.610- 285 2.41 190 2.42  37 2.42 275 2.43  61 2.43   5 2.43  53 2.43 255 2.43
                            44 2.44 233 2.45 282 2.46   4 2.46
 163  0.688  0.951  0.214- 122 2.43 239 2.43 165 2.43 159 2.43 204 2.43 224 2.43 219 2.43 141 2.43
                            45 2.43 203 2.45  23 2.46 243 2.46
 164  0.812  0.544  0.873- 136 2.37 217 2.37 125 2.37 109 2.43  68 2.43  97 2.43 130 2.43 199 2.43
                           140 2.43
 165  0.813  0.701  0.214- 137 2.43 126 2.43 151 2.43 122 2.43  90 2.43 239 2.43 163 2.43  77 2.44
                           204 2.44  23 2.45 185 2.46 286 2.48
 166  0.938  0.118  0.169-  18 2.36  59 2.36 237 2.36 267 2.43  21 2.43  39 2.43 146 2.43 203 2.44
                            23 2.44  50 2.45 239 2.45 159 2.46
 167  0.813  0.709  0.698- 107 2.43 279 2.43 236 2.43 254 2.43 200 2.43   9 2.43  14 2.43  32 2.43
                           264 2.44 194 2.44  17 2.44 232 2.44
 168  0.688  0.784  0.127- 286 2.34 243 2.37  23 2.37 263 2.42 260 2.42 271 2.43 108 2.43 134 2.44
                            59 2.44
 169  0.562  0.204  0.346- 121 2.42 191 2.42 197 2.42 172 2.43 283 2.43 116 2.43  49 2.43 238 2.43
                            71 2.43  55 2.44 250 2.44  99 2.44
 170  0.437  0.293  0.742-  25 2.43 156 2.43 287 2.43 128 2.43  40 2.43 268 2.43  64 2.43 104 2.43
                            73 2.43  87 2.44 129 2.44 150 2.44
 171  0.937  0.790  0.610- 255 2.42 232 2.43  28 2.43  86 2.43   1 2.43  44 2.43 264 2.43 178 2.43
                           288 2.44 278 2.44  29 2.45 142 2.45
 172  0.438  0.453  0.346- 276 2.42 121 2.42  15 2.43 169 2.43 235 2.43   3 2.43  49 2.43 116 2.43
                           227 2.44  72 2.44  55 2.44  81 2.45
 173  0.062  0.877  0.786- 218 2.43 144 2.43  80 2.43  70 2.43 244 2.43  32 2.43  46 2.43  51 2.44
                           228 2.44 195 2.46 202 2.46  11 2.46
 174  0.313  0.375  0.654- 226 2.42  96 2.43  37 2.43 182 2.43  61 2.43  85 2.43 115 2.43 208 2.43
                            57 2.43 268 2.44 180 2.44 287 2.44
 175  0.688  0.285  0.258-  77 2.42 250 2.43 219 2.43  79 2.43  45 2.43 159 2.43 118 2.43 183 2.43
                           137 2.43 141 2.43  19 2.43  55 2.43
 176  0.437  0.284  0.127- 123 2.35  65 2.36 241 2.36 134 2.43 214 2.43 206 2.43  84 2.44 242 2.44
                           260 2.44
 177  0.437  0.618  0.169- 108 2.36 242 2.36 260 2.37 243 2.42 246 2.43 253 2.43 286 2.43 241 2.44
                           123 2.44 184 2.45 204 2.46 231 2.46
 178  0.188  0.791  0.610-  85 2.42 160 2.42  86 2.42 124 2.43 226 2.43 117 2.43 288 2.43 171 2.43
                            28 2.43 257 2.45  29 2.45  98 2.46
 179  0.438  0.627  0.786- 228 2.43 189 2.43  25 2.43 128 2.43 222 2.43 244 2.43 150 2.43 272 2.43
                            73 2.43  24 2.45   2 2.45 112 2.46
 180  0.187  0.459  0.698- 236 2.43 107 2.43 287 2.43 156 2.43 256 2.43 268 2.43 155 2.43 240 2.43
                           128 2.44  85 2.44 115 2.44 174 2.44
 181  0.188  0.455  0.479- 277 2.37  89 2.38  22 2.38 188 2.42 135 2.42 148 2.43  42 2.43  54 2.43
                           209 2.43 100 2.43 110 2.43 153 2.43
 182  0.437  0.625  0.654- 124 2.42 226 2.42   5 2.42  85 2.43 160 2.43 174 2.43  62 2.43  37 2.43
                            17 2.44 155 2.44 268 2.44  14 2.45
 183  0.437  0.285  0.258- 231 2.42 198 2.43  91 2.43  99 2.43 259 2.43 141 2.43 251 2.43 175 2.43
                            45 2.43  19 2.43  81 2.43  55 2.44
 184  0.312  0.701  0.214- 251 2.43 204 2.43 106 2.43 151 2.43 224 2.43 231 2.43  88 2.43 249 2.43
                           234 2.43 253 2.45 246 2.45 177 2.45
 185  0.938  0.618  0.169- 271 2.36  75 2.36 263 2.37  23 2.42 246 2.43 286 2.43  21 2.43 267 2.44
                           146 2.44 151 2.46  90 2.46 165 2.46
 186  0.812  0.873  0.521- 223 2.38  67 2.38  48 2.38 278 2.42 142 2.42 211 2.42  92 2.42 261 2.42
                           280 2.43 103 2.43  33 2.43 216 2.44
 187  0.062  0.378  0.786- 240 2.42  70 2.43 244 2.43   7 2.43 139 2.43  25 2.43 144 2.43 156 2.44
                            80 2.44 125 2.45 215 2.46 247 2.46
 188  0.063  0.371  0.435- 153 2.41 110 2.42 181 2.42 114 2.43 135 2.43  54 2.43  69 2.43  82 2.43
                            94 2.44  63 2.45  20 2.46 101 2.46
 189  0.437  0.793  0.742- 145 2.43 228 2.43 179 2.43 128 2.43  73 2.43  46 2.43 104 2.43  64 2.43
                           194 2.43 272 2.43 155 2.43  14 2.44
 190  0.813  0.375  0.654- 255 2.42 162 2.42 285 2.43  53 2.43 232 2.43  17 2.43 220 2.43 115 2.43
                            37 2.44 210 2.44 254 2.44 236 2.45
 191  0.562  0.037  0.390- 283 2.42 169 2.42  71 2.42 121 2.43 273 2.43 132 2.43 197 2.43 212 2.43
                           248 2.44 105 2.44  35 2.45 161 2.46
 192  0.187  0.793  0.873- 195 2.35 202 2.36  24 2.37 140 2.43 109 2.43 193 2.43 269 2.43 281 2.44
                            83 2.45
 193  0.313  0.544  0.873- 215 2.36   2 2.36  24 2.37 147 2.43 258 2.43 192 2.43 269 2.43 199 2.43
                           140 2.43
 194  0.688  0.793  0.742- 279 2.42  51 2.42  32 2.43 222 2.43  36 2.43  73 2.43 272 2.43   9 2.43
                           189 2.43 104 2.43  14 2.44 167 2.44
 195  0.062  0.711  0.831- 192 2.35 109 2.35 140 2.36 202 2.43  11 2.43 215 2.43 125 2.43 136 2.43
                            24 2.43 173 2.46  70 2.46 244 2.46
 196  0.438  0.956  0.565- 261 2.42  26 2.42 211 2.42 274 2.42 265 2.42 257 2.43  98 2.43   4 2.44
                            74 2.44 124 2.45 275 2.45 117 2.46
 197  0.687  0.287  0.390- 116 2.42 169 2.42 238 2.43 276 2.43 121 2.43  20 2.43 191 2.43 248 2.43
                             8 2.43  94 2.44  35 2.44  76 2.45
 198  0.313  0.201  0.214-  91 2.43 183 2.43 141 2.43 249 2.43 224 2.43 231 2.43  50 2.43 106 2.43
                           259 2.43  39 2.45  65 2.45 123 2.46
 199  0.563  0.544  0.873- 112 2.36   2 2.36 217 2.36  97 2.43 269 2.43 164 2.43 193 2.43 258 2.43
                           130 2.43
 200  0.938  0.959  0.698-  32 2.43 205 2.43 107 2.43 167 2.43 256 2.43 218 2.43 279 2.44 210 2.44
                           220 2.44  36 2.44  86 2.44 264 2.44
 201  0.188  0.456  0.565-  22 2.42  89 2.42 277 2.42  74 2.42 138 2.43  98 2.43 230 2.43 252 2.43
                            29 2.43  96 2.45  28 2.45 226 2.45
 202  0.187  0.961  0.831- 281 2.35 192 2.36  83 2.36 247 2.42  11 2.42 102 2.43 195 2.43  24 2.44
                           157 2.44  80 2.45 173 2.46 228 2.47
 203  0.687  0.117  0.169- 134 2.36  59 2.36  84 2.37 146 2.43 241 2.43  23 2.43 243 2.43 166 2.44
                            65 2.44 163 2.45 141 2.45 159 2.46
 204  0.562  0.701  0.214-  19 2.43 224 2.43 234 2.43 184 2.43 231 2.43 122 2.43 163 2.43  77 2.44
                           165 2.44 243 2.45 177 2.46 286 2.48
 205  0.187  0.959  0.698-  46 2.43 200 2.43 218 2.43 145 2.43  64 2.43 256 2.43 155 2.43 287 2.44
                            57 2.44 107 2.44  86 2.45 160 2.45
 206  0.188  0.284  0.127- 123 2.36 267 2.36  39 2.36 176 2.43 214 2.43 242 2.43  75 2.43  18 2.43
                           237 2.43
 207  0.938  0.119  0.302-  79 2.43  52 2.43 131 2.43 213 2.43 118 2.43 143 2.43  30 2.43 250 2.43
                           219 2.43  78 2.44 238 2.44 120 2.44
 208  0.437  0.125  0.654-  61 2.42 117 2.43  37 2.43 275 2.43  57 2.43 160 2.43 174 2.43  62 2.43
                           285 2.43 145 2.44 129 2.45 287 2.45
 209  0.312  0.705  0.479- 225 2.38  22 2.38  26 2.38 262 2.42 133 2.42 135 2.43 127 2.43 181 2.43
                           100 2.43  42 2.43 245 2.43 270 2.43
 210  0.812  0.209  0.698-  87 2.43  36 2.43 129 2.43 256 2.43 254 2.43 139 2.43 236 2.43 200 2.44
                           190 2.44 279 2.44 285 2.45 220 2.45
 211  0.563  0.873  0.521-  67 2.37 127 2.38 245 2.38 261 2.42 265 2.42 186 2.42 196 2.42  92 2.43
                            33 2.43 225 2.43 274 2.43  26 2.44
 212  0.688  0.787  0.390-  71 2.42 221 2.42   3 2.42 154 2.43 276 2.43   8 2.43 191 2.43 132 2.43
                           248 2.44 158 2.44 105 2.45 111 2.45
 213  0.188  0.119  0.302- 259 2.43  66 2.43  52 2.43 207 2.43  99 2.43 143 2.43  81 2.43  30 2.43
                            91 2.43  31 2.44  49 2.44 120 2.45
 214  0.312  0.034  0.127-  65 2.36 253 2.36  39 2.37 176 2.43 134 2.43 206 2.43 237 2.43  34 2.43
                           108 2.43
 215  0.187  0.461  0.831- 140 2.36 193 2.36 147 2.36 125 2.43  24 2.43 195 2.43   2 2.43 102 2.43
                           247 2.44 244 2.46 187 2.46  25 2.46
 216  0.063  0.873  0.521- 223 2.38 270 2.38 100 2.38 278 2.41 257 2.42  29 2.42  16 2.42  26 2.42
                           280 2.43  22 2.43 103 2.43 186 2.44
 217  0.687  0.460  0.831- 199 2.36 130 2.37 164 2.37 152 2.43 136 2.43 112 2.43   2 2.43 125 2.43
                            27 2.44 150 2.45 222 2.45   7 2.45
 218  0.063  0.043  0.742- 173 2.43 256 2.43  64 2.43 156 2.43  46 2.43 139 2.43  80 2.43 205 2.43
                            32 2.43  36 2.43 200 2.43 144 2.44
 219  0.812  0.035  0.258- 175 2.43  45 2.43 131 2.43 122 2.43 159 2.43 239 2.43 250 2.43 163 2.43
                           126 2.43  79 2.43 207 2.43  52 2.43
 220  0.938  0.125  0.654-  53 2.42 288 2.42  57 2.43  44 2.43  86 2.43 285 2.43 264 2.43 190 2.43
                           115 2.43 200 2.44 256 2.44 210 2.45
 221  0.812  0.703  0.346-   8 2.42 212 2.42 154 2.42 116 2.43   3 2.43  78 2.43  71 2.43  43 2.43
                            41 2.43 131 2.44   6 2.44  95 2.45
 222  0.687  0.626  0.786-   7 2.43 150 2.43  70 2.43 194 2.43 179 2.43  51 2.43   9 2.43 272 2.44
                            73 2.44 217 2.45 136 2.45 112 2.46
 223  0.937  0.955  0.479- 186 2.38 216 2.38 103 2.38  69 2.42  60 2.42 111 2.42  48 2.43 100 2.43
                            67 2.43 153 2.43 270 2.43  13 2.44
 224  0.438  0.951  0.214- 234 2.42 204 2.43  91 2.43 141 2.43 163 2.43 184 2.43 249 2.43 198 2.43
                            45 2.43  65 2.45 253 2.45 243 2.46
 225  0.437  0.623  0.521- 209 2.38 245 2.38  42 2.38 230 2.42 265 2.42  98 2.42  89 2.43  22 2.43
                            26 2.43  33 2.43 211 2.43  47 2.43
 226  0.313  0.541  0.610- 182 2.42 174 2.42 124 2.42  85 2.42 178 2.43   5 2.43  61 2.43  28 2.43
                            96 2.43  98 2.45 201 2.45 230 2.46
 227  0.438  0.619  0.302-  66 2.43 234 2.43 266 2.43   6 2.43  55 2.43 119 2.43  19 2.43 251 2.43
                           172 2.44  81 2.44   3 2.44 235 2.44
 228  0.313  0.876  0.786- 272 2.43 189 2.43 179 2.43  64 2.43 244 2.43  40 2.43  46 2.43 173 2.44
                            80 2.44  24 2.45 157 2.46 202 2.47
 229  0.188  0.787  0.390-  31 2.42 235 2.42  41 2.43 273 2.43 132 2.43 113 2.43 154 2.43  15 2.43
                            63 2.43 135 2.44 262 2.44  60 2.45
 230  0.438  0.457  0.565-  89 2.42 225 2.42  47 2.42   4 2.43 265 2.43  98 2.43 201 2.43  74 2.43
                           233 2.43  61 2.45 226 2.46   5 2.46
 231  0.438  0.451  0.214- 183 2.42  77 2.43 204 2.43 141 2.43 251 2.43  19 2.43 198 2.43 184 2.43
                           106 2.43 241 2.46 177 2.46 123 2.46
 232  0.938  0.624  0.654- 255 2.42  28 2.42 115 2.43 171 2.43  85 2.43 190 2.43  86 2.43  17 2.43
                           236 2.44 264 2.44 107 2.44 167 2.44
 233  0.688  0.456  0.565-  33 2.41  10 2.41  47 2.42 282 2.43 142 2.43 252 2.43   4 2.43 230 2.43
                           265 2.44 162 2.45 255 2.46   5 2.46
 234  0.438  0.785  0.258- 224 2.42  45 2.43  91 2.43 204 2.43 227 2.43 119 2.43  66 2.43  88 2.43
                           251 2.43 122 2.43 184 2.43  19 2.43
 235  0.313  0.703  0.346- 132 2.42  15 2.42 229 2.42  31 2.43 172 2.43   3 2.43 283 2.43  41 2.43
                            72 2.44  66 2.44 227 2.44 266 2.45
 236  0.938  0.459  0.698- 107 2.42 180 2.43 240 2.43 256 2.43 167 2.43 139 2.43   9 2.43 210 2.43
                           232 2.44 254 2.44 115 2.45 190 2.45
 237  0.063  0.034  0.127-  21 2.36 166 2.36  39 2.37  59 2.43  18 2.43  34 2.43 214 2.43 271 2.43
                           206 2.43
 238  0.813  0.203  0.346- 248 2.42  20 2.42 197 2.43  43 2.43 120 2.43  71 2.43 116 2.43  78 2.43
                           169 2.43 118 2.44 207 2.44 250 2.44
 239  0.937  0.951  0.214- 126 2.43 159 2.43 165 2.43 163 2.43  50 2.43 249 2.43  52 2.43 219 2.43
                           151 2.43 166 2.45  21 2.46  23 2.46
 240  0.062  0.543  0.742- 187 2.42 107 2.43 236 2.43   9 2.43  32 2.43 244 2.43  46 2.43  70 2.43
                           139 2.43 128 2.43 156 2.43 180 2.43
 241  0.563  0.368  0.169-  84 2.36 176 2.36 260 2.37 146 2.42 286 2.43 203 2.43 177 2.44 123 2.44
                            65 2.44 141 2.45  77 2.45 231 2.46
 242  0.312  0.534  0.127- 246 2.36 123 2.36 177 2.36  75 2.42  34 2.43 206 2.43 108 2.43 176 2.44
                           260 2.44
 243  0.562  0.867  0.169- 108 2.36 134 2.36 168 2.37 177 2.42 286 2.43 253 2.43 203 2.43  23 2.43
                            65 2.44 204 2.45 163 2.46 224 2.46
 244  0.188  0.627  0.786-  46 2.43 187 2.43 128 2.43 228 2.43  25 2.43 240 2.43 179 2.43 173 2.43
                            70 2.43  24 2.45 215 2.46 195 2.46
 245  0.563  0.705  0.479- 211 2.38  33 2.38 225 2.38 105 2.42 133 2.42 158 2.42 127 2.43  67 2.43
                            48 2.43 209 2.43  58 2.43  42 2.44
 246  0.187  0.617  0.169-  75 2.36 242 2.36  34 2.36 185 2.43 267 2.43 177 2.43 123 2.43 253 2.44
                            21 2.44 106 2.45 184 2.45 151 2.46
 247  0.062  0.210  0.831- 281 2.35  68 2.37 147 2.37  11 2.42 202 2.42  27 2.43 102 2.43 125 2.44
                           215 2.44 144 2.45  80 2.46 187 2.46
 248  0.813  0.037  0.390- 238 2.42  78 2.42  71 2.42 113 2.43  20 2.43 154 2.43 197 2.43 212 2.44
                           191 2.44 111 2.44  69 2.44  35 2.45
 249  0.187  0.951  0.214-  88 2.43 198 2.43  50 2.43 239 2.43 224 2.43 151 2.43 184 2.43  52 2.43
                            91 2.44  39 2.45 253 2.45  21 2.45
 250  0.687  0.119  0.302- 175 2.43 119 2.43 118 2.43  55 2.43  99 2.43 219 2.43 207 2.43  45 2.43
                           131 2.43  71 2.44 238 2.44 169 2.44
 251  0.313  0.535  0.258-  81 2.43 184 2.43  88 2.43 259 2.43 231 2.43 183 2.43 284 2.43 106 2.43
                            19 2.43 234 2.43 266 2.43 227 2.43
 252  0.937  0.457  0.565- 280 2.42 282 2.43 233 2.43  10 2.43 277 2.43 142 2.43 201 2.43  29 2.43
                           138 2.44  53 2.45  28 2.45 255 2.45
 253  0.312  0.868  0.169-  34 2.36 214 2.36 108 2.37  65 2.43  21 2.43  39 2.43 177 2.43 243 2.43
                           246 2.44 184 2.45 249 2.45 224 2.45
 254  0.687  0.459  0.698-  14 2.43  87 2.43  73 2.43 129 2.43 167 2.43 210 2.43 268 2.43   9 2.44
                           236 2.44  17 2.44  37 2.44 190 2.44
 255  0.813  0.541  0.610- 190 2.42  17 2.42 232 2.42 171 2.42  28 2.43   1 2.43   5 2.43 162 2.43
                            53 2.44 142 2.45 252 2.45 233 2.46
 256  0.062  0.209  0.698- 218 2.43 236 2.43 210 2.43 180 2.43 200 2.43 139 2.43 156 2.43 205 2.43
                           287 2.44 115 2.44 220 2.44  57 2.45
 257  0.188  0.956  0.565-  16 2.41  26 2.42 216 2.42 196 2.43  98 2.43  29 2.43  74 2.43 138 2.43
                           278 2.43 178 2.45 117 2.45 288 2.47
 258  0.437  0.294  0.873-   2 2.36 102 2.36 152 2.36 147 2.42  83 2.42 193 2.43 199 2.43  12 2.44
                           130 2.44
 259  0.188  0.285  0.258-  81 2.43 106 2.43 213 2.43 284 2.43 183 2.43 143 2.43 251 2.43  52 2.43
                            91 2.43 198 2.43  50 2.43  79 2.43
 260  0.563  0.534  0.127- 286 2.34 241 2.37 177 2.37 263 2.42 168 2.42  84 2.43 108 2.43 176 2.44
                           242 2.44
 261  0.687  0.957  0.565-  92 2.41 211 2.42 196 2.42 186 2.42 265 2.43   4 2.43 142 2.43 282 2.44
                           278 2.44 275 2.45   1 2.45  44 2.46
 262  0.312  0.871  0.435- 209 2.42 270 2.42 127 2.43 135 2.43  60 2.43 114 2.43 133 2.43 161 2.44
                           105 2.44 229 2.44 273 2.44 132 2.45
 263  0.812  0.534  0.127- 286 2.34 146 2.37 185 2.37 260 2.42 168 2.42  84 2.43 271 2.43  18 2.44
                            75 2.44
 264  0.812  0.875  0.654-  44 2.42   1 2.42  86 2.43  62 2.43  17 2.43 220 2.43 171 2.43 285 2.44
                           167 2.44 232 2.44 200 2.44 279 2.45
 265  0.562  0.707  0.565- 211 2.42 225 2.42  33 2.42 196 2.42 261 2.43 142 2.43 230 2.43  98 2.43
                           233 2.44   5 2.45 124 2.45   1 2.46
 266  0.188  0.619  0.302-  81 2.43  88 2.43  30 2.43 227 2.43  66 2.43  95 2.43 143 2.43 251 2.43
                            72 2.44 284 2.44  41 2.44 235 2.45
 267  0.063  0.367  0.169-  75 2.36  18 2.36 206 2.36  39 2.43 166 2.43 123 2.43 246 2.43 185 2.44
                           146 2.44  50 2.45 106 2.46  90 2.46
 268  0.437  0.459  0.698- 287 2.43 170 2.43 180 2.43 155 2.43  14 2.43 254 2.43  73 2.43 128 2.43
                           129 2.43 174 2.44  37 2.44 182 2.44
 269  0.437  0.794  0.873- 112 2.36 157 2.36  24 2.36 199 2.43 193 2.43 192 2.43  97 2.43  12 2.43
                            83 2.44
 270  0.188  0.956  0.479-  26 2.37 216 2.38  16 2.38 114 2.42 262 2.42  60 2.42 153 2.43 148 2.43
                           127 2.43 209 2.43 223 2.43 100 2.44
 271  0.937  0.784  0.127- 185 2.36  23 2.36  21 2.36 263 2.43 168 2.43 237 2.43  34 2.43  59 2.43
                            75 2.43
 272  0.562  0.877  0.786- 228 2.43 104 2.43  51 2.43  93 2.43 194 2.43  40 2.43 179 2.43 189 2.43
                           222 2.44  56 2.45 112 2.45 157 2.45
 273  0.312  0.037  0.390-  49 2.42 283 2.42  31 2.42 229 2.43 121 2.43 101 2.43 113 2.43 132 2.43
                           191 2.43 262 2.44 114 2.45 161 2.46
 274  0.437  0.122  0.521-  38 2.37 148 2.37 127 2.38 196 2.42   4 2.43  89 2.43  26 2.43  16 2.43
                            74 2.43 211 2.43  92 2.43  47 2.44
 275  0.563  0.041  0.610-  62 2.43 162 2.43  61 2.43  44 2.43 208 2.43 285 2.43   1 2.43 117 2.43
                           124 2.44   4 2.44 261 2.45 196 2.45
 276  0.563  0.537  0.390-   3 2.42 172 2.42 116 2.42 197 2.43 212 2.43 132 2.43 121 2.43  15 2.43
                             8 2.44  76 2.45 158 2.45 133 2.46
 277  0.063  0.372  0.521- 181 2.37 110 2.38 153 2.39 138 2.42 201 2.42  16 2.43 252 2.43 103 2.43
                            22 2.43  89 2.43 280 2.44  10 2.44
 278  0.938  0.955  0.565- 216 2.41 186 2.42  29 2.42 103 2.42 142 2.42 257 2.43 171 2.44 138 2.44
                           261 2.44 282 2.45  44 2.47 288 2.47
 279  0.687  0.958  0.698- 194 2.42  14 2.43 167 2.43 145 2.43 104 2.43  36 2.43 129 2.43 200 2.44
                           210 2.44 264 2.45  62 2.45 285 2.45
 280  0.938  0.623  0.521-  48 2.38 100 2.38 110 2.39  29 2.42 142 2.42 252 2.42 186 2.43 216 2.43
                            22 2.43  33 2.43 277 2.44  10 2.44
 281  0.063  0.044  0.873-  11 2.35 202 2.35 247 2.35 192 2.44 147 2.44  68 2.44 109 2.44  83 2.44
                           149 2.44
 282  0.812  0.207  0.565-  10 2.42  92 2.42 103 2.42 233 2.43 252 2.43   4 2.43 138 2.44 261 2.44
                            44 2.45 278 2.45  53 2.45 162 2.46
 283  0.438  0.954  0.346- 132 2.42 191 2.42 273 2.42  49 2.43 169 2.43 235 2.43  31 2.43   3 2.43
                            71 2.43  99 2.44  66 2.45 119 2.45
 284  0.063  0.535  0.258- 151 2.43 106 2.43  90 2.43 259 2.43 143 2.43  88 2.43  79 2.43 251 2.43
                           126 2.43 137 2.44  95 2.44 266 2.44
 285  0.688  0.125  0.654- 162 2.41 190 2.43  44 2.43  37 2.43 220 2.43 275 2.43 208 2.43 264 2.44
                            62 2.44 129 2.44 210 2.45 279 2.45
 286  0.688  0.617  0.168- 260 2.34 263 2.34 168 2.34 241 2.43 146 2.43 243 2.43  23 2.43 185 2.43
                           177 2.43  77 2.48 204 2.48 165 2.48
 287  0.313  0.209  0.698-  64 2.42 268 2.43 156 2.43 170 2.43 180 2.43 145 2.43 205 2.44 129 2.44
                           256 2.44 174 2.44  57 2.45 208 2.45
 288  0.063  0.041  0.610-  86 2.41 220 2.42  57 2.42 117 2.43  53 2.43 178 2.43  96 2.43  44 2.43
                           171 2.44 138 2.45 257 2.47 278 2.47
 
  LATTYP: Found a simple orthorhombic cell.
 ALAT       =     8.4235500000
 B/A-ratio  =     1.1547005716
 C/A-ratio  =     5.3421657140
  
  Lattice vectors:
  
 A1 = (   0.0000000000,  -8.4235500000,   0.0000000000)
 A2 = (  -9.7266780000,   0.0000000000,   0.0000000000)
 A3 = (   0.0000000000,   0.0000000000, -45.0000000000)


Analysis of symmetry for initial positions (statically):
=====================================================================
 Subroutine PRICEL returns:
 Original cell was already a primitive cell.
 

 Routine SETGRP: Setting up the symmetry group for a 
 simple orthorhombic supercell.


 Subroutine GETGRP returns: Found  1 space group operations
 (whereof  1 operations were pure point group operations)
 out of a pool of  8 trial point group operations.


The static configuration has the point symmetry C_1 .


Analysis of symmetry for dynamics (positions and initial velocities):
=====================================================================
 Subroutine PRICEL returns:
 Original cell was already a primitive cell.
 

 Routine SETGRP: Setting up the symmetry group for a 
 simple orthorhombic supercell.


 Subroutine GETGRP returns: Found  1 space group operations
 (whereof  1 operations were pure point group operations)
 out of a pool of  8 trial point group operations.


The dynamic configuration has the point symmetry C_1 .


 Subroutine INISYM returns: Found  1 space group operations
 (whereof  1 operations are pure point group operations),
 and found     1 'primitive' translations

 
 
 KPOINTS: Automatic mesh                          

Automatic generation of k-mesh.
Space group operators:
 irot       det(A)        alpha          n_x          n_y          n_z        tau_x        tau_y        tau_z
    1     1.000000     0.000001     1.000000     0.000000     0.000000     0.000000     0.000000     0.000000
 
 Subroutine IBZKPT returns following result:
 ===========================================
 
 Found     10 irreducible k-points:
 
 Following reciprocal coordinates:
            Coordinates               Weight
  0.000000  0.000000  0.000000      1.000000
  0.250000  0.000000  0.000000      2.000000
  0.500000  0.000000  0.000000      1.000000
  0.000000  0.250000  0.000000      2.000000
  0.250000  0.250000  0.000000      2.000000
  0.500000  0.250000  0.000000      2.000000
 -0.250000  0.250000  0.000000      2.000000
  0.000000  0.500000  0.000000      1.000000
  0.250000  0.500000  0.000000      2.000000
  0.500000  0.500000  0.000000      1.000000
 
 Following cartesian coordinates:
            Coordinates               Weight
  0.000000  0.000000  0.000000      1.000000
  0.025703  0.000000  0.000000      2.000000
  0.051405  0.000000  0.000000      1.000000
  0.000000  0.029679  0.000000      2.000000
  0.025703  0.029679  0.000000      2.000000
  0.051405  0.029679  0.000000      2.000000
 -0.025703  0.029679  0.000000      2.000000
  0.000000  0.059357  0.000000      1.000000
  0.025703  0.059357  0.000000      2.000000
  0.051405  0.059357  0.000000      1.000000
 


--------------------------------------------------------------------------------------------------------




 Dimension of arrays:
   k-points           NKPTS =     10   k-points in BZ     NKDIM =     10   number of bands    NBANDS=   1380
   number of dos      NEDOS =    301   number of ions     NIONS =    288
   non local maximal  LDIM  =      7   non local SUM 2l+1 LMDIM =     25
   total plane-waves  NPLWV = ******
   max r-space proj   IRMAX =   6210   max aug-charges    IRDMAX=  15157
   dimension x,y,z NGX =    72 NGY =   64 NGZ =  336
   dimension x,y,z NGXF=   144 NGYF=  128 NGZF=  672
   support grid    NGXF=   144 NGYF=  128 NGZF=  672
   ions per type =             273  15
   NGX,Y,Z   is equivalent  to a cutoff of  12.31, 12.63, 12.41 a.u.
   NGXF,Y,Z  is equivalent  to a cutoff of  24.61, 25.26, 24.83 a.u.

 SYSTEM =  unknown system                          
 POSCAR =  FeMn_288_15                             

 Startparameter for this run:
   NWRITE =      2    write-flag & timer
   PREC   = accura    normal or accurate (medium, high low for compatibility)
   ISTART =      0    job   : 0-new  1-cont  2-samecut
   ICHARG =      2    charge: 1-file 2-atom 10-const
   ISPIN  =      1    spin polarized calculation?
   LNONCOLLINEAR =      F non collinear calculations
   LSORBIT =      F    spin-orbit coupling
   INIWAV =      1    electr: 0-lowe 1-rand  2-diag
   LASPH  =      F    aspherical Exc in radial PAW
   METAGGA=      F    non-selfconsistent MetaGGA calc.

 Electronic Relaxation 1
   ENCUT  =  500.0 eV  36.75 Ry    6.06 a.u.  17.73 15.36 82.05*2*pi/ulx,y,z
   ENINI  =  500.0     initial cutoff
   ENAUG  =  838.4 eV  augmentation charge cutoff
   NELM   =    100;   NELMIN=  4; NELMDL=  0     # of ELM steps 
   EDIFF  = 0.1E-04   stopping-criterion for ELM
   LREAL  =      T    real-space projection
   NLSPLINE    = F    spline interpolate recip. space projectors
   LCOMPAT=      F    compatible to vasp.4.4
   GGA_COMPAT  = T    GGA compatible to vasp.4.4-vasp.4.6
   LMAXPAW     = -100 max onsite density
   LMAXMIX     =    2 max onsite mixed and CHGCAR
   VOSKOWN=      0    Vosko Wilk Nusair interpolation
   ROPT   =   -0.00025  -0.00025
 Ionic relaxation
   EDIFFG = 0.1E-03   stopping-criterion for IOM
   NSW    =    500    number of steps for IOM
   NBLOCK =      1;   KBLOCK =    500    inner block; outer block 
   IBRION =      2    ionic relax: 0-MD 1-quasi-New 2-CG
   NFREE  =      1    steps in history (QN), initial steepest desc. (CG)
   ISIF   =      2    stress and relaxation
   IWAVPR =     11    prediction:  0-non 1-charg 2-wave 3-comb
   ISYM   =      2    0-nonsym 1-usesym 2-fastsym
   LCORR  =      T    Harris-Foulkes like correction to forces

   POTIM  = 0.2500    time-step for ionic-motion
   TEIN   =    0.0    initial temperature
   TEBEG  =    0.0;   TEEND  =   0.0 temperature during run
   SMASS  =  -3.00    Nose mass-parameter (am)
   estimated Nose-frequenzy (Omega)   =  0.10E-29 period in steps =****** mass=  -0.216E-26a.u.
   SCALEE = 1.0000    scale energy and forces
   NPACO  =    256;   APACO  = 16.0  distance and # of slots for P.C.
   PSTRESS=    0.0 pullay stress

  Mass of Ions in am
   POMASS =  55.85 54.94
  Ionic Valenz
   ZVAL   =   8.00  7.00
  Atomic Wigner-Seitz radii
   RWIGS  =  -1.00 -1.00
  virtual crystal weights 
   VCA    =   1.00  1.00
   NELECT =    2289.0000    total number of electrons
   NUPDOWN=      -1.0000    fix difference up-down

 DOS related values:
   EMIN   =  10.00;   EMAX   =-10.00  energy-range for DOS
   EFERMI =   0.00
   ISMEAR =     0;   SIGMA  =   0.15  broadening in eV -4-tet -1-fermi 0-gaus

 Electronic relaxation 2 (details)
   IALGO  =     68    algorithm
   LDIAG  =      T    sub-space diagonalisation (order eigenvalues)
   LSUBROT=      F    optimize rotation matrix (better conditioning)
   TURBO    =      0    0=normal 1=particle mesh
   IRESTART =      0    0=no restart 2=restart with 2 vectors
   NREBOOT  =      0    no. of reboots
   NMIN     =      0    reboot dimension
   EREF     =   0.00    reference energy to select bands
   IMIX   =      4    mixing-type and parameters
     AMIX     =   0.40;   BMIX     =  1.00
     AMIX_MAG =   1.60;   BMIX_MAG =  1.00
     AMIN     =   0.10
     WC   =   100.;   INIMIX=   1;  MIXPRE=   1;  MAXMIX= -45

 Intra band minimization:
   WEIMIN = 0.0010     energy-eigenvalue tresh-hold
   EBREAK =  0.18E-08  absolut break condition
   DEPER  =   0.30     relativ break condition  

   TIME   =   0.40     timestep for ELM

  volume/ion in A,a.u.               =      12.80        86.39
  Fermi-wavevector in a.u.,A,eV,Ry     =   1.396581  2.639155 26.537314  1.950438
  Thomas-Fermi vector in A             =   2.519921
 
 Write flags
   LWAVE        =      F    write WAVECAR
   LDOWNSAMPLE  =      F    k-point downsampling of WAVECAR
   LCHARG       =      F    write CHGCAR
   LVTOT        =      F    write LOCPOT, total local potential
   LVHAR        =      F    write LOCPOT, Hartree potential only
   LELF         =      F    write electronic localiz. function (ELF)
   LORBIT       =      0    0 simple, 1 ext, 2 COOP (PROOUT), +10 PAW based schemes


 Dipole corrections
   LMONO  =      F    monopole corrections only (constant potential shift)
   LDIPOL =      F    correct potential (dipole corrections)
   IDIPOL =      0    1-x, 2-y, 3-z, 4-all directions 
   EPSILON=  1.0000000 bulk dielectric constant

 Exchange correlation treatment:
   GGA     =    --    GGA type
   LEXCH   =     8    internal setting for exchange type
   VOSKOWN=      0    Vosko Wilk Nusair interpolation
   LHFCALC =     F    Hartree Fock is set to
   LHFONE  =     F    Hartree Fock one center treatment
   AEXX    =    0.0000 exact exchange contribution

 Linear response parameters
   LEPSILON=     F    determine dielectric tensor
   LRPA    =     F    only Hartree local field effects (RPA)
   LNABLA  =     F    use nabla operator in PAW spheres
   LVEL    =     F    velocity operator in full k-point grid
   LINTERFAST=   F  fast interpolation
   KINTER  =     0    interpolate to denser k-point grid
   CSHIFT  =0.1000    complex shift for real part using Kramers Kronig
   OMEGAMAX=  -1.0    maximum frequency
   DEG_THRESHOLD= 0.2000000E-02 threshold for treating states as degnerate
   RTIME   =   -0.100 relaxation time in fs
  (WPLASMAI=    0.000 imaginary part of plasma frequency in eV, 0.658/RTIME)
   DFIELD  = 0.0000000 0.0000000 0.0000000 field for delta impulse in time
 
 Orbital magnetization related:
   ORBITALMAG=     F  switch on orbital magnetization
   LCHIMAG   =     F  perturbation theory with respect to B field
   DQ        =  0.001000  dq finite difference perturbation B field
   LLRAUG    =     F  two centre corrections for induced B field



--------------------------------------------------------------------------------------------------------


 conjugate gradient relaxation of ions
 charge density and potential will be updated during run
 non-spin polarized calculation
 RMM-DIIS sequential band-by-band and
  variant of blocked Davidson during initial phase
 perform sub-space diagonalisation
    before iterative eigenvector-optimisation
 modified Broyden-mixing scheme, WC =      100.0
 initial mixing is a Kerker type mixing with AMIX =  0.4000 and BMIX =      1.0000
 Hartree-type preconditioning will be used
 using additional bands           235
 real space projection scheme for non local part
 use partial core corrections
 calculate Harris-corrections to forces 
   (improved forces if not selfconsistent)
 use gradient corrections 
 use of overlap-Matrix (Vanderbilt PP)
 Gauss-broadening in eV      SIGMA  =   0.15


--------------------------------------------------------------------------------------------------------


  energy-cutoff  :      500.00
  volume of cell :     3686.99
      direct lattice vectors                 reciprocal lattice vectors
     9.726678000  0.000000000  0.000000000     0.102810024  0.000000000  0.000000000
     0.000000000  8.423550000  0.000000000     0.000000000  0.118714794  0.000000000
     0.000000000  0.000000000 45.000000000     0.000000000  0.000000000  0.022222222

  length of vectors
     9.726678000  8.423550000 45.000000000     0.102810024  0.118714794  0.022222222


 
 k-points in units of 2pi/SCALE and weight: Automatic mesh                          
   0.00000000  0.00000000  0.00000000       0.063
   0.02570251  0.00000000  0.00000000       0.125
   0.05140501  0.00000000  0.00000000       0.063
   0.00000000  0.02967870  0.00000000       0.125
   0.02570251  0.02967870  0.00000000       0.125
   0.05140501  0.02967870  0.00000000       0.125
  -0.02570251  0.02967870  0.00000000       0.125
   0.00000000  0.05935740  0.00000000       0.063
   0.02570251  0.05935740  0.00000000       0.125
   0.05140501  0.05935740  0.00000000       0.063
 
 k-points in reciprocal lattice and weights: Automatic mesh                          
   0.00000000  0.00000000  0.00000000       0.063
   0.25000000  0.00000000  0.00000000       0.125
   0.50000000  0.00000000  0.00000000       0.063
   0.00000000  0.25000000  0.00000000       0.125
   0.25000000  0.25000000  0.00000000       0.125
   0.50000000  0.25000000  0.00000000       0.125
  -0.25000000  0.25000000  0.00000000       0.125
   0.00000000  0.50000000  0.00000000       0.063
   0.25000000  0.50000000  0.00000000       0.125
   0.50000000  0.50000000  0.00000000       0.063
 
 position of ions in fractional coordinates (direct lattice) 
   0.68762813  0.79125921  0.60978603
   0.43739145  0.46052851  0.83105004
   0.56267790  0.70326770  0.34632595
   0.56238332  0.20712328  0.56510507
   0.56248068  0.54100880  0.60984970
   0.68751855  0.61915537  0.30195668
   0.81257381  0.37695050  0.78628269
   0.81293684  0.53726412  0.39023282
   0.81252142  0.54260545  0.74222886
   0.81172186  0.37247598  0.52129378
   0.93811260  0.96111468  0.83119135
   0.56255132  0.04392459  0.87331309
   0.81243792  0.20540518  0.47858903
   0.56262376  0.70851526  0.69804387
   0.31225679  0.53693747  0.39025091
   0.18733302  0.12235706  0.52134766
   0.68761139  0.62467755  0.65366852
   0.93747632  0.28332487  0.12684407
   0.56267948  0.53503060  0.25789707
   0.93757066  0.28709057  0.39023452
   0.06256720  0.86791791  0.16900334
   0.18763184  0.62255526  0.52130013
   0.81268356  0.86681024  0.16902447
   0.31269466  0.71068519  0.83093277
   0.31244328  0.37694313  0.78623785
   0.31226436  0.87255207  0.52115581
   0.81290336  0.21031018  0.83121718
   0.06241305  0.54051171  0.60971086
   0.06274114  0.70677781  0.56511458
   0.06241116  0.86842361  0.30193123
   0.18729144  0.95292153  0.34636353
   0.93751883  0.79303504  0.74215004
   0.68742353  0.62219770  0.52128956
   0.18745607  0.78403995  0.12682314
   0.68785488  0.12107561  0.43477089
   0.81250561  0.04302291  0.74223074
   0.56207843  0.37481023  0.65373510
   0.56254898  0.20566993  0.47867534
   0.18759947  0.11771116  0.16909779
   0.43739233  0.12692661  0.78638214
   0.06254609  0.70267797  0.34638289
   0.43740874  0.45500917  0.47862707
   0.93772556  0.45299412  0.34637026
   0.81246073  0.04025937  0.60972787
   0.56248976  0.03478434  0.25788530
   0.18741263  0.79287901  0.74212194
   0.56264235  0.37278046  0.52131382
   0.81236539  0.70519199  0.47861197
   0.31237284  0.20316587  0.34634494
   0.06249119  0.20115857  0.21378121
   0.81213860  0.87666382  0.78617616
   0.06250805  0.03501231  0.25790736
   0.93750548  0.29036525  0.60979491
   0.31275770  0.37116521  0.43464157
   0.56251658  0.36915580  0.30195753
   0.68728255  0.96044508  0.83099526
   0.18745211  0.12490213  0.65371534
   0.68763333  0.45519404  0.47853151
   0.81295112  0.03446723  0.12685151
   0.06252096  0.87118221  0.43477625
   0.43762150  0.29104293  0.60977341
   0.56253248  0.87461342  0.65356313
   0.06245006  0.53721070  0.39017169
   0.31238145  0.04306019  0.74216157
   0.43703138  0.11718089  0.16898704
   0.31259911  0.86889299  0.30198509
   0.68737175  0.95515569  0.47850184
   0.93649629  0.29396675  0.87327362
   0.93731499  0.12122479  0.43473355
   0.93731362  0.62709598  0.78625168
   0.68780404  0.95337345  0.34637629
   0.18708350  0.45309840  0.34637928
   0.56260854  0.54291471  0.74211698
   0.31192210  0.20688406  0.56517635
   0.06313548  0.53418204  0.12684778
   0.56256294  0.37114874  0.43473810
   0.68740408  0.45054320  0.21382138
   0.93741940  0.95284126  0.34634565
   0.93736793  0.28500018  0.25790716
   0.18745520  0.12695356  0.78631415
   0.31217167  0.36899670  0.30189280
   0.93760027  0.62140426  0.43496614
   0.31311893  0.04463342  0.87325518
   0.68774343  0.28452663  0.12683217
   0.18761976  0.62481147  0.65367649
   0.06226075  0.87442447  0.65363302
   0.68771150  0.29267797  0.74213404
   0.18738049  0.78479412  0.25785506
   0.31305211  0.37277105  0.52136533
   0.93733349  0.45112116  0.21379682
   0.31286403  0.03504404  0.25787250
   0.68772905  0.12213228  0.52131842
   0.68739896  0.12687718  0.78626942
   0.81206068  0.37111215  0.43462041
   0.93748207  0.61874617  0.30199027
   0.18716049  0.29109479  0.60984687
   0.68759440  0.79364138  0.87322048
   0.31235718  0.70633597  0.56502589
   0.43745387  0.11917661  0.30195919
   0.06253078  0.70512736  0.47857468
   0.18742097  0.28705107  0.39018321
   0.31209584  0.21037298  0.83113723
   0.93722951  0.12279580  0.52128193
   0.56231900  0.04313958  0.74222877
   0.56265322  0.87084386  0.43471868
   0.18750566  0.45110272  0.21377766
   0.06222653  0.70845642  0.69807944
   0.43756182  0.78389483  0.12682364
   0.93770578  0.79298911  0.87327975
   0.93746653  0.45500671  0.47859473
   0.81257491  0.87131901  0.43473578
   0.56248390  0.71048340  0.83106602
   0.06237523  0.03743211  0.39021240
   0.18736277  0.12105298  0.43467133
   0.06287807  0.37486142  0.65369389
   0.68781404  0.45336387  0.34632823
   0.31239003  0.04085817  0.60968925
   0.81282826  0.36877085  0.30187370
   0.56251872  0.86951602  0.30190943
   0.06250366  0.20289291  0.34640766
   0.43746617  0.28676576  0.39016445
   0.68768124  0.78486163  0.25783391
   0.31248478  0.36692783  0.16891960
   0.43707126  0.79049012  0.60969994
   0.93771020  0.46086809  0.83096367
   0.93749632  0.78481950  0.25786175
   0.43760603  0.95476751  0.47856944
   0.31252618  0.54288703  0.74221324
   0.56291137  0.20874574  0.69812445
   0.68773680  0.29416397  0.87335322
   0.81243381  0.86882453  0.30201180
   0.43728845  0.78709345  0.39020776
   0.43741759  0.62072660  0.43490807
   0.56210684  0.03430620  0.12687042
   0.18767927  0.62123892  0.43461072
   0.81233918  0.71046846  0.83099450
   0.81220086  0.53487211  0.25785301
   0.06304973  0.20637489  0.56511612
   0.93751038  0.29290476  0.74229174
   0.06246835  0.54374551  0.87326513
   0.56241184  0.20102286  0.21369481
   0.81190747  0.70655532  0.56508074
   0.06253167  0.36866699  0.30196507
   0.93765972  0.12703681  0.78639343
   0.43746152  0.95894308  0.69808783
   0.81187813  0.36731348  0.16893591
   0.18843000  0.29398010  0.87330500
   0.31218825  0.20564099  0.47865084
   0.81181423  0.04455536  0.87328182
   0.56256566  0.37666486  0.78649106
   0.06247055  0.70113530  0.21379256
   0.56253421  0.21054937  0.83110584
   0.06286148  0.20491518  0.47847638
   0.93747193  0.78730979  0.39022481
   0.31243780  0.70874694  0.69802238
   0.18765693  0.29285836  0.74219930
   0.43771383  0.96045340  0.83106482
   0.68730411  0.62102516  0.43472280
[...]


--------------------------------------------------------------------------------------------------------




--------------------------------------- Iteration      4(  58)  ---------------------------------------


    POTLOK:  cpu time    0.3814: real time    0.3827
    SETDIJ:  cpu time    0.0402: real time    0.0403
    EDDIAG:  cpu time   32.3813: real time   32.3802
  RMM-DIIS:  cpu time   50.8076: real time   50.8060
    ORTHCH:  cpu time    8.9531: real time    8.9527
       DOS:  cpu time    0.0064: real time    0.0064
    CHARGE:  cpu time    4.2036: real time    4.2034
    MIXING:  cpu time    0.1295: real time    0.1295
    --------------------------------------------
      LOOP:  cpu time   96.9031: real time   96.9012

 eigenvalue-minimisations  : 31851
 total energy-change (2. order) : 0.8223262E+04  (-0.1648332E+05)
 number of electron    2288.9999984 magnetization 
 augmentation part      945.6393280 magnetization 

 Broyden mixing:
  rms(total) = 0.89738E+03    rms(broyden)= 0.89738E+03
  rms(prec ) = 0.90741E+03
  weight for this iteration     100.00

 eigenvalues of (default mixing * dielectric matrix)
  average eigenvalue GAMMA=   0.2193
  2.4400  0.6157  0.6157  0.5480  0.3484  0.3767  0.3767  0.3481  0.3481  0.3074
  0.3074  0.3164  0.2585  0.2585  0.2783  0.1611  0.1611  0.1541  0.1088  0.1088
  0.0979  0.0979  0.1092  0.1092  0.0759  0.0759  0.0426  0.0426  0.0251  0.0251
  0.0159  0.0076  0.0076  0.0078  0.0045  0.0045  0.0052  0.0052  0.0050  0.0001
  0.0031  0.0031

 Free energy of the ion-electron system (eV)
  ---------------------------------------------------
  alpha Z        PSCENC =     16277.55763135
  Ewald energy   TEWEN  =    755779.93194300
  -Hartree energ DENC   =   -849185.75910786
  -exchange      EXHF   =         0.00000000
  -V(xc)+E(xc)   XCENC  =     -6594.25074681
  PAW double counting   =  11518065.06901295-11526175.68069960
  entropy T*S    EENTRO =        -0.68812593
  eigenvalues    EBANDS =   -232231.48797463
  atomic energy  EATOM  =    168497.18126305
  Solvation  Ediel_sol  =         0.00000000
  ---------------------------------------------------
  free energy    TOTEN  =   -155568.12680449 eV

  energy without entropy =  -155567.43867856  energy(sigma->0) =  -155567.78274152


--------------------------------------------------------------------------------------------------------




--------------------------------------- Iteration      4(  59)  ---------------------------------------


    POTLOK:  cpu time    0.3813: real time    0.3828
    SETDIJ:  cpu time    0.0406: real time    0.0406
    EDDIAG:  cpu time   32.4333: real time   32.4322
  RMM-DIIS:  cpu time   58.8308: real time   58.8289
    ORTHCH:  cpu time    8.6032: real time    8.6030
       DOS:  cpu time    0.1246: real time    0.1246
    CHARGE:  cpu time    4.2322: real time    4.2320
    MIXING:  cpu time    0.1340: real time    0.1340
    --------------------------------------------
      LOOP:  cpu time  104.7799: real time  104.7780

 eigenvalue-minimisations  : 37152
 total energy-change (2. order) : 0.3481230E+05  (-0.2271003E+05)
 number of electron    2288.9999963 magnetization 
 augmentation part      834.8685221 magnetization 

 Broyden mixing:
  rms(total) = 0.10378E+04    rms(broyden)= 0.10378E+04
  rms(prec ) = 0.10455E+04
  weight for this iteration     100.00

 eigenvalues of (default mixing * dielectric matrix)
  average eigenvalue GAMMA=   0.2210
  2.4828  0.7610  0.5942  0.3887  0.4238  0.4238  0.3602  0.3602  0.2792  0.2792
  0.3109  0.2957  0.2957  0.2721  0.2721  0.2107  0.2107  0.1549  0.1549  0.1513
  0.1129  0.1129  0.0983  0.0983  0.0902  0.0539  0.0539  0.0340  0.0340  0.0319
  0.0319  0.0143  0.0076  0.0076  0.0099  0.0046  0.0046  0.0051  0.0051  0.0053
  0.0001  0.0030  0.0030

 Free energy of the ion-electron system (eV)
  ---------------------------------------------------
  alpha Z        PSCENC =     16277.55763135
  Ewald energy   TEWEN  =    755779.93194300
  -Hartree energ DENC   =   -847167.49904843
  -exchange      EXHF   =         0.00000000
  -V(xc)+E(xc)   XCENC  =     -6591.24588540
  PAW double counting   =  11633625.46447650-11641815.70332214
  entropy T*S    EENTRO =        -0.68641132
  eigenvalues    EBANDS =   -199360.83164085
  atomic energy  EATOM  =    168497.18126305
  Solvation  Ediel_sol  =         0.00000000
  ---------------------------------------------------
  free energy    TOTEN  =   -120755.83099425 eV

  energy without entropy =  -120755.14458293  energy(sigma->0) =  -120755.48778859


--------------------------------------------------------------------------------------------------------




--------------------------------------- Iteration      4(  60)  ---------------------------------------


    POTLOK:  cpu time    0.3482: real time    0.3501
    SETDIJ:  cpu time    0.0587: real time    0.0587
    EDDIAG:  cpu time   33.5651: real time   33.5640
  RMM-DIIS:  cpu time   61.8824: real time   61.8803
    ORTHCH:  cpu time    9.2036: real time    9.2033
       DOS:  cpu time    0.6251: real time    0.6251
    CHARGE:  cpu time    4.1924: real time    4.1923
    MIXING:  cpu time    0.1392: real time    0.1392
    --------------------------------------------
      LOOP:  cpu time  110.0146: real time  110.0129

 eigenvalue-minimisations  : 39123
 total energy-change (2. order) : 0.2108736E+05  (-0.1756925E+05)
 number of electron    2288.9999905 magnetization 
 augmentation part      837.4388362 magnetization 

 Broyden mixing:
  rms(total) = 0.10397E+04    rms(broyden)= 0.10397E+04
  rms(prec ) = 0.10455E+04
  weight for this iteration     100.00

 eigenvalues of (default mixing * dielectric matrix)
  average eigenvalue GAMMA=   0.2226
  2.4284  0.7605  0.5686  0.3605  0.3467  0.3467  0.4027  0.4027  0.4165  0.2991
  0.2991  0.3164  0.3144  0.3144  0.2384  0.2384  0.1975  0.1975  0.2270  0.1454
  0.1022  0.1022  0.1106  0.1106  0.0927  0.0927  0.0799  0.0799  0.0394  0.0394
  0.0266  0.0266  0.0159  0.0088  0.0070  0.0070  0.0052  0.0052  0.0044  0.0044
  0.0050  0.0001  0.0032  0.0032

 Free energy of the ion-electron system (eV)
  ---------------------------------------------------
  alpha Z        PSCENC =     16277.55763135
  Ewald energy   TEWEN  =    755779.93194300
  -Hartree energ DENC   =   -853181.78793274
  -exchange      EXHF   =         0.00000000
  -V(xc)+E(xc)   XCENC  =     -6607.59723474
  PAW double counting   =  11528891.43479419-11536731.33084972
  entropy T*S    EENTRO =        -0.63448211
  eigenvalues    EBANDS =   -172593.22814053
  atomic energy  EATOM  =    168497.18126305
  Solvation  Ediel_sol  =         0.00000000
  ---------------------------------------------------
  free energy    TOTEN  =    -99668.47300826 eV

  energy without entropy =   -99667.83852615  energy(sigma->0) =   -99668.15576720


--------------------------------------------------------------------------------------------------------




--------------------------------------- Iteration      4(  61)  ---------------------------------------


    POTLOK:  cpu time    0.3680: real time    0.3694
    SETDIJ:  cpu time    0.0490: real time    0.0490
    EDDIAG:  cpu time   31.5941: real time   31.5930
  RMM-DIIS:  cpu time   75.0111: real time   75.0086
    ORTHCH:  cpu time    8.9738: real time    8.9735
       DOS:  cpu time    0.0060: real time    0.0060
    CHARGE:  cpu time    4.2151: real time    4.2150
    MIXING:  cpu time    0.1284: real time    0.1284
    --------------------------------------------
      LOOP:  cpu time  120.3455: real time  120.3429

 eigenvalue-minimisations  : 47802
 total energy-change (2. order) : 0.1535780E+05  (-0.2412260E+05)
 number of electron    2288.9999891 magnetization 
 augmentation part      882.6669739 magnetization 

 Broyden mixing:
  rms(total) = 0.98539E+03    rms(broyden)= 0.98539E+03
  rms(prec ) = 0.99024E+03
  weight for this iteration     100.00

 eigenvalues of (default mixing * dielectric matrix)
  average eigenvalue GAMMA=   0.1828
  2.2629  0.5268  0.4437  0.4437  0.3529  0.3279  0.3279  0.2422  0.2422  0.2365
  0.2365  0.2014  0.2014  0.1577  0.1577  0.1223  0.1223  0.0684  0.1018  0.0621
  0.0621  0.0747  0.0747  0.0465  0.0465  0.0429  0.0429  0.0181  0.0181  0.0078
  0.0078  0.0061  0.0044  0.0044  0.0046  0.0037  0.0033  0.0033  0.0004  0.0002

 Free energy of the ion-electron system (eV)
  ---------------------------------------------------
  alpha Z        PSCENC =     16277.55763135
  Ewald energy   TEWEN  =    755779.93194300
  -Hartree energ DENC   =   -856873.23085545
  -exchange      EXHF   =         0.00000000
  -V(xc)+E(xc)   XCENC  =     -6605.26363760
  PAW double counting   =  11639972.63848722-11647859.23084075
  entropy T*S    EENTRO =        -0.33467688
  eigenvalues    EBANDS =   -153499.92185015
  atomic energy  EATOM  =    168497.18126305
  Solvation  Ediel_sol  =         0.00000000
  ---------------------------------------------------
  free energy    TOTEN  =    -84310.67253622 eV

  energy without entropy =   -84310.33785934  energy(sigma->0) =   -84310.50519778


--------------------------------------------------------------------------------------------------------




--------------------------------------- Iteration      4(  62)  ---------------------------------------


    POTLOK:  cpu time    0.3717: real time    0.3730
    SETDIJ:  cpu time    0.0456: real time    0.0456
    EDDIAG:  cpu time   33.4791: real time   33.4780
  RMM-DIIS:  cpu time   74.3469: real time   74.3445
    ORTHCH:  cpu time    8.7668: real time    8.7665
       DOS:  cpu time    0.2511: real time    0.2511
    CHARGE:  cpu time    4.1693: real time    4.1692
    MIXING:  cpu time    0.1251: real time    0.1251
    --------------------------------------------
      LOOP:  cpu time  121.5557: real time  121.5530

 eigenvalue-minimisations  : 47390
 total energy-change (2. order) :-0.4195469E+04  (-0.3720473E+05)
 number of electron    2288.9999853 magnetization 
 augmentation part      952.4152221 magnetization 

 Broyden mixing:
  rms(total) = 0.88338E+03    rms(broyden)= 0.88338E+03
  rms(prec ) = 0.88736E+03
  weight for this iteration     100.00

 eigenvalues of (default mixing * dielectric matrix)
  average eigenvalue GAMMA=   0.1868
  2.3141  0.5192  0.5192  0.3765  0.3765  0.3202  0.3202  0.3199  0.2797  0.2797
  0.2240  0.1400  0.1400  0.1490  0.1490  0.1447  0.1447  0.1420  0.1420  0.0873
  0.0873  0.0934  0.0720  0.0720  0.0457  0.0441  0.0441  0.0389  0.0163  0.0123
  0.0083  0.0059  0.0059  0.0040  0.0040  0.0049  0.0049  0.0041  0.0041  0.0000
  0.0007

 Free energy of the ion-electron system (eV)
  ---------------------------------------------------
  alpha Z        PSCENC =     16277.55763135
  Ewald energy   TEWEN  =    755779.93194300
  -Hartree energ DENC   =   -862400.46144685
  -exchange      EXHF   =         0.00000000
  -V(xc)+E(xc)   XCENC  =     -6599.10378178
  PAW double counting   =  11546262.55021805-11554472.41630708
  entropy T*S    EENTRO =        -0.16904061
  eigenvalues    EBANDS =   -151851.21157326
  atomic energy  EATOM  =    168497.18126305
  Solvation  Ediel_sol  =         0.00000000
  ---------------------------------------------------
  free energy    TOTEN  =    -88506.14109414 eV

  energy without entropy =   -88505.97205353  energy(sigma->0) =   -88506.05657383


--------------------------------------------------------------------------------------------------------




--------------------------------------- Iteration      4(  63)  ---------------------------------------


    POTLOK:  cpu time    0.3779: real time    0.3797
    SETDIJ:  cpu time    0.0418: real time    0.0418
    EDDIAG:  cpu time   34.8714: real time   34.8703
  RMM-DIIS:  cpu time   72.8510: real time   72.8487
    ORTHCH:  cpu time    8.9839: real time    8.9836
       DOS:  cpu time    0.5973: real time    0.5973
    CHARGE:  cpu time    4.1401: real time    4.1400
    MIXING:  cpu time    0.1295: real time    0.1295
    --------------------------------------------
      LOOP:  cpu time  121.9929: real time  121.9909

 eigenvalue-minimisations  : 46472
 total energy-change (2. order) : 0.4764038E+04  (-0.3207836E+05)
 number of electron    2288.9999842 magnetization 
 augmentation part      995.9002558 magnetization 

 Broyden mixing:
  rms(total) = 0.96581E+03    rms(broyden)= 0.96581E+03
  rms(prec ) = 0.97023E+03
  weight for this iteration     100.00

 eigenvalues of (default mixing * dielectric matrix)
  average eigenvalue GAMMA=   0.1878
  2.2469  0.5617  0.5617  0.3526  0.3526  0.3412  0.3412  0.3101  0.2617  0.2503
  0.2503  0.2147  0.2147  0.1691  0.1691  0.1572  0.1478  0.1478  0.1017  0.1017
  0.1066  0.1066  0.0697  0.0697  0.0463  0.0478  0.0478  0.0390  0.0212  0.0162
  0.0162  0.0075  0.0075  0.0069  0.0044  0.0044  0.0035  0.0035  0.0041  0.0041
  0.0001  0.0001

 Free energy of the ion-electron system (eV)
  ---------------------------------------------------
  alpha Z        PSCENC =     16277.55763135
  Ewald energy   TEWEN  =    755779.93194300
  -Hartree energ DENC   =   -859620.58754043
  -exchange      EXHF   =         0.00000000
  -V(xc)+E(xc)   XCENC  =     -6594.00773911
  PAW double counting   =  11346224.24246235-11354478.12191175
  entropy T*S    EENTRO =        -0.27376146
  eigenvalues    EBANDS =   -149828.02520007
  atomic energy  EATOM  =    168497.18126305
  Solvation  Ediel_sol  =         0.00000000
  ---------------------------------------------------
  free energy    TOTEN  =    -83742.10285310 eV

  energy without entropy =   -83741.82909163  energy(sigma->0) =   -83741.96597236


--------------------------------------------------------------------------------------------------------




--------------------------------------- Iteration      4(  64)  ---------------------------------------


    POTLOK:  cpu time    0.3801: real time    0.3810
    SETDIJ:  cpu time    0.0409: real time    0.0409
    EDDIAG:  cpu time   34.4755: real time   34.4743
  RMM-DIIS:  cpu time   70.7561: real time   70.7538
    ORTHCH:  cpu time    8.6449: real time    8.6446
       DOS:  cpu time    0.4643: real time    0.4643
    CHARGE:  cpu time    4.1730: real time    4.1729
    MIXING:  cpu time    0.1342: real time    0.1342
    --------------------------------------------
      LOOP:  cpu time  119.0691: real time  119.0661

 eigenvalue-minimisations  : 45064
 total energy-change (2. order) :-0.2056726E+05  (-0.3076855E+05)
 number of electron    2288.9999868 magnetization 
 augmentation part     1007.2086745 magnetization 

 Broyden mixing:
  rms(total) = 0.10898E+04    rms(broyden)= 0.10898E+04
  rms(prec ) = 0.10959E+04
  weight for this iteration     100.00

 eigenvalues of (default mixing * dielectric matrix)
  average eigenvalue GAMMA=   0.1881
  2.2148  0.6446  0.6446  0.2859  0.2859  0.3376  0.3376  0.3150  0.3150  0.2706
  0.2706  0.2462  0.2462  0.1726  0.1726  0.1477  0.1477  0.1366  0.1062  0.1062
  0.1007  0.1007  0.0767  0.0767  0.0563  0.0563  0.0318  0.0387  0.0333  0.0333
  0.0175  0.0175  0.0074  0.0074  0.0068  0.0048  0.0048  0.0036  0.0036  0.0040
  0.0040  0.0002  0.0002

 Free energy of the ion-electron system (eV)
  ---------------------------------------------------
  alpha Z        PSCENC =     16277.55763135
  Ewald energy   TEWEN  =    755779.93194300
  -Hartree energ DENC   =   -859628.74797552
  -exchange      EXHF   =         0.00000000
  -V(xc)+E(xc)   XCENC  =     -6598.67401053
  PAW double counting   =  11335268.27512802-11343434.60407195
  entropy T*S    EENTRO =        -0.18363710
  eigenvalues    EBANDS =   -170470.09902600
  atomic energy  EATOM  =    168497.18126305
  Solvation  Ediel_sol  =         0.00000000
  ---------------------------------------------------
  free energy    TOTEN  =   -104309.36275568 eV

  energy without entropy =  -104309.17911858  energy(sigma->0) =  -104309.27093713


--------------------------------------------------------------------------------------------------------




--------------------------------------- Iteration      4(  65)  ---------------------------------------


    POTLOK:  cpu time    0.3810: real time    0.3825
    SETDIJ:  cpu time    0.0409: real time    0.0409
    EDDIAG:  cpu time   35.2319: real time   35.2307
  RMM-DIIS:  cpu time   68.2650: real time   68.2628
    ORTHCH:  cpu time    8.6283: real time    8.6280
       DOS:  cpu time    0.3615: real time    0.3616
    CHARGE:  cpu time    4.2978: real time    4.2977
    MIXING:  cpu time    0.1388: real time    0.1388
    --------------------------------------------
      LOOP:  cpu time  117.3453: real time  117.3431

 eigenvalue-minimisations  : 43411
 total energy-change (2. order) : 0.5786493E+04  (-0.1304324E+05)
 number of electron    2288.9999888 magnetization 
 augmentation part      963.2349427 magnetization 

 Broyden mixing:
  rms(total) = 0.11667E+04    rms(broyden)= 0.11667E+04
  rms(prec ) = 0.11737E+04
  weight for this iteration     100.00

 eigenvalues of (default mixing * dielectric matrix)
  average eigenvalue GAMMA=   0.1887
  2.1986  0.6262  0.6262  0.2959  0.2959  0.3371  0.3371  0.3045  0.3045  0.2361
  0.2361  0.2694  0.2694  0.2749  0.2749  0.1325  0.1325  0.1335  0.1335  0.1281
  0.1281  0.1110  0.0702  0.0727  0.0727  0.0450  0.0450  0.0329  0.0329  0.0385
  0.0210  0.0210  0.0177  0.0094  0.0064  0.0064  0.0056  0.0039  0.0039  0.0028
  0.0028  0.0000  0.0011  0.0036

 Free energy of the ion-electron system (eV)
  ---------------------------------------------------
  alpha Z        PSCENC =     16277.55763135
  Ewald energy   TEWEN  =    755779.93194300
  -Hartree energ DENC   =   -860550.13846384
  -exchange      EXHF   =         0.00000000
  -V(xc)+E(xc)   XCENC  =     -6601.51528620
  PAW double counting   =  11321743.03318994-11329886.76847006
  entropy T*S    EENTRO =        -1.56543626
  eigenvalues    EBANDS =   -163780.58602530
  atomic energy  EATOM  =    168497.18126305
  Solvation  Ediel_sol  =         0.00000000
  ---------------------------------------------------
  free energy    TOTEN  =    -98522.86965431 eV

  energy without entropy =   -98521.30421806  energy(sigma->0) =   -98522.08693619


--------------------------------------------------------------------------------------------------------




--------------------------------------- Iteration      4(  66)  ---------------------------------------


    POTLOK:  cpu time    0.3712: real time    0.3721
    SETDIJ:  cpu time    0.0457: real time    0.0457
    EDDIAG:  cpu time   42.6347: real time   42.6333
  RMM-DIIS:  cpu time   67.3729: real time   67.3707
    ORTHCH:  cpu time    9.2289: real time    9.2286
       DOS:  cpu time    0.0050: real time    0.0050
    CHARGE:  cpu time    4.1935: real time    4.1933
    MIXING:  cpu time    0.1285: real time    0.1285
    --------------------------------------------
      LOOP:  cpu time  123.9804: real time  123.9773

 eigenvalue-minimisations  : 42764
 total energy-change (2. order) : 0.1891507E+04  (-0.5917386E+04)
 number of electron    2288.9999900 magnetization 
 augmentation part      905.3052189 magnetization 

 Broyden mixing:
  rms(total) = 0.12183E+04    rms(broyden)= 0.12183E+04
  rms(prec ) = 0.12259E+04
  weight for this iteration     100.00

 eigenvalues of (default mixing * dielectric matrix)
  average eigenvalue GAMMA=   0.1642
  2.2450  0.4186  0.3547  0.3547  0.3549  0.2563  0.2563  0.2554  0.2554  0.2437
  0.1895  0.1895  0.1649  0.1649  0.1165  0.1165  0.0654  0.0654  0.0710  0.0710
  0.0604  0.0392  0.0392  0.0496  0.0315  0.0315  0.0164  0.0204  0.0204  0.0076
  0.0076  0.0069  0.0069  0.0056  0.0056  0.0034  0.0034  0.0023  0.0005  0.0000

 Free energy of the ion-electron system (eV)
  ---------------------------------------------------
  alpha Z        PSCENC =     16277.55763135
  Ewald energy   TEWEN  =    755779.93194300
  -Hartree energ DENC   =   -858008