unknown system                          
            1
     9.726678    0.000000    0.000000
     0.000000    8.423550    0.000000
     0.000000    0.000000   45.000000
   Fe   Mn
 273  15
Direct configuration=     1
   0.68762813  0.79125921  0.60978603
   0.43739145  0.46052851  0.83105004
   0.56267790  0.70326770  0.34632595
   0.56238332  0.20712328  0.56510507
   0.56248068  0.54100880  0.60984970
   0.68751855  0.61915537  0.30195668
   0.81257381  0.37695050  0.78628269
   0.81293684  0.53726412  0.39023282
   0.81252142  0.54260545  0.74222886
   0.81172186  0.37247598  0.52129378
   0.93811260  0.96111468  0.83119135
   0.56255132  0.04392459  0.87331309
   0.81243792  0.20540518  0.47858903
   0.56262376  0.70851526  0.69804387
   0.31225679  0.53693747  0.39025091
   0.18733302  0.12235706  0.52134766
   0.68761139  0.62467755  0.65366852
   0.93747632  0.28332487  0.12684407
   0.56267948  0.53503060  0.25789707
   0.93757066  0.28709057  0.39023452
   0.06256720  0.86791791  0.16900334
   0.18763184  0.62255526  0.52130013
   0.81268356  0.86681024  0.16902447
   0.31269466  0.71068519  0.83093277
   0.31244328  0.37694313  0.78623785
   0.31226436  0.87255207  0.52115581
   0.81290336  0.21031018  0.83121718
   0.06241305  0.54051171  0.60971086
   0.06274114  0.70677781  0.56511458
   0.06241116  0.86842361  0.30193123
   0.18729144  0.95292153  0.34636353
   0.93751883  0.79303504  0.74215004
   0.68742353  0.62219770  0.52128956
   0.18745607  0.78403995  0.12682314
   0.68785488  0.12107561  0.43477089
   0.81250561  0.04302291  0.74223074
   0.56207843  0.37481023  0.65373510
   0.56254898  0.20566993  0.47867534
   0.18759947  0.11771116  0.16909779
   0.43739233  0.12692661  0.78638214
   0.06254609  0.70267797  0.34638289
   0.43740874  0.45500917  0.47862707
   0.93772556  0.45299412  0.34637026
   0.81246073  0.04025937  0.60972787
   0.56248976  0.03478434  0.25788530
   0.18741263  0.79287901  0.74212194
   0.56264235  0.37278046  0.52131382
   0.81236539  0.70519199  0.47861197
   0.31237284  0.20316587  0.34634494
   0.06249119  0.20115857  0.21378121
   0.81213860  0.87666382  0.78617616
   0.06250805  0.03501231  0.25790736
   0.93750548  0.29036525  0.60979491
   0.31275770  0.37116521  0.43464157
   0.56251658  0.36915580  0.30195753
   0.68728255  0.96044508  0.83099526
   0.18745211  0.12490213  0.65371534
   0.68763333  0.45519404  0.47853151
   0.81295112  0.03446723  0.12685151
   0.06252096  0.87118221  0.43477625
   0.43762150  0.29104293  0.60977341
   0.56253248  0.87461342  0.65356313
   0.06245006  0.53721070  0.39017169
   0.31238145  0.04306019  0.74216157
   0.43703138  0.11718089  0.16898704
   0.31259911  0.86889299  0.30198509
   0.68737175  0.95515569  0.47850184
   0.93649629  0.29396675  0.87327362
   0.93731499  0.12122479  0.43473355
   0.93731362  0.62709598  0.78625168
   0.68780404  0.95337345  0.34637629
   0.18708350  0.45309840  0.34637928
   0.56260854  0.54291471  0.74211698
   0.31192210  0.20688406  0.56517635
   0.06313548  0.53418204  0.12684778
   0.56256294  0.37114874  0.43473810
   0.68740408  0.45054320  0.21382138
   0.93741940  0.95284126  0.34634565
   0.93736793  0.28500018  0.25790716
   0.18745520  0.12695356  0.78631415
   0.31217167  0.36899670  0.30189280
   0.93760027  0.62140426  0.43496614
   0.31311893  0.04463342  0.87325518
   0.68774343  0.28452663  0.12683217
   0.18761976  0.62481147  0.65367649
   0.06226075  0.87442447  0.65363302
   0.68771150  0.29267797  0.74213404
   0.18738049  0.78479412  0.25785506
   0.31305211  0.37277105  0.52136533
   0.93733349  0.45112116  0.21379682
   0.31286403  0.03504404  0.25787250
   0.68772905  0.12213228  0.52131842
   0.68739896  0.12687718  0.78626942
   0.81206068  0.37111215  0.43462041
   0.93748207  0.61874617  0.30199027
   0.18716049  0.29109479  0.60984687
   0.68759440  0.79364138  0.87322048
   0.31235718  0.70633597  0.56502589
   0.43745387  0.11917661  0.30195919
   0.06253078  0.70512736  0.47857468
   0.18742097  0.28705107  0.39018321
   0.31209584  0.21037298  0.83113723
   0.93722951  0.12279580  0.52128193
   0.56231900  0.04313958  0.74222877
   0.56265322  0.87084386  0.43471868
   0.18750566  0.45110272  0.21377766
   0.06222653  0.70845642  0.69807944
   0.43756182  0.78389483  0.12682364
   0.93770578  0.79298911  0.87327975
   0.93746653  0.45500671  0.47859473
   0.81257491  0.87131901  0.43473578
   0.56248390  0.71048340  0.83106602
   0.06237523  0.03743211  0.39021240
   0.18736277  0.12105298  0.43467133
   0.06287807  0.37486142  0.65369389
   0.68781404  0.45336387  0.34632823
   0.31239003  0.04085817  0.60968925
   0.81282826  0.36877085  0.30187370
   0.56251872  0.86951602  0.30190943
   0.06250366  0.20289291  0.34640766
   0.43746617  0.28676576  0.39016445
   0.68768124  0.78486163  0.25783391
   0.31248478  0.36692783  0.16891960
   0.43707126  0.79049012  0.60969994
   0.93771020  0.46086809  0.83096367
   0.93749632  0.78481950  0.25786175
   0.43760603  0.95476751  0.47856944
   0.31252618  0.54288703  0.74221324
   0.56291137  0.20874574  0.69812445
   0.68773680  0.29416397  0.87335322
   0.81243381  0.86882453  0.30201180
   0.43728845  0.78709345  0.39020776
   0.43741759  0.62072660  0.43490807
   0.56210684  0.03430620  0.12687042
   0.18767927  0.62123892  0.43461072
   0.81233918  0.71046846  0.83099450
   0.81220086  0.53487211  0.25785301
   0.06304973  0.20637489  0.56511612
   0.93751038  0.29290476  0.74229174
   0.06246835  0.54374551  0.87326513
   0.56241184  0.20102286  0.21369481
   0.81190747  0.70655532  0.56508074
   0.06253167  0.36866699  0.30196507
   0.93765972  0.12703681  0.78639343
   0.43746152  0.95894308  0.69808783
   0.81187813  0.36731348  0.16893591
   0.18843000  0.29398010  0.87330500
   0.31218825  0.20564099  0.47865084
   0.81181423  0.04455536  0.87328182
   0.56256566  0.37666486  0.78649106
   0.06247055  0.70113530  0.21379256
   0.56253421  0.21054937  0.83110584
   0.06286148  0.20491518  0.47847638
   0.93747193  0.78730979  0.39022481
   0.31243780  0.70874694  0.69802238
   0.18765693  0.29285836  0.74219930
   0.43771383  0.96045340  0.83106482
   0.68730411  0.62102516  0.43472280
   0.81248074  0.20095752  0.21374361
   0.31245184  0.87471616  0.65356475
   0.43751006  0.12112119  0.43502665
   0.68728797  0.29098757  0.60987791
   0.68753952  0.95090892  0.21372683
   0.81236402  0.54396573  0.87331607
   0.81286720  0.70114287  0.21384631
   0.93786761  0.11755964  0.16903764
   0.81271100  0.70869865  0.69801890
   0.68751136  0.78375730  0.12666817
   0.56245645  0.20352981  0.34636708
   0.43718920  0.29303740  0.74225670
   0.93747320  0.79022634  0.60960368
   0.43752906  0.45328325  0.34631669
   0.06249185  0.87701819  0.78628275
   0.31252357  0.37522282  0.65372532
   0.68752782  0.28459564  0.25783915
   0.43728496  0.28361443  0.12688837
   0.43741162  0.61775087  0.16898164
   0.18768325  0.79065943  0.60980013
   0.43752354  0.62663918  0.78627444
   0.18735216  0.45886951  0.69804256
   0.18760692  0.45533955  0.47863950
   0.43706601  0.62501445  0.65356995
   0.43749230  0.28496219  0.25778072
   0.31242911  0.70094184  0.21372712
   0.93759709  0.61769382  0.16893336
   0.81206254  0.87276306  0.52121730
   0.06230527  0.37758911  0.78629416
   0.06265412  0.37114466  0.43496796
   0.43746102  0.79284847  0.74216938
   0.81255171  0.37471473  0.65371519
   0.56235730  0.03715582  0.39021040
   0.18729521  0.79314022  0.87325442
   0.31255174  0.54377605  0.87330689
   0.68768186  0.79295001  0.74225093
   0.06249244  0.71106139  0.83118180
   0.43757244  0.95566055  0.56499974
   0.68749601  0.28727336  0.39023946
   0.31258884  0.20102514  0.21377571
   0.56252862  0.54413807  0.87324273
   0.93769142  0.95870643  0.69804924
   0.18768775  0.45632558  0.56514146
   0.18685654  0.96111739  0.83116705
   0.68747985  0.11692363  0.16902876
   0.56216600  0.70114391  0.21382419
   0.18735312  0.95900034  0.69805394
   0.18753947  0.28391542  0.12676728
   0.93759324  0.11859420  0.30199860
   0.43749984  0.12493180  0.65366603
   0.31248873  0.70522570  0.47863079
   0.81237372  0.20900410  0.69816732
   0.56312300  0.87251762  0.52119041
   0.68750610  0.78700956  0.39015502
   0.18752032  0.11859393  0.30198704
   0.31236539  0.03412542  0.12678271
   0.18736272  0.46097644  0.83108765
   0.06296926  0.87294845  0.52121778
   0.68744070  0.46048309  0.83097654
   0.06268737  0.04300309  0.74218930
   0.81218199  0.03485896  0.25788309
   0.93774099  0.12464056  0.65369974
   0.81227247  0.70298893  0.34641790
   0.68747771  0.62641019  0.78634849
   0.93746487  0.95489378  0.47861941
   0.43752032  0.95092826  0.21377971
   0.43739369  0.62284765  0.52130277
   0.31259965  0.54120881  0.60976201
   0.43754006  0.61930684  0.30200912
   0.31291044  0.87642654  0.78623486
   0.18762417  0.78743728  0.39025099
   0.43758244  0.45666480  0.56507944
   0.43775017  0.45100238  0.21379702
   0.93786860  0.62420520  0.65368387
   0.68778071  0.45645631  0.56505520
   0.43750297  0.78534402  0.25785194
   0.31274311  0.70333152  0.34641378
   0.93782192  0.45915394  0.69813130
   0.06251036  0.03380242  0.12682461
   0.81272308  0.20332999  0.34633691
   0.93747919  0.95123916  0.21381087
   0.06233907  0.54299421  0.74219055
   0.56306232  0.36753430  0.16902610
   0.31182578  0.53421466  0.12684818
   0.56236676  0.86674750  0.16900321
   0.18754889  0.62692992  0.78623026
   0.56261668  0.70545021  0.47857504
   0.18744191  0.61713000  0.16902385
   0.06244239  0.20979026  0.83116224
   0.81293933  0.03731849  0.39024506
   0.18748359  0.95123152  0.21374124
   0.68746892  0.11923259  0.30198606
   0.31261248  0.53505030  0.25785125
   0.93743975  0.45659142  0.56517959
   0.31233679  0.86766928  0.16905561
   0.68734119  0.45898397  0.69805373
   0.81258860  0.54111887  0.60980003
   0.06219691  0.20914712  0.69811533
   0.18803576  0.95627197  0.56498484
   0.43725165  0.29422929  0.87332496
   0.18765480  0.28508665  0.25790930
   0.56299226  0.53443053  0.12665661
   0.68659214  0.95665888  0.56504897
   0.31221249  0.87083547  0.43471367
   0.81198380  0.53443455  0.12664726
   0.81249111  0.87475457  0.65368164
   0.56226460  0.70669098  0.56501305
   0.18757462  0.61882643  0.30200259
   0.06263135  0.36714818  0.16900843
   0.43723553  0.45863826  0.69805387
   0.43742054  0.79363334  0.87320327
   0.18774575  0.95560672  0.47853175
   0.93741924  0.78397256  0.12679623
   0.56244003  0.87686211  0.78631939
   0.31229324  0.03711687  0.39018305
   0.43740178  0.12244818  0.52114198
   0.56255747  0.04132310  0.60958875
   0.56250630  0.53700688  0.39010938
   0.06299855  0.37227373  0.52125262
   0.93787190  0.95480575  0.56488033
   0.68731580  0.95795539  0.69822859
   0.93753766  0.62328576  0.52125836
   0.06250099  0.04390865  0.87308973
   0.81242588  0.20709158  0.56515916
   0.43750030  0.95351011  0.34645562
   0.06258477  0.53475981  0.25779073
   0.68776300  0.12544377  0.65363041
   0.68750706  0.61722436  0.16838060
   0.31255848  0.20932080  0.69819847
   0.06266227  0.04066221  0.60991496
Direct configuration=     2
   0.68528494  0.79226370  0.60950202
   0.43908486  0.45817905  0.83255094
   0.56213886  0.70551012  0.34589910
   0.56243057  0.20675406  0.56544481
   0.56157123  0.54261573  0.60880666
   0.68648001  0.61964834  0.30228654
   0.80955936  0.37349834  0.78740164
   0.81196522  0.53746527  0.38901880
   0.81036670  0.54209023  0.74137165
   0.81400381  0.37373301  0.52187846
   0.93815655  0.96346319  0.83313391
   0.56364699  0.04579436  0.87383202
   0.81200504  0.20666169  0.47717655
   0.56378697  0.71149954  0.69856458
   0.31395846  0.53890570  0.38903742
   0.18603854  0.12377341  0.52263603
   0.69284112  0.62467555  0.65508705
   0.93354975  0.27960151  0.12587147
   0.56385363  0.53827701  0.25872435
   0.93565537  0.28931688  0.38913425
   0.06212070  0.86703421  0.16843561
   0.18483763  0.62235377  0.52247887
   0.81301483  0.86746613  0.16823108
   0.31278315  0.71336580  0.83306846
   0.31520212  0.37384430  0.78700847
   0.31074728  0.87074299  0.52241353
   0.81276509  0.20986976  0.83321918
   0.06288179  0.54165555  0.61022809
   0.06219701  0.70617523  0.56439762
   0.06302955  0.86814421  0.30258069
   0.18976111  0.95189456  0.34506318
   0.93645063  0.79641253  0.74080377
   0.68979603  0.62128110  0.52232179
   0.18649861  0.78674179  0.12501760
   0.68822743  0.11973189  0.43354636
   0.81193505  0.04200942  0.74111697
   0.56281970  0.37424785  0.65529249
   0.56416508  0.20523169  0.47691821
   0.18704913  0.11523800  0.16866497
   0.43949838  0.12867523  0.78722983
   0.06274928  0.70210461  0.34542404
   0.43718691  0.45413445  0.47773718
   0.93760892  0.45361128  0.34577362
   0.81483805  0.04025162  0.60977102
   0.56298307  0.03163892  0.25870992
   0.18762901  0.79517856  0.74032417
   0.56200703  0.37357954  0.52221460
   0.81502987  0.70471730  0.47740806
   0.31318282  0.20148291  0.34526975
   0.06157227  0.19978698  0.21364267
   0.81144680  0.87978837  0.78705835
   0.06214913  0.03343354  0.25821322
   0.93894785  0.28883965  0.61047903
   0.31263833  0.37170091  0.43335821
   0.56224644  0.37071536  0.30263369
   0.68873504  0.96241186  0.83274545
   0.18481156  0.12364908  0.65522317
   0.68938318  0.45337969  0.47723286
   0.81343565  0.03575020  0.12500185
   0.06232962  0.87002321  0.43374223
   0.43663096  0.28980649  0.60927773
   0.56164836  0.87815598  0.65498753
   0.06229193  0.53774550  0.38896777
   0.31185765  0.04453479  0.74048167
   0.43639132  0.11486092  0.16849100
   0.31436945  0.86953794  0.30301183
   0.68793956  0.95618848  0.47655522
   0.93494344  0.28979545  0.87466781
   0.93508977  0.12118892  0.43375539
   0.93330138  0.62760657  0.78763069
   0.68600837  0.95252451  0.34565509
   0.18723092  0.45429257  0.34547106
   0.56273215  0.54263882  0.74129510
   0.31031124  0.20761734  0.56519899
   0.06184581  0.53696364  0.12639643
   0.56326279  0.37008067  0.43324087
   0.68876495  0.45343790  0.21425953
   0.93625726  0.95206178  0.34524451
   0.93629902  0.28348429  0.25826219
   0.18553558  0.12612960  0.78717818
   0.31260533  0.36924736  0.30298342
   0.93716753  0.62161595  0.43376778
   0.31187722  0.04543769  0.87431890
   0.69237079  0.28035384  0.12503603
   0.18501839  0.62623243  0.65496047
   0.06319453  0.87743809  0.65482291
   0.68702411  0.29197909  0.74170730
   0.18809742  0.78676000  0.25828990
   0.31329932  0.37484696  0.52225932
   0.93686554  0.45313998  0.21356594
   0.31164100  0.03252177  0.25865250
   0.69021456  0.12392406  0.52208959
   0.68948393  0.12866054  0.78719327
   0.81287548  0.37047513  0.43350483
   0.93660501  0.61934583  0.30288297
   0.18583916  0.28768036  0.61032549
   0.68912519  0.79669525  0.87393299
   0.31171633  0.70582250  0.56526869
   0.43670658  0.11689812  0.30322161
   0.06032524  0.70269765  0.47757576
   0.18884992  0.28939247  0.38903411
   0.31158463  0.20760932  0.83324753
   0.93668367  0.12343061  0.52234787
   0.56404249  0.04184979  0.74092224
   0.56233813  0.87174772  0.43319805
   0.18637165  0.45264326  0.21337767
   0.06246487  0.70957231  0.69724822
   0.43563459  0.78720369  0.12617176
   0.93791307  0.79667054  0.87454924
   0.93602612  0.45699472  0.47781401
   0.81199831  0.87177115  0.43353312
   0.56410157  0.71270752  0.83265199
   0.06227605  0.03694257  0.38913180
   0.18885152  0.11986854  0.43369862
   0.06220343  0.37339117  0.65530292
   0.68807290  0.45429568  0.34572010
   0.31130391  0.03889518  0.61016208
   0.81200169  0.37009105  0.30264184
   0.56136292  0.86859029  0.30292649
   0.06218839  0.20357173  0.34534335
   0.43837498  0.28743081  0.38902133
   0.68741739  0.78216433  0.25836951
   0.31188421  0.36736649  0.16903509
   0.43569256  0.79322353  0.60933660
   0.93574874  0.45821178  0.83284204
   0.93592416  0.78573031  0.25804641
   0.43812351  0.95509582  0.47628623
   0.31422670  0.54239666  0.74051275
   0.56198048  0.20536589  0.69845458
   0.69093305  0.28998211  0.87483773
   0.81135438  0.86810626  0.30258528
   0.43846315  0.78717277  0.38879142
   0.43657292  0.62287355  0.43291952
   0.56559230  0.03344756  0.12661871
   0.18790598  0.62183655  0.43319518
   0.81197170  0.71258161  0.83271897
   0.80985956  0.53727783  0.25831478
   0.06294134  0.20384740  0.56536026
   0.93666836  0.29035894  0.74137321
   0.06054505  0.54298764  0.87436812
   0.56354308  0.20008814  0.21335191
   0.81482127  0.70528578  0.56458351
   0.06332324  0.36928541  0.30310226
   0.93554516  0.12604909  0.78723383
   0.43753369  0.96039248  0.69801464
   0.81227496  0.36663261  0.16811125
   0.18607512  0.28965855  0.87448203
   0.31130928  0.20648099  0.47703164
   0.81284614  0.04759245  0.87417303
   0.56581443  0.37510483  0.78714411
   0.06125431  0.70296318  0.21351594
   0.56472871  0.21008629  0.83280025
   0.06242005  0.20493124  0.47698671
   0.93548635  0.78512404  0.38920405
   0.31044285  0.71035719  0.69791977
   0.18901428  0.29093012  0.74039167
   0.43812225  0.96167753  0.83308271
   0.68845642  0.62254080  0.43305085
   0.81422745  0.19924545  0.21370156
   0.30837437  0.87655641  0.65474061
   0.43792735  0.11902424  0.43362955
   0.68834118  0.29192905  0.60937893
   0.69005496  0.94848752  0.21349546
   0.81265001  0.54240520  0.87335496
   0.81406854  0.70235109  0.21388114
   0.93707979  0.11569237  0.16808803
   0.81313648  0.71210256  0.69779811
   0.68993858  0.78813879  0.12620112
   0.56209037  0.20144127  0.34556535
   0.43746773  0.29315436  0.74102940
   0.94096014  0.79064977  0.61013408
   0.43741272  0.45411457  0.34574057
   0.05999442  0.88200748  0.78728191
   0.30653821  0.37185769  0.65536795
   0.68817469  0.28731575  0.25857493
   0.43987464  0.28125452  0.12656586
   0.43727833  0.62037923  0.16882112
   0.18736467  0.79267665  0.61013240
   0.44139583  0.62499488  0.78711039
   0.18692345  0.45669428  0.69748399
   0.18744633  0.45540629  0.47736342
   0.43311103  0.62753653  0.65475255
   0.43785777  0.28697331  0.25876150
   0.31115212  0.70178096  0.21383442
   0.93765343  0.61970831  0.16867995
   0.81448119  0.87108405  0.52206220
   0.05921957  0.37204288  0.78727885
   0.06127779  0.37195682  0.43370645
   0.43901925  0.79256248  0.74062866
   0.81823416  0.37500074  0.65514625
   0.56163197  0.03470357  0.38893164
   0.18533253  0.79744259  0.87419723
   0.31260351  0.54356168  0.87320696
   0.68690204  0.79439029  0.74099142
   0.06127143  0.71412044  0.83325487
   0.43849433  0.95463930  0.56598146
   0.68726261  0.28792208  0.38916373
   0.31064307  0.19988359  0.21361539
   0.56391564  0.54301740  0.87337476
   0.93696779  0.95990614  0.69748934
   0.18869947  0.45751435  0.56504800
   0.18506486  0.96320042  0.83333050
   0.68959593  0.11560329  0.16795094
   0.56319963  0.70159662  0.21436233
   0.18635961  0.96169587  0.69729579
   0.18447480  0.28138203  0.12660909
   0.93740094  0.11784546  0.30260119
   0.43276604  0.12181979  0.65509491
   0.31218782  0.70481366  0.47700921
   0.81344667  0.20608898  0.69779835
   0.56392423  0.87151293  0.52235721
   0.68574342  0.78686749  0.38888615
   0.18865505  0.11753319  0.30279870
   0.31048395  0.02874590  0.12617966
   0.18653650  0.45873862  0.83317372
   0.06134415  0.86950734  0.52259916
   0.68875560  0.45685757  0.83231355
   0.06207461  0.04365722  0.74104678
   0.81334389  0.03265102  0.25829553
   0.94269138  0.12419319  0.65506696
   0.81163004  0.70309964  0.34570672
   0.68743213  0.62528716  0.78709507
   0.93622302  0.95470464  0.47691177
   0.43631172  0.94827810  0.21361258
   0.43593847  0.61996567  0.52251887
   0.31214658  0.54258943  0.60948137
   0.43849321  0.62020927  0.30247318
   0.31306573  0.87987767  0.78716655
   0.19038909  0.78527896  0.38919340
   0.43735693  0.45768909  0.56480013
   0.43800377  0.45349184  0.21395826
   0.93969380  0.62379769  0.65506770
   0.68704120  0.45651581  0.56523100
   0.43876641  0.78353141  0.25862383
   0.31379269  0.70492898  0.34572863
   0.93851010  0.45829821  0.69728568
   0.05923431  0.03062707  0.12584556
   0.81260497  0.20320454  0.34561198
   0.93814146  0.94974429  0.21366922
   0.06291650  0.54247325  0.74013320
   0.56469028  0.36675193  0.16844322
   0.30948173  0.53890415  0.12669627
   0.56297328  0.86595579  0.16839126
   0.18747479  0.62766817  0.78748051
   0.56256521  0.70588267  0.47685183
   0.18595406  0.61945172  0.16862723
   0.06075328  0.20626524  0.83335727
   0.81027722  0.03662975  0.38927350
   0.18548602  0.94997220  0.21380933
   0.68717477  0.11821844  0.30301311
   0.31546625  0.53739175  0.25854935
   0.93736728  0.45931268  0.56443981
   0.31173759  0.86698996  0.16821424
   0.68881597  0.45868195  0.69814356
   0.81362392  0.53971397  0.61004480
   0.06407723  0.20710602  0.69724646
   0.18599856  0.95647777  0.56553094
   0.43823284  0.28991555  0.87454232
   0.18764871  0.28266619  0.25853347
   0.56497555  0.53518181  0.12653558
   0.68520798  0.95675176  0.56519242
   0.31340706  0.87092562  0.43318824
   0.81335914  0.53271320  0.12627722
   0.81614824  0.87593609  0.65571752
   0.56006916  0.70595332  0.56528659
   0.18853873  0.61974351  0.30312020
   0.06128049  0.36830919  0.16868178
   0.43553397  0.45716063  0.69851869
   0.43757641  0.79676957  0.87385393
   0.18788787  0.95660354  0.47668385
   0.93761371  0.78709781  0.12657049
   0.56556553  0.87822599  0.78714144
   0.31578254  0.03484458  0.38899135
   0.43690078  0.12488688  0.52236048
   0.55900540  0.03976088  0.60913650
   0.56172292  0.53962030  0.38861260
   0.06129305  0.37505680  0.52252276
   0.94098064  0.95585468  0.56496495
   0.68986981  0.95737577  0.69861836
   0.93897807  0.62278985  0.52225404
   0.06137375  0.04478464  0.87322665
   0.81401010  0.20750099  0.56460648
   0.43811468  0.95188791  0.34545858
   0.06089313  0.53734811  0.25828310
   0.69112223  0.12211840  0.65592765
   0.68927008  0.62022184  0.16805792
   0.30932997  0.20762789  0.69779326
   0.06489724  0.04060087  0.61086771
Direct configuration=     3
   0.68743914  0.79134022  0.60976313
   0.43752803  0.46033902  0.83117109
   0.56263442  0.70344856  0.34629152
   0.56238713  0.20709350  0.56513247
   0.56240733  0.54113841  0.60976558
   0.68743479  0.61919513  0.30198328
   0.81233068  0.37667207  0.78637294
   0.81285848  0.53728034  0.39013491
   0.81234763  0.54256390  0.74215972
   0.81190591  0.37257736  0.52134093
   0.93811615  0.96130410  0.83134802
   0.56263969  0.04407539  0.87335494
   0.81240300  0.20550652  0.47847511
   0.56271758  0.70875595  0.69808587
   0.31239404  0.53709622  0.39015304
   0.18722861  0.12247129  0.52145157
   0.68803319  0.62467739  0.65378293
   0.93715963  0.28302457  0.12676562
   0.56277418  0.53529244  0.25796379
   0.93741618  0.28727013  0.39014578
   0.06253119  0.86784664  0.16895755
   0.18740648  0.62253901  0.52139520
   0.81271028  0.86686314  0.16896048
   0.31270180  0.71090140  0.83110502
   0.31266579  0.37669319  0.78630001
   0.31214200  0.87240616  0.52125725
   0.81289221  0.21027466  0.83137865
   0.06245085  0.54060396  0.60975258
   0.06269725  0.70672921  0.56505675
   0.06246104  0.86840107  0.30198361
   0.18749063  0.95283870  0.34625866
   0.93743268  0.79330745  0.74204146
   0.68761488  0.62212377  0.52137281
   0.18737884  0.78425786  0.12667752
   0.68788493  0.12096723  0.43467213
   0.81245959  0.04294117  0.74214091
   0.56213822  0.37476487  0.65386071
   0.56267933  0.20563459  0.47853362
   0.18755508  0.11751169  0.16906288
   0.43756219  0.12706764  0.78645051
   0.06256248  0.70263172  0.34630555
   0.43739084  0.45493862  0.47855530
   0.93771615  0.45304389  0.34632214
   0.81265247  0.04025875  0.60973135
   0.56252954  0.03453065  0.25795181
   0.18743009  0.79306448  0.74197694
   0.56259111  0.37284491  0.52138647
   0.81258029  0.70515371  0.47851487
   0.31243817  0.20303013  0.34625822
   0.06241708  0.20104795  0.21377004
   0.81208281  0.87691583  0.78624731
   0.06247911  0.03488497  0.25793203
   0.93762182  0.29024221  0.60985009
   0.31274807  0.37120842  0.43453806
   0.56249479  0.36928159  0.30201207
   0.68739969  0.96060371  0.83113642
   0.18723914  0.12480107  0.65383695
   0.68777446  0.45504771  0.47842677
   0.81299020  0.03457070  0.12670232
   0.06250553  0.87108873  0.43469285
   0.43754161  0.29094321  0.60973343
   0.56246117  0.87489914  0.65367802
   0.06243731  0.53725384  0.39007459
   0.31233921  0.04317912  0.74202608
   0.43697976  0.11699377  0.16894703
   0.31274190  0.86894501  0.30206790
   0.68741755  0.95523899  0.47834484
   0.93637105  0.29363031  0.87338607
   0.93713552  0.12122189  0.43465466
   0.93699002  0.62713716  0.78636290
   0.68765921  0.95330498  0.34631813
   0.18709539  0.45319471  0.34630603
   0.56261851  0.54289246  0.74205069
   0.31179218  0.20694320  0.56517818
   0.06303146  0.53440639  0.12681138
   0.56261939  0.37106259  0.43461734
   0.68751384  0.45077667  0.21385672
   0.93732567  0.95277839  0.34625684
   0.93728172  0.28487792  0.25793580
   0.18730037  0.12688710  0.78638384
   0.31220665  0.36901692  0.30198076
   0.93756537  0.62142134  0.43486949
   0.31301878  0.04469828  0.87334097
   0.68811664  0.28419007  0.12668730
   0.18740995  0.62492607  0.65378005
   0.06233607  0.87466753  0.65372899
   0.68765605  0.29262160  0.74209962
   0.18743831  0.78495268  0.25789013
   0.31307205  0.37293848  0.52143744
   0.93729575  0.45128398  0.21377820
   0.31276539  0.03484061  0.25793541
   0.68792952  0.12227679  0.52138062
   0.68756712  0.12702102  0.78634393
   0.81212640  0.37106077  0.43453044
   0.93741133  0.61879454  0.30206227
   0.18705392  0.29081940  0.60988547
   0.68771787  0.79388768  0.87327795
   0.31230549  0.70629456  0.56504548
   0.43739359  0.11899284  0.30206101
   0.06235289  0.70493140  0.47849411
   0.18753622  0.28723991  0.39009053
   0.31205461  0.21015008  0.83130743
   0.93718548  0.12284700  0.52136790
   0.56245801  0.04303556  0.74212339
   0.56262780  0.87091676  0.43459603
   0.18741420  0.45122697  0.21374540
   0.06224575  0.70854642  0.69801240
   0.43740638  0.78416170  0.12677106
   0.93772250  0.79328603  0.87338214
   0.93735035  0.45516705  0.47853176
   0.81252840  0.87135547  0.43463878
   0.56261437  0.71066278  0.83119394
   0.06236723  0.03739263  0.39012525
   0.18748284  0.12095745  0.43459288
   0.06282366  0.37474284  0.65382366
   0.68783492  0.45343902  0.34627919
   0.31230243  0.04069985  0.60972739
   0.81276159  0.36887733  0.30193565
   0.56242550  0.86944136  0.30199146
   0.06247823  0.20294766  0.34632182
   0.43753946  0.28681940  0.39007225
   0.68765996  0.78464409  0.25787711
   0.31243634  0.36696321  0.16892891
   0.43696006  0.79071058  0.60967064
   0.93755200  0.46065385  0.83111517
   0.93736951  0.78489296  0.25787665
   0.43764777  0.95479399  0.47838529
   0.31266334  0.54284748  0.74207609
   0.56283629  0.20847314  0.69815107
   0.68799459  0.29382669  0.87347296
   0.81234675  0.86876660  0.30205805
   0.43738319  0.78709985  0.39009353
   0.43734947  0.62089976  0.43474768
   0.56238796  0.03423694  0.12685012
   0.18769755  0.62128713  0.43449655
   0.81230954  0.71063890  0.83113358
   0.81201203  0.53506614  0.25789026
   0.06304099  0.20617104  0.56513581
   0.93744247  0.29269943  0.74221766
   0.06231323  0.54368438  0.87335410
   0.56250308  0.20094747  0.21366715
   0.81214248  0.70645293  0.56504064
   0.06259551  0.36871687  0.30205679
   0.93748917  0.12695715  0.78646121
   0.43746734  0.95905998  0.69808193
   0.81191013  0.36725857  0.16886939
   0.18824007  0.29363155  0.87339993
   0.31211735  0.20570874  0.47852024
   0.81189746  0.04480032  0.87335370
   0.56282769  0.37653903  0.78654373
   0.06237246  0.70128272  0.21377025
   0.56271121  0.21051202  0.83124250
   0.06282588  0.20491648  0.47835623
   0.93731179  0.78713350  0.39014248
   0.31227690  0.70887681  0.69801410
   0.18776640  0.29270284  0.74205351
   0.43774677  0.96055213  0.83122757
   0.68739705  0.62114740  0.43458795
   0.81262162  0.20081944  0.21374022
   0.31212298  0.87486458  0.65365959
   0.43754371  0.12095206  0.43491397
   0.68737292  0.29106350  0.60983766
   0.68774240  0.95071362  0.21370817
   0.81238709  0.54383987  0.87331921
   0.81296409  0.70124032  0.21384912
   0.93780407  0.11740903  0.16896105
   0.81274532  0.70897319  0.69800110
   0.68770712  0.78411068  0.12663050
   0.56242692  0.20336136  0.34630242
   0.43721166  0.29304683  0.74215772
   0.93775444  0.79026049  0.60964646
   0.43751967  0.45335030  0.34627023
   0.06229042  0.87742059  0.78636334
   0.31204083  0.37495140  0.65385781
   0.68757999  0.28481503  0.25789849
   0.43749383  0.28342409  0.12686236
   0.43740087  0.61796285  0.16896870
   0.18765756  0.79082213  0.60982693
   0.43783586  0.62650656  0.78634186
   0.18731759  0.45869407  0.69799751
   0.18759396  0.45534494  0.47853658
   0.43674703  0.62521786  0.65366533
   0.43752178  0.28512440  0.25785982
   0.31232612  0.70100952  0.21373578
   0.93760163  0.61785630  0.16891292
   0.81225762  0.87262764  0.52128544
   0.06205640  0.37714179  0.78637358
   0.06254312  0.37121016  0.43486621
   0.43758670  0.79282540  0.74204512
   0.81301002  0.37473780  0.65383061
   0.56229880  0.03695804  0.39010727
   0.18713691  0.79348722  0.87333046
   0.31255592  0.54375876  0.87329883
   0.68761897  0.79306617  0.74214935
   0.06239396  0.71130811  0.83134900
   0.43764679  0.95557818  0.56507892
   0.68747718  0.28732568  0.39015269
   0.31243190  0.20093307  0.21376278
   0.56264048  0.54404768  0.87325338
   0.93763306  0.95880319  0.69800408
   0.18776935  0.45642146  0.56513392
   0.18671204  0.96128539  0.83134154
   0.68765052  0.11681714  0.16894183
   0.56224937  0.70118042  0.21386759
   0.18727299  0.95921775  0.69799279
   0.18729229  0.28371109  0.12675453