       N       E                     dE             d eps       ncg     rms          rms(c)
DAV:   1     0.304369766314E+05    0.30437E+05   -0.91745E+05 27770   0.213E+03
DAV:   2     0.153362144919E+04   -0.28903E+05   -0.28304E+05 27600   0.616E+02
DAV:   3    -0.189604345221E+04   -0.34297E+04   -0.29806E+04 38490   0.298E+02
DAV:   4    -0.260956983208E+04   -0.71353E+03   -0.64970E+03 50660   0.104E+02
DAV:   5    -0.273944942938E+04   -0.12988E+03   -0.12150E+03 48260   0.423E+01    0.207E+02
RMM:   6    -0.642757678840E+04   -0.36881E+04   -0.14290E+04 48489   0.269E+02    0.740E+02
RMM:   7    -0.525552224135E+04    0.11721E+04   -0.60292E+03 49782   0.113E+02    0.509E+02
RMM:   8    -0.102726643009E+05   -0.50171E+04   -0.26879E+04 48530   0.395E+02    0.133E+03
RMM:   9    -0.128823843752E+05   -0.26097E+04   -0.24486E+04 50176   0.212E+02    0.119E+03
RMM:  10    -0.110582289273E+05    0.18242E+04   -0.12126E+04 47774   0.205E+02    0.918E+02
RMM:  11    -0.157170912552E+05   -0.46589E+04   -0.17338E+04 41077   0.301E+02    0.996E+02
RMM:  12    -0.702185567286E+04    0.86952E+04   -0.65104E+03 40977   0.142E+02    0.591E+02
RMM:  13    -0.570403734286E+04    0.13178E+04   -0.56613E+03 29797   0.177E+02    0.493E+02
RMM:  14    -0.371928532600E+04    0.19848E+04   -0.26627E+03 27927   0.117E+02    0.403E+02
RMM:  15    -0.407631994417E+04   -0.35703E+03   -0.12870E+03 27813   0.751E+01    0.420E+02
RMM:  16    -0.264011205347E+04    0.14362E+04   -0.22024E+03 38506   0.108E+02    0.273E+02
RMM:  17    -0.301251091562E+04   -0.37240E+03   -0.25171E+03 48419   0.447E+01    0.292E+02
RMM:  18    -0.300833202924E+04    0.41789E+01   -0.13329E+03 38319   0.533E+01    0.264E+02
RMM:  19    -0.266395477322E+04    0.34438E+03   -0.91259E+02 36491   0.338E+01    0.218E+02
RMM:  20    -0.258991456889E+04    0.74040E+02   -0.70531E+02 37627   0.282E+01    0.198E+02
RMM:  21    -0.247010052417E+04    0.11981E+03   -0.47146E+02 41089   0.190E+01    0.159E+02
RMM:  22    -0.239986719715E+04    0.70233E+02   -0.16919E+02 35876   0.139E+01    0.122E+02
RMM:  23    -0.243076024594E+04   -0.30893E+02   -0.20717E+02 33036   0.200E+01    0.129E+02
RMM:  24    -0.237917756673E+04    0.51583E+02   -0.10123E+02 27928   0.217E+01    0.100E+02
RMM:  25    -0.236755245393E+04    0.11625E+02   -0.11096E+02 36857   0.109E+01    0.890E+01
RMM:  26    -0.236051685112E+04    0.70356E+01   -0.62777E+01 36366   0.774E+00    0.777E+01
RMM:  27    -0.235286580365E+04    0.76510E+01   -0.34893E+01 40117   0.488E+00    0.652E+01
RMM:  28    -0.234718170246E+04    0.56841E+01   -0.12534E+01 32305   0.462E+00    0.585E+01
RMM:  29    -0.234526428708E+04    0.19174E+01   -0.91203E+00 32681   0.403E+00    0.573E+01
RMM:  30    -0.234392533627E+04    0.13390E+01   -0.62690E+00 35366   0.309E+00    0.554E+01
RMM:  31    -0.234688960859E+04   -0.29643E+01   -0.67168E+00 34966   0.297E+00    0.608E+01
RMM:  32    -0.234540520657E+04    0.14844E+01   -0.41667E+00 39833   0.190E+00    0.577E+01
RMM:  33    -0.234438760745E+04    0.10176E+01   -0.20922E+00 40823   0.981E-01    0.563E+01
RMM:  34    -0.234138377621E+04    0.30038E+01   -0.17327E+00 29937   0.237E+00    0.516E+01
RMM:  35    -0.234037674837E+04    0.10070E+01   -0.35807E+00 30830   0.311E+00    0.515E+01
RMM:  36    -0.233797698291E+04    0.23998E+01   -0.65494E+00 30595   0.423E+00    0.501E+01
RMM:  37    -0.233316631007E+04    0.48107E+01   -0.89552E+00 36120   0.323E+00    0.410E+01
RMM:  38    -0.233079206877E+04    0.23742E+01   -0.55884E+00 42476   0.169E+00    0.354E+01
RMM:  39    -0.232975159712E+04    0.10405E+01   -0.21095E+00 35855   0.137E+00    0.327E+01
RMM:  40    -0.232909452819E+04    0.65707E+00   -0.10360E+00 34218   0.123E+00    0.303E+01
RMM:  41    -0.232897460808E+04    0.11992E+00   -0.56898E-01 29410   0.146E+00    0.295E+01
RMM:  42    -0.232916252697E+04   -0.18792E+00   -0.10062E+00 28590   0.208E+00    0.300E+01
RMM:  43    -0.232821355330E+04    0.94897E+00   -0.18024E+00 30260   0.231E+00    0.269E+01
RMM:  44    -0.232747461096E+04    0.73894E+00   -0.11627E+00 30357   0.183E+00    0.252E+01
RMM:  45    -0.232705078170E+04    0.42383E+00   -0.12914E+00 39877   0.117E+00    0.242E+01
RMM:  46    -0.232666531474E+04    0.38547E+00   -0.54473E-01 32551   0.103E+00    0.233E+01
RMM:  47    -0.232655108836E+04    0.11423E+00   -0.42484E-01 35379   0.797E-01    0.230E+01
RMM:  48    -0.232648107982E+04    0.70009E-01   -0.37671E-01 36384   0.692E-01    0.228E+01
RMM:  49    -0.232651590382E+04   -0.34824E-01   -0.27478E-01 32501   0.689E-01    0.229E+01
RMM:  50    -0.232659340199E+04   -0.77498E-01   -0.23833E-01 35769   0.547E-01    0.232E+01
RMM:  51    -0.237344154318E+04   -0.46848E+02   -0.21384E+01 29501   0.876E+00    0.910E+01
RMM:  52    -0.235271947705E+04    0.20722E+02   -0.12839E+01 27732   0.808E+00    0.652E+01
RMM:  53    -0.235431803975E+04   -0.15986E+01   -0.12026E+01 30352   0.591E+00    0.692E+01
RMM:  54    -0.235783063621E+04   -0.35126E+01   -0.87246E+00 29681   0.542E+00    0.721E+01
RMM:  55    -0.235231108065E+04    0.55196E+01   -0.64302E+00 30146   0.444E+00    0.654E+01
RMM:  56    -0.233899202806E+04    0.13319E+02   -0.25590E+01 27605   0.107E+01    0.481E+01
RMM:  57    -0.233765837233E+04    0.13337E+01   -0.15664E+01 29426   0.746E+00    0.453E+01
RMM:  58    -0.233808905296E+04   -0.43068E+00   -0.14122E+01 35824   0.438E+00    0.473E+01
RMM:  59    -0.233868363232E+04   -0.59458E+00   -0.48430E+00 31358   0.346E+00    0.493E+01
RMM:  60    -0.233624492995E+04    0.24387E+01   -0.25609E+00 28865   0.322E+00    0.443E+01
RMM:  61    -0.233460419225E+04    0.16407E+01   -0.61468E+00 28303   0.514E+00    0.390E+01
RMM:  62    -0.233239578296E+04    0.22084E+01   -0.35794E+00 28605   0.403E+00    0.335E+01
RMM:  63    -0.232932204859E+04    0.30737E+01   -0.31096E+00 29346   0.329E+00    0.241E+01
RMM:  64    -0.232702842357E+04    0.22936E+01   -0.13234E+00 27979   0.249E+00    0.136E+01
RMM:  65    -0.232659624814E+04    0.43218E+00   -0.96139E-01 28943   0.195E+00    0.105E+01
RMM:  66    -0.232718434253E+04   -0.58809E+00   -0.85068E-01 28922   0.182E+00    0.153E+01
RMM:  67    -0.232677525929E+04    0.40908E+00   -0.61480E-01 29317   0.152E+00    0.120E+01
RMM:  68    -0.232647970635E+04    0.29555E+00   -0.74007E-01 30615   0.142E+00    0.924E+00
RMM:  69    -0.232648839519E+04   -0.86888E-02   -0.86797E-01 32625   0.127E+00    0.918E+00
RMM:  70    -0.232663676253E+04   -0.14837E+00   -0.65229E-01 35104   0.951E-01    0.105E+01
RMM:  71    -0.232701895353E+04   -0.38219E+00   -0.56471E-01 29497   0.139E+00    0.131E+01
RMM:  72    -0.232655373252E+04    0.46522E+00   -0.19922E-01 28001   0.110E+00    0.922E+00
RMM:  73    -0.232633523596E+04    0.21850E+00   -0.13837E-01 30361   0.630E-01    0.678E+00
RMM:  74    -0.232622614898E+04    0.10909E+00   -0.74426E-02 30257   0.465E-01    0.503E+00
RMM:  75    -0.232617277990E+04    0.53369E-01   -0.52016E-02 38060   0.241E-01    0.389E+00
RMM:  76    -0.232625624995E+04   -0.83470E-01   -0.15183E-01 28054   0.800E-01    0.550E+00
RMM:  77    -0.232618044785E+04    0.75802E-01   -0.76357E-02 27624   0.765E-01    0.415E+00
RMM:  78    -0.232615991807E+04    0.20530E-01   -0.22749E-02 28422   0.330E-01    0.357E+00
RMM:  79    -0.232614664732E+04    0.13271E-01   -0.26207E-02 30071   0.280E-01    0.313E+00
RMM:  80    -0.232612637978E+04    0.20268E-01   -0.19002E-02 29340   0.262E-01    0.238E+00
RMM:  81    -0.232611270575E+04    0.13674E-01   -0.28904E-02 30807   0.275E-01    0.165E+00
RMM:  82    -0.232610448197E+04    0.82238E-02   -0.13704E-02 28789   0.239E-01    0.110E+00
RMM:  83    -0.232610516529E+04   -0.68331E-03   -0.18214E-02 34258   0.168E-01    0.933E-01
RMM:  84    -0.232610325321E+04    0.19121E-02   -0.68201E-03 32162   0.117E-01    0.608E-01
RMM:  85    -0.232610387004E+04   -0.61684E-03   -0.66806E-03 36090   0.952E-02    0.540E-01
RMM:  86    -0.232611188937E+04   -0.80193E-02   -0.11385E-02 29451   0.196E-01    0.126E+00
RMM:  87    -0.232610489487E+04    0.69945E-02   -0.40467E-03 27882   0.165E-01    0.529E-01
RMM:  88    -0.232610437421E+04    0.52066E-03   -0.21566E-03 30918   0.740E-02    0.401E-01
RMM:  89    -0.232610436155E+04    0.12661E-04   -0.14687E-03 30660   0.641E-02    0.278E-01
RMM:  90    -0.232610452910E+04   -0.16755E-03   -0.11549E-03 32040   0.486E-02    0.194E-01
RMM:  91    -0.232610535420E+04   -0.82510E-03   -0.12763E-03 29997   0.638E-02    0.370E-01
RMM:  92    -0.232610528834E+04    0.65863E-04   -0.67457E-04 28775   0.534E-02    0.270E-01
RMM:  93    -0.232610534393E+04   -0.55586E-04   -0.48961E-04 30148   0.386E-02    0.153E-01
RMM:  94    -0.232610551544E+04   -0.17151E-03   -0.41153E-04 32218   0.292E-02    0.129E-01
RMM:  95    -0.232610571019E+04   -0.19476E-03   -0.27728E-04 31946   0.237E-02    0.111E-01
RMM:  96    -0.232610600260E+04   -0.29241E-03   -0.19370E-04 29783   0.243E-02    0.122E-01
RMM:  97    -0.232610609444E+04   -0.91840E-04   -0.89186E-05 24857   0.187E-02    0.888E-02
RMM:  98    -0.232610628511E+04   -0.19066E-03   -0.82265E-05 23584   0.136E-02    0.817E-02
RMM:  99    -0.232610641664E+04   -0.13153E-03   -0.50134E-05 21150   0.127E-02    0.685E-02
RMM: 100    -0.232610653199E+04   -0.11536E-03   -0.38895E-05 19749   0.120E-02
   1 F= -.23261065E+04 E0= -.23233537E+04  d E =-.232611E+04
       N       E                     dE             d eps       ncg     rms          rms(c)
DAV:   1    -0.232610704174E+04   -0.62510E-03   -0.11782E-01 30780   0.362E-01    0.884E-02
RMM:   2    -0.232613598355E+04   -0.28942E-01   -0.74560E-03 30358   0.148E-01    0.229E+00
RMM:   3    -0.232611876974E+04    0.17214E-01   -0.41782E-03 38148   0.741E-02    0.142E+00
RMM:   4    -0.232613074974E+04   -0.11980E-01   -0.19977E-03 28809   0.832E-02    0.208E+00
RMM:   5    -0.232610821999E+04    0.22530E-01   -0.12726E-03 27802   0.741E-02    0.283E-01
RMM:   6    -0.232611225186E+04   -0.40319E-02   -0.26685E-03 33827   0.709E-02    0.987E-01
RMM:   7    -0.232610907579E+04    0.31761E-02   -0.24935E-03 31699   0.797E-02    0.537E-01
RMM:   8    -0.232610775742E+04    0.13184E-02   -0.89819E-04 27613   0.680E-02    0.246E-01
RMM:   9    -0.232610758895E+04    0.16847E-03   -0.53909E-04 29412   0.388E-02    0.186E-01
RMM:  10    -0.232610757641E+04    0.12540E-04   -0.46928E-04 35780   0.238E-02    0.169E-01
RMM:  11    -0.232610766904E+04   -0.92632E-04   -0.27686E-04 31459   0.235E-02    0.194E-01
RMM:  12    -0.232610756985E+04    0.99197E-04   -0.11842E-04 26261   0.209E-02    0.107E-01
RMM:  13    -0.232610754533E+04    0.24518E-04   -0.51923E-05 21293   0.168E-02    0.660E-02
RMM:  14    -0.232610755711E+04   -0.11780E-04   -0.27238E-05 17916   0.107E-02    0.565E-02
RMM:  15    -0.232610761049E+04   -0.53377E-04   -0.37639E-05 19293   0.120E-02    0.490E-02
RMM:  16    -0.232610764718E+04   -0.36697E-04   -0.20455E-05 15623   0.110E-02    0.265E-02
RMM:  17    -0.232610766676E+04   -0.19582E-04   -0.11632E-05 15432   0.664E-03    0.216E-02
RMM:  18    -0.232610771482E+04   -0.48051E-04   -0.10605E-05 15468   0.668E-03    0.274E-02
RMM:  19    -0.232610777443E+04   -0.59620E-04   -0.86359E-06 15463   0.651E-03    0.189E-02
RMM:  20    -0.232610779547E+04   -0.21031E-04   -0.50961E-06 15365   0.415E-03    0.154E-02
RMM:  21    -0.232610783718E+04   -0.41711E-04   -0.50694E-06 15381   0.396E-03    0.154E-02
RMM:  22    -0.232610787749E+04   -0.40316E-04   -0.50460E-06 15414   0.444E-03    0.109E-02
RMM:  23    -0.232610790088E+04   -0.23386E-04   -0.39890E-06 15374   0.316E-03    0.987E-03
RMM:  24    -0.232610793700E+04   -0.36122E-04   -0.43603E-06 15405   0.330E-03    0.865E-03
RMM:  25    -0.232610796838E+04   -0.31380E-04   -0.44186E-06 15460   0.331E-03    0.926E-03
RMM:  26    -0.232610799623E+04   -0.27846E-04   -0.47038E-06 15407   0.304E-03    0.830E-03
RMM:  27    -0.232610801915E+04   -0.22925E-04   -0.50774E-06 15445   0.301E-03    0.702E-03
RMM:  28    -0.232610802586E+04   -0.67052E-05   -0.32732E-06 14902   0.245E-03
   2 F= -.23261080E+04 E0= -.23233550E+04  d E =-.149386E-02
       N       E                     dE             d eps       ncg     rms          rms(c)
DAV:   1    -0.232610800959E+04    0.95622E-05   -0.60924E-01 29360   0.819E-01    0.165E-01
RMM:   2    -0.232612776395E+04   -0.19754E-01   -0.21933E-02 29719   0.275E-01    0.186E+00
RMM:   3    -0.232619605978E+04   -0.68296E-01   -0.81847E-03 31537   0.143E-01    0.400E+00
RMM:   4    -0.232612278819E+04    0.73272E-01   -0.30866E-03 27633   0.122E-01    0.145E+00
RMM:   5    -0.232611341156E+04    0.93766E-02   -0.17269E-03 28781   0.796E-02    0.933E-01
RMM:   6    -0.232611648689E+04   -0.30753E-02   -0.35711E-03 28686   0.109E-01    0.122E+00
RMM:   7    -0.232611669033E+04   -0.20344E-03   -0.59006E-03 31392   0.121E-01    0.123E+00
RMM:   8    -0.232611507652E+04    0.16138E-02   -0.35132E-03 29480   0.102E-01    0.105E+00
RMM:   9    -0.232610909080E+04    0.59857E-02   -0.15764E-03 27603   0.928E-02    0.259E-01
RMM:  10    -0.232610869484E+04    0.39597E-03   -0.10319E-03 29812   0.550E-02    0.163E-01
RMM:  11    -0.232610884914E+04   -0.15430E-03   -0.12642E-03 34014   0.463E-02    0.214E-01
RMM:  12    -0.232610869491E+04    0.15422E-03   -0.33831E-04 27816   0.376E-02    0.140E-01
RMM:  13    -0.232610864903E+04    0.45882E-04   -0.23836E-04 30747   0.227E-02    0.100E-01
RMM:  14    -0.232610864589E+04    0.31418E-05   -0.13816E-04 27294   0.149E-02    0.978E-02
RMM:  15    -0.232610863272E+04    0.13170E-04   -0.10513E-04 26499   0.177E-02    0.779E-02
RMM:  16    -0.232610860743E+04    0.25289E-04   -0.43661E-05 20229   0.149E-02    0.426E-02
RMM:  17    -0.232610860278E+04    0.46493E-05   -0.18468E-05 16374   0.878E-03
   3 F= -.23261086E+04 E0= -.23233550E+04  d E =-.207079E-02
       N       E                     dE             d eps       ncg     rms          rms(c)
DAV:   1    -0.232610878606E+04   -0.17863E-03   -0.99070E-02 29360   0.331E-01    0.607E-02
RMM:   2    -0.232614432437E+04   -0.35538E-01   -0.32451E-03 29299   0.108E-01    0.256E+00
RMM:   3    -0.232611195230E+04    0.32372E-01   -0.13476E-03 33208   0.574E-02    0.610E-01
RMM:   4    -0.232611631735E+04   -0.43650E-02   -0.10058E-03 27652   0.699E-02    0.116E+00
RMM:   5    -0.232610976697E+04    0.65504E-02   -0.63430E-04 29422   0.464E-02    0.359E-01
RMM:   6    -0.232611361270E+04   -0.38457E-02   -0.17873E-03 31366   0.618E-02    0.957E-01
RMM:   7    -0.232610994234E+04    0.36704E-02   -0.11822E-03 28943   0.642E-02    0.405E-01
RMM:   8    -0.232610961923E+04    0.32311E-03   -0.56368E-04 27600   0.543E-02    0.360E-01
RMM:   9    -0.232610897332E+04    0.64591E-03   -0.20076E-04 27651   0.305E-02    0.127E-01
RMM:  10    -0.232610890749E+04    0.65828E-04   -0.13595E-04 27849   0.221E-02    0.881E-02
RMM:  11    -0.232610894249E+04   -0.35002E-04   -0.18620E-04 30296   0.188E-02    0.113E-01
RMM:  12    -0.232610891002E+04    0.32477E-04   -0.53932E-05 20568   0.158E-02    0.833E-02
RMM:  13    -0.232610887829E+04    0.31729E-04   -0.24061E-05 17081   0.110E-02    0.319E-02
RMM:  14    -0.232610887577E+04    0.25216E-05   -0.14274E-05 16010   0.741E-03
   4 F= -.23261089E+04 E0= -.23233550E+04  d E =-.272984E-03
       N       E                     dE             d eps       ncg     rms          rms(c)
DAV:   1    -0.232610849464E+04    0.38364E-03   -0.89187E-01 28200   0.992E-01    0.168E-01
RMM:   2    -0.232615215568E+04   -0.43661E-01   -0.20277E-02 28314   0.297E-01    0.281E+00
RMM:   3    -0.232613607375E+04    0.16082E-01   -0.10094E-02 37645   0.123E-01    0.218E+00
RMM:   4    -0.232614154347E+04   -0.54697E-02   -0.36373E-03 27609   0.137E-01    0.243E+00
RMM:   5    -0.232611199501E+04    0.29548E-01   -0.23987E-03 33863   0.716E-02    0.576E-01
RMM:   6    -0.232611237069E+04   -0.37568E-03   -0.50735E-03 27706   0.144E-01    0.728E-01
RMM:   7    -0.232611400767E+04   -0.16370E-02   -0.25253E-03 27758   0.108E-01    0.936E-01
RMM:   8    -0.232611029675E+04    0.37109E-02   -0.10267E-03 28815   0.585E-02    0.418E-01
RMM:   9    -0.232611026260E+04    0.34148E-04   -0.85472E-04 30818   0.427E-02    0.416E-01
RMM:  10    -0.232610959212E+04    0.67048E-03   -0.48392E-04 28936   0.398E-02    0.250E-01
RMM:  11    -0.232610952707E+04    0.65053E-04   -0.68427E-04 31692   0.392E-02    0.217E-01
RMM:  12    -0.232610942967E+04    0.97397E-04   -0.23991E-04 27543   0.320E-02    0.177E-01
RMM:  13    -0.232610930580E+04    0.12387E-03   -0.10539E-04 25380   0.203E-02    0.908E-02
RMM:  14    -0.232610928596E+04    0.19841E-04   -0.80440E-05 23902   0.155E-02    0.739E-02
RMM:  15    -0.232610929241E+04   -0.64530E-05   -0.11313E-04 26805   0.172E-02    0.753E-02
RMM:  16    -0.232610927446E+04    0.17955E-04   -0.40687E-05 19437   0.146E-02    0.499E-02
RMM:  17    -0.232610926827E+04    0.61874E-05   -0.17220E-05 15626   0.868E-03
   5 F= -.23261093E+04 E0= -.23233549E+04  d E =-.665486E-03
       N       E                     dE             d eps       ncg     rms          rms(c)
DAV:   1    -0.232610936011E+04   -0.85649E-04   -0.24301E-01 28440   0.517E-01    0.798E-02
RMM:   2    -0.232612777361E+04   -0.18414E-01   -0.48735E-03 28122   0.145E-01    0.181E+00
RMM:   3    -0.232611311884E+04    0.14655E-01   -0.16631E-03 36053   0.581E-02    0.759E-01
RMM:   4    -0.232611915056E+04   -0.60317E-02   -0.82867E-04 29449   0.489E-02    0.132E+00
RMM:   5    -0.232611072746E+04    0.84231E-02   -0.73518E-04 27621   0.569E-02    0.418E-01
RMM:   6    -0.232611081633E+04   -0.88872E-04   -0.98356E-04 29121   0.564E-02    0.474E-01
RMM:   7    -0.232611322400E+04   -0.24077E-02   -0.21611E-03 34752   0.620E-02    0.834E-01
RMM:   8    -0.232611051116E+04    0.27128E-02   -0.86337E-04 28152   0.566E-02    0.380E-01
RMM:   9    -0.232610973800E+04    0.77315E-03   -0.43444E-04 27561   0.503E-02    0.175E-01
RMM:  10    -0.232610962440E+04    0.11360E-03   -0.21296E-04 28940   0.259E-02    0.120E-01
RMM:  11    -0.232610962065E+04    0.37485E-05   -0.20760E-04 31501   0.179E-02    0.110E-01
RMM:  12    -0.232610960401E+04    0.16642E-04   -0.17051E-04 29756   0.199E-02    0.882E-02
RMM:  13    -0.232610956868E+04    0.35334E-04   -0.53413E-05 21612   0.155E-02    0.457E-02
RMM:  14    -0.232610956567E+04    0.30096E-05   -0.27716E-05 17873   0.922E-03
   6 F= -.23261096E+04 E0= -.23233551E+04  d E =-.297399E-03
       N       E                     dE             d eps       ncg     rms          rms(c)
DAV:   1    -0.232610840434E+04    0.11643E-02   -0.17266E+00 27820   0.138E+00    0.203E-01
RMM:   2    -0.232612669538E+04   -0.18291E-01   -0.27604E-02 28023   0.365E-01    0.179E+00
RMM:   3    -0.232617498009E+04   -0.48285E-01   -0.86099E-03 37256   0.134E-01    0.345E+00
RMM:   4    -0.232611775987E+04    0.57220E-01   -0.25222E-03 27833   0.102E-01    0.108E+00
RMM:   5    -0.232612058065E+04   -0.28208E-02   -0.33663E-03 27940   0.115E-01    0.140E+00
RMM:   6    -0.232613596956E+04   -0.15389E-01   -0.65149E-03 38470   0.956E-02    0.213E+00
RMM:   7    -0.232612846809E+04    0.75015E-02   -0.78649E-03 30673   0.138E-01    0.186E+00
RMM:   8    -0.232611477854E+04    0.13690E-01   -0.45807E-03 27777   0.139E-01    0.857E-01
RMM:   9    -0.232611112522E+04    0.36533E-02   -0.19407E-03 27601   0.111E-01    0.490E-01
RMM:  10    -0.232611075618E+04    0.36904E-03   -0.95480E-04 28716   0.571E-02    0.421E-01
RMM:  11    -0.232611040297E+04    0.35321E-03   -0.12744E-03 29409   0.615E-02    0.315E-01
RMM:  12    -0.232610998994E+04    0.41303E-03   -0.52160E-04 27810   0.489E-02    0.177E-01
RMM:  13    -0.232610990035E+04    0.89596E-04   -0.34811E-04 30560   0.275E-02    0.120E-01
RMM:  14    -0.232610989682E+04    0.35296E-05   -0.23105E-04 31756   0.174E-02    0.110E-01
RMM:  15    -0.232610985558E+04    0.41234E-04   -0.65966E-05 22975   0.155E-02    0.590E-02
RMM:  16    -0.232610984345E+04    0.12127E-04   -0.27907E-05 17289   0.129E-02    0.393E-02
RMM:  17    -0.232610984330E+04    0.15099E-06   -0.20016E-05 16383   0.967E-03
   7 F= -.23261098E+04 E0= -.23233555E+04  d E =-.575035E-03
       N       E                     dE             d eps       ncg     rms          rms(c)
DAV:   1    -0.232610989344E+04   -0.49988E-04   -0.11370E-01 28320   0.354E-01    0.589E-02
RMM:   2    -0.232612333758E+04   -0.13444E-01   -0.26929E-03 28393   0.106E-01    0.158E+00
RMM:   3    -0.232611325109E+04    0.10086E-01   -0.99933E-04 35591   0.447E-02    0.735E-01
RMM:   4    -0.232611411552E+04   -0.86444E-03   -0.50595E-04 27970   0.434E-02    0.857E-01
RMM:   5    -0.232611102270E+04    0.30928E-02   -0.45269E-04 27921   0.405E-02    0.396E-01
RMM:   6    -0.232611091088E+04    0.11182E-03   -0.62540E-04 28029   0.479E-02    0.415E-01
RMM:   7    -0.232611193822E+04   -0.10273E-02   -0.12942E-03 35199   0.476E-02    0.604E-01
RMM:   8    -0.232611037775E+04    0.15605E-02   -0.57031E-04 28006   0.471E-02    0.229E-01
RMM:   9    -0.232611010112E+04    0.27663E-03   -0.25718E-04 27452   0.381E-02    0.143E-01
RMM:  10    -0.232611003678E+04    0.64331E-04   -0.11712E-04 25566   0.205E-02    0.101E-01
RMM:  11    -0.232611001437E+04    0.22410E-04   -0.92654E-05 24096   0.129E-02    0.744E-02
RMM:  12    -0.232611001578E+04   -0.14076E-05   -0.93443E-05 25274   0.147E-02
   8 F= -.23261100E+04 E0= -.23233557E+04  d E =-.172479E-03
       N       E                     dE             d eps       ncg     rms          rms(c)
DAV:   1    -0.232610954212E+04    0.47225E-03   -0.10229E+00 27780   0.106E+00    0.161E-01
RMM:   2    -0.232622474734E+04   -0.11521E+00   -0.21292E-02 28548   0.306E-01    0.465E+00
RMM:   3    -0.232613466894E+04    0.90078E-01   -0.59830E-03 32658   0.128E-01    0.201E+00
RMM:   4    -0.232613822595E+04   -0.35570E-02   -0.32158E-03 27958   0.114E-01    0.221E+00
RMM:   5    -0.232611567763E+04    0.22548E-01   -0.25933E-03 28133   0.980E-02    0.868E-01
RMM:   6    -0.232612183136E+04   -0.61537E-02   -0.66749E-03 28456   0.152E-01    0.144E+00
RMM:   7    -0.232612496769E+04   -0.31363E-02   -0.78510E-03 32857   0.129E-01    0.163E+00
RMM:   8    -0.232611261931E+04    0.12348E-01   -0.31856E-03 27679   0.123E-01    0.581E-01
RMM:   9    -0.232611117435E+04    0.14450E-02   -0.15094E-03 27656   0.871E-02    0.390E-01
RMM:  10    -0.232611057611E+04    0.59824E-03   -0.10174E-03 31633   0.483E-02    0.219E-01
RMM:  11    -0.232611064400E+04   -0.67890E-04   -0.97226E-04 31901   0.442E-02    0.231E-01
RMM:  12    -0.232611047960E+04    0.16440E-03   -0.42171E-04 29985   0.348E-02    0.155E-01
RMM:  13    -0.232611037936E+04    0.10023E-03   -0.16780E-04 27670   0.266E-02    0.910E-02
RMM:  14    -0.232611037813E+04    0.12331E-05   -0.15161E-04 28350   0.137E-02    0.849E-02
RMM:  15    -0.232611035070E+04    0.27432E-04   -0.63256E-05 22576   0.154E-02    0.475E-02
RMM:  16    -0.232611034047E+04    0.10227E-04   -0.28203E-05 16854   0.107E-02    0.222E-02
RMM:  17    -0.232611034158E+04   -0.11057E-05   -0.15830E-05 15934   0.724E-03
   9 F= -.23261103E+04 E0= -.23233561E+04  d E =-.498275E-03
       N       E                     dE             d eps       ncg     rms          rms(c)
DAV:   1    -0.232610740385E+04    0.29366E-02   -0.40917E+00 27600   0.212E+00    0.294E-01
RMM:   2    -0.232617943738E+04   -0.72034E-01   -0.60762E-02 28125   0.545E-01    0.369E+00
RMM:   3    -0.232618564678E+04   -0.62094E-02   -0.17977E-02 38017   0.183E-01    0.364E+00
RMM:   4    -0.232614899581E+04    0.36651E-01   -0.48204E-03 27683   0.145E-01    0.261E+00
RMM:   5    -0.232613035490E+04    0.18641E-01   -0.58417E-03 31297   0.118E-01    0.177E+00
RMM:   6    -0.232613249494E+04   -0.21400E-02   -0.11874E-02 28265   0.202E-01    0.198E+00
RMM:   7    -0.232615584197E+04   -0.23347E-01   -0.22308E-02 33236   0.203E-01    0.288E+00
RMM:   8    -0.232611531570E+04    0.40526E-01   -0.76170E-03 27606   0.196E-01    0.779E-01
RMM:   9    -0.232611145266E+04    0.38630E-02   -0.29188E-03 27706   0.120E-01    0.403E-01
RMM:  10    -0.232611115054E+04    0.30211E-03   -0.21670E-03 31671   0.713E-02    0.330E-01
RMM:  11    -0.232611119492E+04   -0.44374E-04   -0.21708E-03 30485   0.727E-02    0.313E-01
RMM:  12    -0.232611085924E+04    0.33568E-03   -0.80716E-04 28199   0.571E-02    0.207E-01
RMM:  13    -0.232611069999E+04    0.15925E-03   -0.52909E-04 30694   0.354E-02    0.117E-01
RMM:  14    -0.232611070128E+04   -0.12895E-05   -0.38590E-04 34570   0.211E-02    0.105E-01
RMM:  15    -0.232611068525E+04    0.16030E-04   -0.16773E-04 29390   0.208E-02    0.840E-02
RMM:  16    -0.232611065677E+04    0.28473E-04   -0.50940E-05 21138   0.159E-02    0.492E-02
RMM:  17    -0.232611065292E+04    0.38554E-05   -0.24350E-05 17922   0.865E-03
  10 F= -.23261107E+04 E0= -.23233565E+04  d E =-.809616E-03
       N       E                     dE             d eps       ncg     rms          rms(c)
DAV:   1    -0.232611077430E+04   -0.11752E-03   -0.39211E-01 27820   0.657E-01    0.979E-02
RMM:   2    -0.232614728759E+04   -0.36513E-01   -0.72537E-03 28275   0.178E-01    0.260E+00
RMM:   3    -0.232611707022E+04    0.30217E-01   -0.23954E-03 35295   0.730E-02    0.951E-01
RMM:   4    -0.232612091925E+04   -0.38490E-02   -0.12789E-03 29623   0.616E-02    0.133E+00
RMM:   5    -0.232611290402E+04    0.80152E-02   -0.11581E-03 27629   0.724E-02    0.509E-01
RMM:   6    -0.232611399021E+04   -0.10862E-02   -0.18895E-03 30194   0.730E-02    0.732E-01
RMM:   7    -0.232611781570E+04   -0.38255E-02   -0.32548E-03 33610   0.794E-02    0.112E+00
RMM:   8    -0.232611207621E+04    0.57395E-02   -0.11819E-03 27589   0.725E-02    0.383E-01
RMM:   9    -0.232611130730E+04    0.76891E-03   -0.53623E-04 27651   0.542E-02    0.192E-01
RMM:  10    -0.232611122809E+04    0.79209E-04   -0.42352E-04 33127   0.284E-02    0.160E-01
RMM:  11    -0.232611126142E+04   -0.33331E-04   -0.32196E-04 32172   0.262E-02    0.166E-01
RMM:  12    -0.232611115554E+04    0.10589E-03   -0.13999E-04 26859   0.238E-02    0.898E-02
RMM:  13    -0.232611112198E+04    0.33559E-04   -0.82954E-05 23834   0.157E-02    0.504E-02
RMM:  14    -0.232611111972E+04    0.22573E-05   -0.37932E-05 19563   0.986E-03
  11 F= -.23261111E+04 E0= -.23233566E+04  d E =-.466804E-03
       N       E                     dE             d eps       ncg     rms          rms(c)
DAV:   1    -0.232610908254E+04    0.20394E-02   -0.30076E+00 27600   0.182E+00    0.263E-01
RMM:   2    -0.232627096662E+04   -0.16188E+00   -0.50823E-02 28182   0.479E-01    0.549E+00
RMM:   3    -0.232614932904E+04    0.12164E+00   -0.16934E-02 36723   0.183E-01    0.243E+00
RMM:   4    -0.232618720695E+04   -0.37878E-01   -0.66038E-03 29128   0.148E-01    0.371E+00
RMM:   5    -0.232612492694E+04    0.62280E-01   -0.60079E-03 27986   0.152E-01    0.136E+00
RMM:   6    -0.232612222169E+04    0.27052E-02   -0.92904E-03 27816   0.190E-01    0.139E+00
RMM:   7    -0.232616574623E+04   -0.43525E-01   -0.22625E-02 34121   0.201E-01    0.321E+00
RMM:   8    -0.232611812301E+04    0.47623E-01   -0.71141E-03 27639   0.177E-01    0.969E-01
RMM:   9    -0.232611231008E+04    0.58129E-02   -0.32119E-03 27670   0.131E-01    0.361E-01
RMM:  10    -0.232611224503E+04    0.65051E-04   -0.30360E-03 32351   0.820E-02    0.367E-01
RMM:  11    -0.232611282461E+04   -0.57957E-03   -0.22432E-03 32566   0.689E-02    0.477E-01
RMM:  12    -0.232611195137E+04    0.87324E-03   -0.89660E-04 28070   0.576E-02    0.248E-01
RMM:  13    -0.232611167811E+04    0.27326E-03   -0.67932E-04 32618   0.352E-02    0.108E-01
RMM:  14    -0.232611169710E+04   -0.18989E-04   -0.47668E-04 36574   0.238E-02    0.112E-01
RMM:  15    -0.232611166650E+04    0.30607E-04   -0.16916E-04 28994   0.223E-02    0.832E-02
RMM:  16    -0.232611164161E+04    0.24883E-04   -0.68275E-05 23700   0.159E-02    0.524E-02
RMM:  17    -0.232611163633E+04    0.52863E-05   -0.32930E-05 19065   0.988E-03
  12 F= -.23261116E+04 E0= -.23233565E+04  d E =-.983407E-03
       N       E                     dE             d eps       ncg     rms          rms(c)
DAV:   1    -0.232611167729E+04   -0.35674E-04   -0.40189E-01 27780   0.664E-01    0.964E-02
RMM:   2    -0.232613280773E+04   -0.21130E-01   -0.66995E-03 28165   0.173E-01    0.195E+00
RMM:   3    -0.232611437984E+04    0.18428E-01   -0.20912E-03 36626   0.647E-02    0.584E-01
RMM:   4    -0.232612833193E+04   -0.13952E-01   -0.92809E-04 29017   0.553E-02    0.173E+00
RMM:   5    -0.232611294348E+04    0.15388E-01   -0.80349E-04 27625   0.588E-02    0.297E-01
RMM:   6    -0.232611685375E+04   -0.39103E-02   -0.24364E-03 29443   0.847E-02    0.946E-01
RMM:   7    -0.232611427385E+04    0.25799E-02   -0.21497E-03 34264   0.657E-02    0.644E-01
RMM:   8    -0.232611268773E+04    0.15861E-02   -0.88087E-04 27649   0.655E-02    0.338E-01
RMM:   9    -0.232611217922E+04    0.50850E-03   -0.41997E-04 27618   0.435E-02    0.193E-01
RMM:  10    -0.232611216448E+04    0.14744E-04   -0.46436E-04 35019   0.276E-02    0.171E-01
RMM:  11    -0.232611228928E+04   -0.12480E-03   -0.33321E-04 34039   0.218E-02    0.226E-01
RMM:  12    -0.232611207558E+04    0.21370E-03   -0.12876E-04 26756   0.214E-02    0.109E-01
RMM:  13    -0.232611202017E+04    0.55415E-04   -0.59100E-05 22584   0.168E-02    0.549E-02
RMM:  14    -0.232611201437E+04    0.57929E-05   -0.33839E-05 17956   0.112E-02
  13 F= -.23261120E+04 E0= -.23233568E+04  d E =-.378047E-03
       N       E                     dE             d eps       ncg     rms          rms(c)
DAV:   1    -0.232610973729E+04    0.22829E-02   -0.36165E+00 27600   0.199E+00    0.276E-01
RMM:   2    -0.232631817102E+04   -0.20843E+00   -0.55888E-02 28169   0.513E-01    0.616E+00
RMM:   3    -0.232614240006E+04    0.17577E+00   -0.15323E-02 36077   0.185E-01    0.210E+00
RMM:   4    -0.232617931788E+04   -0.36918E-01   -0.73229E-03 30084   0.144E-01    0.347E+00
RMM:   5    -0.232612165775E+04    0.57660E-01   -0.77525E-03 27619   0.188E-01    0.110E+00
RMM:   6    -0.232616438810E+04   -0.42730E-01   -0.22326E-02 31990   0.214E-01    0.314E+00
RMM:   7    -0.232613202813E+04    0.32360E-01   -0.12793E-02 28572   0.214E-01    0.180E+00
RMM:   8    -0.232612017301E+04    0.11855E-01   -0.59766E-03 27669   0.164E-01    0.114E+00
RMM:   9    -0.232611327973E+04    0.68933E-02   -0.29176E-03 27614   0.131E-01    0.335E-01
RMM:  10    -0.232611343790E+04   -0.15817E-03   -0.21544E-03 30437   0.749E-02    0.407E-01
RMM:  11    -0.232611355298E+04   -0.11508E-03   -0.25763E-03 32686   0.727E-02    0.407E-01
RMM:  12    -0.232611284169E+04    0.71129E-03   -0.87151E-04 27770   0.622E-02    0.196E-01
RMM:  13    -0.232611267770E+04    0.16399E-03   -0.58311E-04 31465   0.350E-02    0.102E-01
RMM:  14    -0.232611269419E+04   -0.16490E-04   -0.43640E-04 36168   0.216E-02    0.996E-02
RMM:  15    -0.232611268403E+04    0.10161E-04   -0.17295E-04 29054   0.223E-02    0.867E-02
RMM:  16    -0.232611265688E+04    0.27154E-04   -0.67772E-05 23543   0.162E-02    0.526E-02
RMM:  17    -0.232611265585E+04    0.10247E-05   -0.39310E-05 20017   0.102E-02
  14 F= -.23261127E+04 E0= -.23233572E+04  d E =-.101953E-02
       N       E                     dE             d eps       ncg     rms          rms(c)
DAV:   1    -0.232611274251E+04   -0.85636E-04   -0.50974E-01 27600   0.748E-01    0.122E-01
RMM:   2    -0.232618437013E+04   -0.71628E-01   -0.11293E-02 28175   0.218E-01    0.361E+00
RMM:   3    -0.232612312760E+04    0.61243E-01   -0.54250E-03 37703   0.922E-02    0.120E+00
RMM:   4    -0.232613981469E+04   -0.16687E-01   -0.31290E-03 27988   0.113E-01    0.218E+00
RMM:   5    -0.232611508822E+04    0.24726E-01   -0.18218E-03 28126   0.849E-02    0.517E-01
RMM:   6    -0.232611866672E+04   -0.35785E-02   -0.46186E-03 31689   0.103E-01    0.973E-01
RMM:   7    -0.232611752217E+04    0.11445E-02   -0.36275E-03 29202   0.109E-01    0.901E-01
RMM:   8    -0.232611745070E+04    0.71470E-04   -0.17074E-03 28138   0.782E-02    0.896E-01
RMM:   9    -0.232611393086E+04    0.35198E-02   -0.81009E-04 27615   0.636E-02    0.341E-01
RMM:  10    -0.232611338799E+04    0.54287E-03   -0.48254E-04 27789   0.465E-02    0.205E-01
RMM:  11    -0.232611334167E+04    0.46320E-04   -0.61933E-04 35982   0.301E-02    0.178E-01
RMM:  12    -0.232611327212E+04    0.69554E-04   -0.24137E-04 28331   0.289E-02    0.135E-01
RMM:  13    -0.232611319723E+04    0.74890E-04   -0.97899E-05 25596   0.213E-02    0.741E-02
RMM:  14    -0.232611319231E+04    0.49245E-05   -0.69927E-05 22934   0.131E-02
  15 F= -.23261132E+04 E0= -.23233581E+04  d E =-.536454E-03
       N       E                     dE             d eps       ncg     rms          rms(c)
DAV:   1    -0.232611135603E+04    0.18412E-02   -0.25809E+00 27600   0.168E+00    0.245E-01
RMM:   2    -0.232622762560E+04   -0.11627E+00   -0.43289E-02 28098   0.442E-01    0.453E+00
RMM:   3    -0.232613310333E+04    0.94522E-01   -0.14671E-02 37136   0.168E-01    0.177E+00
RMM:   4    -0.232617603362E+04   -0.42930E-01   -0.57898E-03 27711   0.164E-01    0.334E+00
RMM:   5    -0.232612248541E+04    0.53548E-01   -0.42381E-03 33254   0.987E-02    0.118E+00
RMM:   6    -0.232612992969E+04   -0.74443E-02   -0.80306E-03 29406   0.153E-01    0.175E+00
RMM:   7    -0.232614557066E+04   -0.15641E-01   -0.16051E-02 32212   0.182E-01    0.237E+00
RMM:   8    -0.232612111767E+04    0.24453E-01   -0.59344E-03 27638   0.162E-01    0.114E+00
RMM:   9    -0.232611448631E+04    0.66314E-02   -0.24050E-03 27666   0.114E-01    0.382E-01
RMM:  10    -0.232611441099E+04    0.75318E-04   -0.18528E-03 30778   0.679E-02    0.408E-01
RMM:  11    -0.232611418934E+04    0.22165E-03   -0.16882E-03 30286   0.655E-02    0.330E-01
RMM:  12    -0.232611389083E+04    0.29851E-03   -0.93091E-04 28829   0.574E-02    0.231E-01
RMM:  13    -0.232611364259E+04    0.24824E-03   -0.39638E-04 28447   0.405E-02    0.119E-01
RMM:  14    -0.232611363809E+04    0.44969E-05   -0.41698E-04 34222   0.218E-02    0.101E-01
RMM:  15    -0.232611362403E+04    0.14066E-04   -0.17786E-04 29852   0.199E-02    0.831E-02
RMM:  16    -0.232611359209E+04    0.31938E-04   -0.51578E-05 21078   0.164E-02    0.399E-02
RMM:  17    -0.232611358842E+04    0.36691E-05   -0.23862E-05 17791   0.947E-03
  16 F= -.23261136E+04 E0= -.23233593E+04  d E =-.932568E-03
       N       E                     dE             d eps       ncg     rms          rms(c)
DAV:   1    -0.232611328266E+04    0.30943E-03   -0.76683E-01 27600   0.916E-01    0.131E-01
RMM:   2    -0.232613465133E+04   -0.21369E-01   -0.11856E-02 28102   0.235E-01    0.194E+00
RMM:   3    -0.232612366872E+04    0.10983E-01   -0.43333E-03 39366   0.760E-02    0.130E+00
RMM:   4    -0.232613334851E+04   -0.96798E-02   -0.17110E-03 28356   0.779E-02    0.187E+00
RMM:   5    -0.232611584566E+04    0.17503E-01   -0.12057E-03 27814   0.698E-02    0.529E-01
RMM:   6    -0.232611899494E+04   -0.31493E-02   -0.33414E-03 30141   0.920E-02    0.955E-01
RMM:   7    -0.232611927543E+04   -0.28049E-03   -0.33781E-03 29773   0.101E-01    0.985E-01
RMM:   8    -0.232611690252E+04    0.23729E-02   -0.18770E-03 30295   0.731E-02    0.734E-01
RMM:   9    -0.232611419371E+04    0.27088E-02   -0.83968E-04 27600   0.700E-02    0.207E-01
RMM:  10    -0.232611405329E+04    0.14042E-03   -0.57322E-04 31374   0.385E-02    0.177E-01
RMM:  11    -0.232611414998E+04   -0.96692E-04   -0.58005E-04 35587   0.303E-02    0.218E-01
RMM:  12    -0.232611398619E+04    0.16379E-03   -0.21140E-04 27586   0.280E-02    0.124E-01
RMM:  13    -0.232611390838E+04    0.77809E-04   -0.10152E-04 25917   0.201E-02    0.499E-02
RMM:  14    -0.232611391222E+04   -0.38393E-05   -0.77062E-05 23630   0.123E-02
  17 F= -.23261139E+04 E0= -.23233596E+04  d E =-.323800E-03
       N       E                     dE             d eps       ncg     rms          rms(c)
DAV:   1    -0.232610957619E+04    0.43322E-02   -0.56508E+00 27600   0.249E+00    0.345E-01
RMM:   2    -0.232624686791E+04   -0.13729E+00   -0.83160E-02 28119   0.630E-01    0.480E+00
RMM:   3    -0.232616475351E+04    0.82114E-01   -0.25864E-02 39083   0.199E-01    0.300E+00
RMM:   4    -0.232623387397E+04   -0.69120E-01   -0.84003E-03 28085   0.178E-01    0.467E+00
RMM:   5    -0.232612880757E+04    0.10507E+00   -0.70026E-03 28195   0.163E-01    0.146E+00
RMM:   6    -0.232614800988E+04   -0.19202E-01   -0.20220E-02 29395   0.235E-01    0.250E+00
RMM:   7    -0.232616926170E+04   -0.21252E-01   -0.19315E-02 28719   0.251E-01    0.322E+00
RMM:   8    -0.232612372181E+04    0.45540E-01   -0.83304E-03 27921   0.189E-01    0.120E+00
RMM:   9    -0.232611528263E+04    0.84392E-02   -0.41233E-03 27619   0.160E-01    0.404E-01
RMM:  10    -0.232611493914E+04    0.34348E-03   -0.28803E-03 28787   0.999E-02    0.404E-01
RMM:  11    -0.232611520719E+04   -0.26804E-03   -0.31494E-03 31575   0.833E-02    0.432E-01
RMM:  12    -0.232611473899E+04    0.46819E-03   -0.96930E-04 27745   0.649E-02    0.340E-01
RMM:  13    -0.232611420721E+04    0.53178E-03   -0.56738E-04 29583   0.395E-02    0.130E-01
RMM:  14    -0.232611420347E+04    0.37408E-05   -0.54836E-04 35897   0.265E-02    0.120E-01
RMM:  15    -0.232611420054E+04    0.29308E-05   -0.31674E-04 31099   0.272E-02    0.109E-01
RMM:  16    -0.232611415068E+04    0.49857E-04   -0.11016E-04 26568   0.203E-02    0.533E-02
RMM:  17    -0.232611415121E+04   -0.53190E-06   -0.73990E-05 23014   0.116E-02
  18 F= -.23261142E+04 E0= -.23233597E+04  d E =-.562791E-03
       N       E                     dE             d eps       ncg     rms          rms(c)
DAV:   1    -0.232611364637E+04    0.50430E-03   -0.11328E+00 27600   0.111E+00    0.157E-01
RMM:   2    -0.232615340756E+04   -0.39761E-01   -0.17490E-02 28094   0.285E-01    0.267E+00
RMM:   3    -0.232612211425E+04    0.31293E-01   -0.55284E-03 38625   0.928E-02    0.109E+00
RMM:   4    -0.232614588484E+04   -0.23771E-01   -0.26042E-03 29879   0.828E-02    0.239E+00
RMM:   5    -0.232611679615E+04    0.29089E-01   -0.23046E-03 27606   0.104E-01    0.529E-01
RMM:   6    -0.232612731758E+04   -0.10521E-01   -0.60403E-03 34518   0.105E-01    0.157E+00
RMM:   7    -0.232611896425E+04    0.83533E-02   -0.42557E-03 28421   0.121E-01    0.837E-01
RMM:   8    -0.232611715596E+04    0.18083E-02   -0.20532E-03 27617   0.976E-02    0.645E-01
RMM:   9    -0.232611529246E+04    0.18635E-02   -0.88365E-04 27610   0.687E-02    0.358E-01
RMM:  10    -0.232611481461E+04    0.47785E-03   -0.55349E-04 28858   0.429E-02    0.205E-01
RMM:  11    -0.232611475543E+04    0.59180E-04   -0.60030E-04 31541   0.376E-02    0.178E-01
RMM:  12    -0.232611468292E+04    0.72513E-04   -0.35870E-04 29352   0.336E-02    0.132E-01
RMM:  13    -0.232611460088E+04    0.82032E-04   -0.13585E-04 27037   0.250E-02    0.632E-02
RMM:  14    -0.232611460472E+04   -0.38361E-05   -0.12323E-04 26718   0.145E-02    0.646E-02
RMM:  15    -0.232611460653E+04   -0.18064E-05   -0.64002E-05 22550   0.146E-02
  19 F= -.23261146E+04 E0= -.23233596E+04  d E =-.455316E-03
       N       E                     dE             d eps       ncg     rms          rms(c)
DAV:   1    -0.232611291485E+04    0.16899E-02   -0.23202E+00 27600   0.159E+00    0.218E-01
RMM:   2    -0.232613620433E+04   -0.23289E-01   -0.32170E-02 28113   0.392E-01    0.195E+00
RMM:   3    -0.232613499382E+04    0.12105E-02   -0.91008E-03 39450   0.108E-01    0.192E+00
RMM:   4    -0.232614674810E+04   -0.11754E-01   -0.30769E-03 28352   0.107E-01    0.242E+00
RMM:   5    -0.232612334206E+04    0.23406E-01   -0.28630E-03 28561   0.100E-01    0.121E+00
RMM:   6    -0.232612510134E+04   -0.17593E-02   -0.54714E-03 30846   0.119E-01    0.138E+00
RMM:   7    -0.232613011550E+04   -0.50142E-02   -0.97660E-03 29968   0.161E-01    0.161E+00
RMM:   8    -0.232611926723E+04    0.10848E-01   -0.39719E-03 27669   0.135E-01    0.851E-01
RMM:   9    -0.232611576086E+04    0.35064E-02   -0.16675E-03 27671   0.951E-02    0.397E-01
RMM:  10    -0.232611518169E+04    0.57917E-03   -0.96194E-04 28486   0.613E-02    0.253E-01
RMM:  11    -0.232611517892E+04    0.27716E-05   -0.10205E-03 31402   0.479E-02    0.252E-01
RMM:  12    -0.232611505048E+04    0.12844E-03   -0.64157E-04 29035   0.462E-02    0.185E-01
RMM:  13    -0.232611486947E+04    0.18101E-03   -0.23860E-04 27617   0.346E-02    0.902E-02
RMM:  14    -0.232611485604E+04    0.13431E-04   -0.20523E-04 29887   0.169E-02    0.671E-02
RMM:  15    -0.232611486164E+04   -0.56004E-05   -0.10654E-04 26242   0.167E-02    0.714E-02
RMM:  16    -0.232611484280E+04    0.18833E-04   -0.38436E-05 19097   0.139E-02    0.399E-02
RMM:  17    -0.232611483880E+04    0.40085E-05   -0.16262E-05 15673   0.823E-03
  20 F= -.23261148E+04 E0= -.23233591E+04  d E =-.687585E-03
       N       E                     dE             d eps       ncg     rms          rms(c)
DAV:   1    -0.232611485880E+04   -0.15992E-04   -0.44434E-01 27620   0.699E-01    0.116E-01
RMM:   2    -0.232615678842E+04   -0.41930E-01   -0.11383E-02 28997   0.211E-01    0.282E+00
RMM:   3    -0.232612742648E+04    0.29362E-01   -0.46550E-03 34135   0.102E-01    0.135E+00
RMM:   4    -0.232611772284E+04    0.97036E-02   -0.18404E-03 27612   0.987E-02    0.639E-01
RMM:   5    -0.232612891367E+04   -0.11191E-01   -0.13693E-03 33993   0.521E-02    0.158E+00
RMM:   6    -0.232611734270E+04    0.11571E-01   -0.11203E-03 30589   0.536E-02    0.593E-01
RMM:   7    -0.232612207711E+04   -0.47344E-02   -0.35101E-03 32478   0.827E-02    0.114E+00
RMM:   8    -0.232611677632E+04    0.53008E-02   -0.20408E-03 28685   0.863E-02    0.497E-01
RMM:   9    -0.232611539891E+04    0.13774E-02   -0.83415E-04 27607   0.734E-02    0.173E-01
RMM:  10    -0.232611528143E+04    0.11748E-03   -0.33375E-04 28589   0.361E-02    0.127E-01
RMM:  11    -0.232611541202E+04   -0.13059E-03   -0.47590E-04 34080   0.269E-02    0.195E-01
RMM:  12    -0.232611530030E+04    0.11172E-03   -0.16915E-04 27295   0.252E-02    0.125E-01
RMM:  13    -0.232611522666E+04    0.73642E-04   -0.82601E-05 24235   0.189E-02    0.591E-02
RMM:  14    -0.232611522067E+04    0.59877E-05   -0.49336E-05 20912   0.104E-02
  21 F= -.23261152E+04 E0= -.23233596E+04  d E =-.381876E-03
