<?xml version="1.0" encoding="ISO-8859-1"?>
<modeling>
 <generator>
  <i name="program" type="string">vasp </i>
  <i name="version" type="string">5.4.4.18Apr17-6-g9f103f2a35  </i>
  <i name="subversion" type="string">(build May 29 2019 08:40:53) complex            parallel </i>
  <i name="platform" type="string">LinuxPGI </i>
  <i name="date" type="string">2021 11 22 </i>
  <i name="time" type="string">07:08:58 </i>
 </generator>
 <incar>
  <i type="int" name="ISTART">     2</i>
  <i type="string" name="PREC">accurate</i>
  <i type="string" name="ALGO"> Fast</i>
  <i type="int" name="ICHARG">     2</i>
  <i type="int" name="INIWAV">     1</i>
  <i type="int" name="NELM">   100</i>
  <i type="int" name="NELMIN">     4</i>
  <i type="int" name="IBRION">     2</i>
  <i name="EDIFF">      0.00001000</i>
  <i type="int" name="NSW">   500</i>
  <i type="int" name="ISIF">     2</i>
  <i type="int" name="ISYM">     2</i>
  <i name="ENCUT">    500.00000000</i>
  <i name="POTIM">      0.25000000</i>
  <i type="string" name="LREAL"> Auto</i>
  <i type="int" name="ISMEAR">     0</i>
  <i name="SIGMA">      0.15000000</i>
  <i type="logical" name="LWAVE"> F  </i>
  <i type="logical" name="LCHARG"> F  </i>
  <v type="int" name="KPOINT_BSE">    -1     0     0     0</v>
  <i type="int" name="NELM">   100</i>
 </incar>
 <structure name="primitive_cell" >
  <crystal>
   <varray name="basis" >
    <v>       9.72667800       0.00000000       0.00000000 </v>
    <v>       0.00000000       8.42355000       0.00000000 </v>
    <v>       0.00000000       0.00000000      45.00000000 </v>
   </varray>
   <i name="volume">   3686.99213101 </i>
   <varray name="rec_basis" >
    <v>       0.10281002       0.00000000       0.00000000 </v>
    <v>       0.00000000       0.11871479       0.00000000 </v>
    <v>       0.00000000       0.00000000       0.02222222 </v>
   </varray>
  </crystal>
  <varray name="positions" >
   <v>       0.43725279      -0.04855559       0.21359592 </v>
   <v>       0.18762347      -0.04897061       0.21355434 </v>
   <v>       0.31230426       0.20102356       0.21348727 </v>
   <v>       0.31272089       0.03476382       0.25772653 </v>
   <v>       0.43758366      -0.21512850       0.25768259 </v>
   <v>       0.31265300      -0.29880543       0.21351826 </v>
   <v>      -0.43748936       0.20135607       0.21347074 </v>
   <v>      -0.43748804      -0.29884212       0.21348035 </v>
   <v>      -0.43747206       0.03490015       0.25778255 </v>
   <v>      -0.31223728      -0.04856579       0.21359255 </v>
   <v>       0.43732240       0.11733607       0.16879484 </v>
   <v>       0.31262759      -0.13186743       0.16871654 </v>
   <v>      -0.43748160      -0.13216055       0.16823197 </v>
   <v>       0.18749784      -0.21516202       0.25776978 </v>
   <v>      -0.31257693      -0.21517358       0.25767607 </v>
   <v>       0.43746321       0.28522042       0.25769079 </v>
   <v>       0.18736862       0.11832736       0.16891630 </v>
   <v>      -0.31231516       0.11733235       0.16880197 </v>
   <v>       0.43789148      -0.38212293       0.16879524 </v>
   <v>       0.31253538       0.03460004       0.12663662 </v>
   <v>       0.43768422      -0.21468611       0.12652721 </v>
   <v>      -0.43751883       0.03434380       0.12643451 </v>
   <v>       0.31165176      -0.13117527       0.30170898 </v>
   <v>       0.06247158       0.20103450       0.21358145 </v>
   <v>       0.06250438       0.03483570       0.25767129 </v>
   <v>      -0.43749785      -0.13101058       0.30180913 </v>
   <v>       0.31289647      -0.46527954       0.25772050 </v>
   <v>       0.43744963       0.45130366       0.21351999 </v>
   <v>       0.06246461      -0.29873025       0.21356500 </v>
   <v>       0.18744756       0.28474802       0.25774957 </v>
   <v>      -0.18768822       0.03471917       0.25773221 </v>
   <v>      -0.43748511      -0.46506362       0.25780736 </v>
   <v>      -0.18731615       0.20099413       0.21347769 </v>
   <v>      -0.18767538      -0.29883636       0.21351069 </v>
   <v>       0.43722503       0.11887578       0.30183664 </v>
   <v>      -0.31245841       0.28523561       0.25768967 </v>
   <v>      -0.43750044       0.36756275       0.16888649 </v>
   <v>       0.18759546      -0.38209858       0.16889702 </v>
   <v>       0.06246776      -0.13208147       0.16885478 </v>
   <v>       0.31197701       0.36802844       0.16882257 </v>
   <v>      -0.31290328      -0.38215156       0.16879790 </v>
   <v>      -0.18765449      -0.13187473       0.16872126 </v>
   <v>       0.18689476      -0.21501479       0.12672049 </v>
   <v>       0.43712037       0.28520734       0.12671074 </v>
   <v>      -0.31272853      -0.21466151       0.12652463 </v>
   <v>       0.43726889      -0.38105197       0.30186114 </v>
   <v>       0.18741604       0.45132522       0.21362445 </v>
   <v>      -0.06261136      -0.04899896       0.21355826 </v>
   <v>      -0.31240789       0.45128066       0.21351836 </v>
   <v>       0.18770825       0.11873350       0.30188491 </v>
   <v>      -0.31228511       0.11894137       0.30179789 </v>
   <v>       0.06245921       0.03460686       0.12665540 </v>
   <v>      -0.43750860      -0.46509668       0.12664856 </v>
   <v>       0.18728856       0.28485015       0.12664693 </v>
   <v>      -0.18762698       0.03466501       0.12663518 </v>
   <v>       0.31236779      -0.46594091       0.12669118 </v>
   <v>      -0.31214182       0.28523044       0.12670232 </v>
   <v>       0.18753514      -0.38142091       0.30184520 </v>
   <v>      -0.06249826      -0.21520058       0.25775558 </v>
   <v>       0.06242737      -0.13129337       0.30185334 </v>
   <v>      -0.31229781      -0.38105660       0.30185273 </v>
   <v>      -0.18791529      -0.46525279       0.25772071 </v>
   <v>       0.06248798      -0.46534923       0.25776314 </v>
   <v>      -0.18666914      -0.13101784       0.30173842 </v>
   <v>      -0.43750499       0.36931132       0.30175505 </v>
   <v>       0.31208720       0.36885992       0.30186217 </v>
   <v>      -0.06242735       0.11832683       0.16892196 </v>
   <v>       0.06246919       0.36843862       0.16884650 </v>
   <v>      -0.18698019       0.36801395       0.16882614 </v>
   <v>      -0.06243189       0.28479210       0.25774713 </v>
   <v>      -0.06262034      -0.38211094       0.16890076 </v>
   <v>       0.43729171      -0.04706910       0.34631956 </v>
   <v>      -0.06196468      -0.21499685       0.12671287 </v>
   <v>       0.06244087      -0.46585063       0.12669248 </v>
   <v>      -0.18744837      -0.46593218       0.12668692 </v>
   <v>      -0.06245446       0.45128855       0.21361583 </v>
   <v>       0.06250477       0.36852124       0.30180161 </v>
   <v>      -0.06271431       0.11873265       0.30186004 </v>
   <v>      -0.18712757       0.36882858       0.30185066 </v>
   <v>       0.31234325      -0.29705835       0.34628477 </v>
   <v>      -0.43757822      -0.29698995       0.34628505 </v>
   <v>      -0.31227008      -0.04718374       0.34625532 </v>
   <v>       0.18727709      -0.04703010       0.34632923 </v>
   <v>      -0.43760183       0.20269285       0.34624678 </v>
   <v>       0.31276998       0.20303860       0.34638568 </v>
   <v>      -0.06238473       0.28487092       0.12664212 </v>
   <v>      -0.06257488      -0.38145066       0.30184165 </v>
   <v>       0.43739131       0.45312657       0.34629904 </v>
   <v>       0.06249446      -0.29735293       0.34631499 </v>
   <v>      -0.18742763      -0.29720095       0.34630232 </v>
   <v>       0.06252599       0.20292278       0.34632714 </v>
   <v>      -0.18785311       0.20303595       0.34640057 </v>
   <v>      -0.31250706       0.45308444       0.34628742 </v>
   <v>       0.18747694       0.45285689       0.34630231 </v>
   <v>      -0.06238113      -0.04702327       0.34628609 </v>
   <v>      -0.43761571       0.03639266       0.39010041 </v>
   <v>       0.43745274      -0.21333578       0.39021458 </v>
   <v>       0.31214757       0.03694454       0.39028901 </v>
   <v>       0.18752795      -0.21337564       0.39019278 </v>
   <v>      -0.31258984      -0.21300431       0.39020010 </v>
   <v>       0.43743977       0.28645846       0.39021655 </v>
   <v>       0.31198370      -0.46321366       0.39027513 </v>
   <v>      -0.06251736       0.45290774       0.34627494 </v>
   <v>       0.06260391       0.03691166       0.39015128 </v>
   <v>      -0.43749377      -0.46363518       0.39027761 </v>
   <v>      -0.31232332       0.28640502       0.39020233 </v>
   <v>      -0.18740151       0.03722964       0.39028200 </v>
   <v>       0.18745722       0.28717301       0.39024251 </v>
   <v>       0.06241279      -0.46294035       0.39012789 </v>
   <v>      -0.18706564      -0.46280604       0.39020635 </v>
   <v>      -0.06259131      -0.21314627       0.39018911 </v>
   <v>      -0.06276033       0.28712751       0.39025145 </v>
   <v>      -0.43778055      -0.12926732       0.43476220 </v>
   <v>       0.31246211      -0.12912720       0.43490439 </v>
   <v>       0.43738508       0.12044514       0.43486327 </v>
   <v>       0.43743328      -0.37950543       0.43485282 </v>
   <v>       0.18741853       0.12060480       0.43485170 </v>
   <v>      -0.31263484       0.12066546       0.43511542 </v>
   <v>       0.18754661      -0.37945112       0.43479653 </v>
   <v>      -0.18751570      -0.12900714       0.43477213 </v>
   <v>       0.06256885      -0.12916505       0.43485015 </v>
   <v>      -0.31246748      -0.37928753       0.43491288 </v>
   <v>      -0.43735968       0.37101131       0.43471671 </v>
   <v>       0.31239419       0.37072356       0.43491609 </v>
   <v>      -0.06215544       0.12056493       0.43471485 </v>
   <v>       0.06219578       0.37058908       0.43484868 </v>
   <v>      -0.18736592       0.37127974       0.43477731 </v>
   <v>      -0.06261015      -0.37927491       0.43482433 </v>
   <v>       0.43764329      -0.04521775       0.47865096 </v>
   <v>       0.31246550      -0.29514306       0.47864157 </v>
   <v>      -0.43774746      -0.29510286       0.47870189 </v>
   <v>       0.18742175      -0.04517971       0.47861588 </v>
   <v>      -0.31249309      -0.04590443       0.47868192 </v>
   <v>      -0.43821895       0.20553889       0.47867726 </v>
   <v>       0.31245296       0.20492300       0.47872812 </v>
   <v>       0.43770541       0.45486686       0.47861112 </v>
   <v>       0.06267642      -0.29485742       0.47860131 </v>
   <v>      -0.18750707      -0.29495098       0.47862300 </v>
   <v>       0.06284666       0.20548358       0.47858456 </v>
   <v>      -0.18741960       0.20509574       0.47874282 </v>
   <v>       0.18729812       0.45499891       0.47860049 </v>
   <v>      -0.31293235       0.45480575       0.47864628 </v>
   <v>      -0.06271180      -0.04533214       0.47856075 </v>
   <v>      -0.06216308       0.45509899       0.47860097 </v>
   <v>      -0.43790934      -0.12737666      -0.47861087 </v>
   <v>       0.31263466      -0.12745800      -0.47856732 </v>
   <v>       0.43731451       0.12211653      -0.47862975 </v>
   <v>       0.43722414      -0.37749237      -0.47867374 </v>
   <v>      -0.31268093       0.12247602      -0.47873071 </v>
   <v>       0.18728488       0.12263662      -0.47865722 </v>
   <v>       0.18754810      -0.37739099      -0.47869172 </v>
   <v>      -0.31256518      -0.37757172      -0.47868478 </v>
   <v>       0.06244898      -0.12733722      -0.47867511 </v>
   <v>      -0.18720952      -0.12707013      -0.47869666 </v>
   <v>       0.31254638       0.37283085      -0.47866849 </v>
   <v>      -0.43733936       0.37259536      -0.47859578 </v>
   <v>      -0.06187071       0.12232693      -0.47877162 </v>
   <v>       0.06231429       0.37248638      -0.47862676 </v>
   <v>      -0.18749803       0.37338486      -0.47866502 </v>
   <v>      -0.06224535      -0.37745691      -0.47869188 </v>
   <v>       0.43840673      -0.20728448      -0.12643074 </v>
   <v>       0.31246155       0.04407218      -0.12647623 </v>
   <v>      -0.43728221       0.04312168      -0.12660881 </v>
   <v>      -0.31323937      -0.20692765      -0.12645809 </v>
   <v>       0.18663711      -0.20705649      -0.12666993 </v>
   <v>       0.43695303       0.29237312      -0.12658613 </v>
   <v>      -0.43825887      -0.45587390      -0.12649753 </v>
   <v>       0.31261703      -0.45762071      -0.12664493 </v>
   <v>       0.06253561       0.04357819      -0.12656713 </v>
   <v>      -0.18722177       0.04368697      -0.12659326 </v>
   <v>       0.18774704       0.29268404      -0.12653317 </v>
   <v>      -0.31165908       0.29202164      -0.12673531 </v>
   <v>       0.43773740      -0.04299917      -0.43487401 </v>
   <v>      -0.43711985      -0.29301582      -0.43486729 </v>
   <v>       0.31240730      -0.29316990      -0.43483884 </v>
   <v>       0.18723568      -0.04307848      -0.43490260 </v>
   <v>      -0.31249664      -0.04359067      -0.43483555 </v>
   <v>       0.31259346       0.20711047      -0.43487983 </v>
   <v>      -0.43764911       0.20711127      -0.43472601 </v>
   <v>       0.06329302      -0.45588475      -0.12673380 </v>
   <v>      -0.06123686      -0.20710132      -0.12667729 </v>
   <v>      -0.18720318      -0.45673690      -0.12692287 </v>
   <v>      -0.06267406       0.29204236      -0.12664071 </v>
   <v>       0.43752603       0.45686741      -0.43489500 </v>
   <v>      -0.18757242      -0.29306996      -0.43497143 </v>
   <v>       0.06225804      -0.29304582      -0.43492083 </v>
   <v>      -0.18734798       0.20699907      -0.43514183 </v>
   <v>       0.06229346       0.20715341      -0.43480455 </v>
   <v>       0.18753215       0.45701271      -0.43487897 </v>
   <v>      -0.31278867       0.45736564      -0.43480488 </v>
   <v>      -0.06238041      -0.04329116      -0.43485203 </v>
   <v>      -0.06221039       0.45716529      -0.43473194 </v>
   <v>       0.43800038      -0.04000098      -0.16876055 </v>
   <v>      -0.43702140      -0.29048666      -0.16810873 </v>
   <v>       0.31207277       0.20921610      -0.16825931 </v>
   <v>       0.31255551      -0.29020275      -0.16876402 </v>
   <v>       0.18765940      -0.03952430      -0.16877394 </v>
   <v>      -0.31272632      -0.04041755      -0.16882255 </v>
   <v>      -0.43757529       0.20970875      -0.16889852 </v>
   <v>       0.43698844       0.46033378      -0.16888011 </v>
   <v>       0.06162933      -0.29042760      -0.16873002 </v>
   <v>      -0.18727241      -0.29108451      -0.16876337 </v>
   <v>      -0.18694843       0.21038883      -0.16862019 </v>
   <v>       0.06278030       0.20932956      -0.16888008 </v>
   <v>      -0.31175707       0.46094346      -0.16872549 </v>
   <v>       0.18802136       0.45933788      -0.16891611 </v>
   <v>       0.43735440      -0.20892296      -0.39020532 </v>
   <v>      -0.06266837      -0.03962677      -0.16887328 </v>
   <v>      -0.43743347       0.04154273      -0.39022816 </v>
   <v>       0.31234195       0.04118942      -0.39017705 </v>
   <v>       0.18795932      -0.20895921      -0.39031590 </v>
   <v>      -0.31267061      -0.20893032      -0.39019021 </v>
   <v>       0.43770349       0.29107096      -0.39010585 </v>
   <v>       0.31240337      -0.45923225      -0.39029091 </v>
   <v>      -0.43737267      -0.45921936      -0.39018113 </v>
   <v>      -0.18756407       0.04153586      -0.39030315 </v>
   <v>       0.06258344       0.04123012      -0.39023257 </v>
   <v>      -0.31277800       0.29115118      -0.39019044 </v>
   <v>       0.18767741       0.29130731      -0.39015358 </v>
   <v>      -0.06296169       0.46056501      -0.16880842 </v>
   <v>      -0.18751511      -0.45866080      -0.39023773 </v>
   <v>       0.06254676      -0.45863554      -0.39019932 </v>
   <v>      -0.06252174      -0.20837199      -0.39013964 </v>
   <v>      -0.06254282       0.29164474      -0.39015552 </v>
   <v>      -0.43712526      -0.12272019      -0.21366092 </v>
   <v>       0.43789434       0.12642965      -0.21357748 </v>
   <v>       0.31288857      -0.12337601      -0.21379090 </v>
   <v>       0.43724463      -0.37360905      -0.21370714 </v>
   <v>      -0.31272005       0.12710504      -0.21345572 </v>
   <v>       0.18712691       0.12649835      -0.21365008 </v>
   <v>       0.18752688      -0.37350487      -0.21356743 </v>
   <v>      -0.31229620      -0.37366487      -0.21368944 </v>
   <v>       0.06221144      -0.12325786      -0.21357440 </v>
   <v>      -0.18751572      -0.12271924      -0.21365050 </v>
   <v>       0.31259771       0.37688133      -0.21369349 </v>
   <v>      -0.43775349       0.37647572      -0.21371260 </v>
   <v>      -0.43759337      -0.12488876      -0.34629045 </v>
   <v>       0.31265233      -0.12533724      -0.34627799 </v>
   <v>       0.43708957       0.12522897      -0.34624553 </v>
   <v>      -0.06222216       0.12681907      -0.21351683 </v>
   <v>      -0.18753213       0.37658339      -0.21352980 </v>
   <v>       0.06289440       0.37614257      -0.21374822 </v>
   <v>       0.43727211      -0.37497586      -0.34633604 </v>
   <v>      -0.31223525       0.12500695      -0.34629693 </v>
   <v>       0.18771122       0.12507923      -0.34626143 </v>
   <v>      -0.06246593      -0.37370614      -0.21354036 </v>
   <v>      -0.31256134      -0.37436939      -0.34633636 </v>
   <v>       0.18737477      -0.37488699      -0.34633606 </v>
   <v>       0.06277027      -0.12504750      -0.34629396 </v>
   <v>      -0.18777557      -0.12482999      -0.34628420 </v>
   <v>      -0.43746380       0.37524779      -0.34623792 </v>
   <v>       0.31265708       0.37515103      -0.34621713 </v>
   <v>      -0.06238898       0.12507911      -0.34629522 </v>
   <v>       0.06215019       0.37523487      -0.34628456 </v>
   <v>      -0.18738071       0.37502493      -0.34624164 </v>
   <v>      -0.06202994      -0.37450612      -0.34621834 </v>
   <v>       0.43764026      -0.20697011      -0.25776582 </v>
   <v>      -0.43748500       0.04288649      -0.25771431 </v>
   <v>       0.31246649       0.04336520      -0.25773781 </v>
   <v>      -0.31248861      -0.20761993      -0.25767469 </v>
   <v>       0.18734676      -0.20663987      -0.25772117 </v>
   <v>       0.43737872       0.29327245      -0.25760636 </v>
   <v>       0.31247147      -0.45662778      -0.25767458 </v>
   <v>      -0.43741367      -0.45678975      -0.25777970 </v>
   <v>      -0.18751810       0.04268991      -0.25759902 </v>
   <v>       0.06260437       0.04280472      -0.25766098 </v>
   <v>       0.18752862       0.29320181      -0.25768489 </v>
   <v>      -0.31240484       0.29291257      -0.25770261 </v>
   <v>      -0.18748252      -0.45737960      -0.25767442 </v>
   <v>       0.06239834      -0.45691969      -0.25775323 </v>
   <v>      -0.06249140      -0.20728191      -0.25772289 </v>
   <v>       0.43762941      -0.04061533      -0.30186696 </v>
   <v>      -0.43715690      -0.29131790      -0.30197432 </v>
   <v>       0.31242165      -0.29100877      -0.30190536 </v>
   <v>       0.31237108       0.20986219      -0.30197309 </v>
   <v>       0.18784827      -0.04067998      -0.30177654 </v>
   <v>      -0.31297269      -0.04075034      -0.30174289 </v>
   <v>      -0.43741629       0.20924893      -0.30178866 </v>
   <v>      -0.06251633       0.29304735      -0.25775948 </v>
   <v>       0.43740472       0.45942908      -0.30184314 </v>
   <v>       0.06235021      -0.29089823      -0.30192132 </v>
   <v>      -0.18748811      -0.29106490      -0.30186519 </v>
   <v>       0.06251483       0.20896783      -0.30182917 </v>
   <v>      -0.18751424       0.20899097      -0.30181379 </v>
   <v>      -0.31278584       0.45878706      -0.30188738 </v>
   <v>       0.18768997       0.45957328      -0.30179302 </v>
   <v>      -0.06280757      -0.04069644      -0.30183429 </v>
   <v>      -0.06249318       0.45879378      -0.30178186 </v>
  </varray>
 </structure>
 <varray name="primitive_index" >
  <v type="int" >        1 </v>
  <v type="int" >       31 </v>
  <v type="int" >      105 </v>
  <v type="int" >      142 </v>
  <v type="int" >      266 </v>
  <v type="int" >       56 </v>
  <v type="int" >        7 </v>
  <v type="int" >       68 </v>
  <v type="int" >      114 </v>
  <v type="int" >      269 </v>
  <v type="int" >      123 </v>
  <v type="int" >       97 </v>
  <v type="int" >      285 </v>
  <v type="int" >      128 </v>
  <v type="int" >       17 </v>
  <v type="int" >      245 </v>
  <v type="int" >       87 </v>
  <v type="int" >       67 </v>
  <v type="int" >      264 </v>
  <v type="int" >      141 </v>
  <v type="int" >      224 </v>
  <v type="int" >      180 </v>
  <v type="int" >       43 </v>
  <v type="int" >      265 </v>
  <v type="int" >      277 </v>
  <v type="int" >      274 </v>
  <v type="int" >      110 </v>
  <v type="int" >      249 </v>
  <v type="int" >       85 </v>
  <v type="int" >       53 </v>
  <v type="int" >      271 </v>
  <v type="int" >       15 </v>
  <v type="int" >       14 </v>
  <v type="int" >       89 </v>
  <v type="int" >       76 </v>
  <v type="int" >      182 </v>
  <v type="int" >      133 </v>
  <v type="int" >      121 </v>
  <v type="int" >      158 </v>
  <v type="int" >      168 </v>
  <v type="int" >      140 </v>
  <v type="int" >      254 </v>
  <v type="int" >      197 </v>
  <v type="int" >      162 </v>
  <v type="int" >      118 </v>
  <v type="int" >       69 </v>
  <v type="int" >      167 </v>
  <v type="int" >      171 </v>
  <v type="int" >        5 </v>
  <v type="int" >      200 </v>
  <v type="int" >       19 </v>
  <v type="int" >      151 </v>
  <v type="int" >      273 </v>
  <v type="int" >        4 </v>
  <v type="int" >      259 </v>
  <v type="int" >      124 </v>
  <v type="int" >      165 </v>
  <v type="int" >      125 </v>
  <v type="int" >      129 </v>
  <v type="int" >      199 </v>
  <v type="int" >       92 </v>
  <v type="int" >       27 </v>
  <v type="int" >      184 </v>
  <v type="int" >      150 </v>
  <v type="int" >      279 </v>
  <v type="int" >      102 </v>
  <v type="int" >      267 </v>
  <v type="int" >       79 </v>
  <v type="int" >      228 </v>
  <v type="int" >      117 </v>
  <v type="int" >        9 </v>
  <v type="int" >       10 </v>
  <v type="int" >      263 </v>
  <v type="int" >      161 </v>
  <v type="int" >      221 </v>
  <v type="int" >      210 </v>
  <v type="int" >      136 </v>
  <v type="int" >      139 </v>
  <v type="int" >       37 </v>
  <v type="int" >      135 </v>
  <v type="int" >      240 </v>
  <v type="int" >      268 </v>
  <v type="int" >      238 </v>
  <v type="int" >      253 </v>
  <v type="int" >      215 </v>
  <v type="int" >      233 </v>
  <v type="int" >      257 </v>
  <v type="int" >       98 </v>
  <v type="int" >      131 </v>
  <v type="int" >      226 </v>
  <v type="int" >      202 </v>
  <v type="int" >      209 </v>
  <v type="int" >       80 </v>
  <v type="int" >      155 </v>
  <v type="int" >      173 </v>
  <v type="int" >      288 </v>
  <v type="int" >       40 </v>
  <v type="int" >       44 </v>
  <v type="int" >      107 </v>
  <v type="int" >      262 </v>
  <v type="int" >       84 </v>
  <v type="int" >       34 </v>
  <v type="int" >       52 </v>
  <v type="int" >       66 </v>
  <v type="int" >      104 </v>
  <v type="int" >      239 </v>
  <v type="int" >      216 </v>
  <v type="int" >       49 </v>
  <v type="int" >       63 </v>
  <v type="int" >      122 </v>
  <v type="int" >      108 </v>
  <v type="int" >      148 </v>
  <v type="int" >       62 </v>
  <v type="int" >       54 </v>
  <v type="int" >      137 </v>
  <v type="int" >       11 </v>
  <v type="int" >       93 </v>
  <v type="int" >       12 </v>
  <v type="int" >        2 </v>
  <v type="int" >      188 </v>
  <v type="int" >       46 </v>
  <v type="int" >      134 </v>
  <v type="int" >      220 </v>
  <v type="int" >       72 </v>
  <v type="int" >       81 </v>
  <v type="int" >      195 </v>
  <v type="int" >       13 </v>
  <v type="int" >      192 </v>
  <v type="int" >      208 </v>
  <v type="int" >       33 </v>
  <v type="int" >      198 </v>
  <v type="int" >       96 </v>
  <v type="int" >      205 </v>
  <v type="int" >       47 </v>
  <v type="int" >       61 </v>
  <v type="int" >      183 </v>
  <v type="int" >       48 </v>
  <v type="int" >       70 </v>
  <v type="int" >      241 </v>
  <v type="int" >      286 </v>
  <v type="int" >       86 </v>
  <v type="int" >      160 </v>
  <v type="int" >      250 </v>
  <v type="int" >      164 </v>
  <v type="int" >      218 </v>
  <v type="int" >      174 </v>
  <v type="int" >      236 </v>
  <v type="int" >      101 </v>
  <v type="int" >      283 </v>
  <v type="int" >       32 </v>
  <v type="int" >       39 </v>
  <v type="int" >       99 </v>
  <v type="int" >      145 </v>
  <v type="int" >      261 </v>
  <v type="int" >        6 </v>
  <v type="int" >      222 </v>
  <v type="int" >      146 </v>
  <v type="int" >      201 </v>
  <v type="int" >      193 </v>
  <v type="int" >       74 </v>
  <v type="int" >      213 </v>
  <v type="int" >      115 </v>
  <v type="int" >      256 </v>
  <v type="int" >       78 </v>
  <v type="int" >      270 </v>
  <v type="int" >      126 </v>
  <v type="int" >      234 </v>
  <v type="int" >       22 </v>
  <v type="int" >      272 </v>
  <v type="int" >      214 </v>
  <v type="int" >      144 </v>
  <v type="int" >      157 </v>
  <v type="int" >      152 </v>
  <v type="int" >      211 </v>
  <v type="int" >      186 </v>
  <v type="int" >      212 </v>
  <v type="int" >      149 </v>
  <v type="int" >      275 </v>
  <v type="int" >      237 </v>
  <v type="int" >      143 </v>
  <v type="int" >       71 </v>
  <v type="int" >      280 </v>
  <v type="int" >      170 </v>
  <v type="int" >      235 </v>
  <v type="int" >       57 </v>
  <v type="int" >      194 </v>
  <v type="int" >      204 </v>
  <v type="int" >       90 </v>
  <v type="int" >       95 </v>
  <v type="int" >       25 </v>
  <v type="int" >       30 </v>
  <v type="int" >      225 </v>
  <v type="int" >      243 </v>
  <v type="int" >      281 </v>
  <v type="int" >      278 </v>
  <v type="int" >      166 </v>
  <v type="int" >      116 </v>
  <v type="int" >      175 </v>
  <v type="int" >       82 </v>
  <v type="int" >       23 </v>
  <v type="int" >      113 </v>
  <v type="int" >      190 </v>
  <v type="int" >       83 </v>
  <v type="int" >       94 </v>
  <v type="int" >       35 </v>
  <v type="int" >      109 </v>
  <v type="int" >      156 </v>
  <v type="int" >      196 </v>
  <v type="int" >      111 </v>
  <v type="int" >      223 </v>
  <v type="int" >      103 </v>
  <v type="int" >      181 </v>
  <v type="int" >      255 </v>
  <v type="int" >      227 </v>
  <v type="int" >      187 </v>
  <v type="int" >      177 </v>
  <v type="int" >      132 </v>
  <v type="int" >        3 </v>
  <v type="int" >      163 </v>
  <v type="int" >      179 </v>
  <v type="int" >       29 </v>
  <v type="int" >      130 </v>
  <v type="int" >      287 </v>
  <v type="int" >      242 </v>
  <v type="int" >      258 </v>
  <v type="int" >       18 </v>
  <v type="int" >      284 </v>
  <v type="int" >      252 </v>
  <v type="int" >       21 </v>
  <v type="int" >      138 </v>
  <v type="int" >       20 </v>
  <v type="int" >      219 </v>
  <v type="int" >       24 </v>
  <v type="int" >      127 </v>
  <v type="int" >       59 </v>
  <v type="int" >      100 </v>
  <v type="int" >      229 </v>
  <v type="int" >       64 </v>
  <v type="int" >       75 </v>
  <v type="int" >      230 </v>
  <v type="int" >      244 </v>
  <v type="int" >      191 </v>
  <v type="int" >       45 </v>
  <v type="int" >      276 </v>
  <v type="int" >      231 </v>
  <v type="int" >       58 </v>
  <v type="int" >       36 </v>
  <v type="int" >      246 </v>
  <v type="int" >       26 </v>
  <v type="int" >      247 </v>
  <v type="int" >       88 </v>
  <v type="int" >      189 </v>
  <v type="int" >      169 </v>
  <v type="int" >      206 </v>
  <v type="int" >      159 </v>
  <v type="int" >      112 </v>
  <v type="int" >      147 </v>
  <v type="int" >      178 </v>
  <v type="int" >       28 </v>
  <v type="int" >      232 </v>
  <v type="int" >       42 </v>
  <v type="int" >      176 </v>
  <v type="int" >      260 </v>
  <v type="int" >      172 </v>
  <v type="int" >       77 </v>
  <v type="int" >       38 </v>
  <v type="int" >      185 </v>
  <v type="int" >       50 </v>
  <v type="int" >       51 </v>
  <v type="int" >      106 </v>
  <v type="int" >       91 </v>
  <v type="int" >       73 </v>
  <v type="int" >      120 </v>
  <v type="int" >       55 </v>
  <v type="int" >      154 </v>
  <v type="int" >       16 </v>
  <v type="int" >      217 </v>
  <v type="int" >      119 </v>
  <v type="int" >       41 </v>
  <v type="int" >       65 </v>
  <v type="int" >      248 </v>
  <v type="int" >      203 </v>
  <v type="int" >        8 </v>
  <v type="int" >      207 </v>
  <v type="int" >      251 </v>
  <v type="int" >      153 </v>
  <v type="int" >      282 </v>
  <v type="int" >       60 </v>
 </varray>
 <kpoints>
  <generation param="Gamma">
   <v type="int" name="divisions">       4        4        1 </v>
   <v name="usershift">      0.00000000       0.00000000       0.00000000 </v>
   <v name="genvec1">      0.25000000       0.00000000       0.00000000 </v>
   <v name="genvec2">      0.00000000       0.25000000       0.00000000 </v>
   <v name="genvec3">      0.00000000       0.00000000       1.00000000 </v>
   <v name="shift">      0.00000000       0.00000000       0.00000000 </v>
  </generation>
  <varray name="kpointlist" >
   <v>       0.00000000       0.00000000       0.00000000 </v>
   <v>       0.25000000       0.00000000       0.00000000 </v>
   <v>       0.50000000       0.00000000       0.00000000 </v>
   <v>       0.00000000       0.25000000       0.00000000 </v>
   <v>       0.25000000       0.25000000       0.00000000 </v>
   <v>       0.50000000       0.25000000       0.00000000 </v>
   <v>      -0.25000000       0.25000000       0.00000000 </v>
   <v>       0.00000000       0.50000000       0.00000000 </v>
   <v>       0.25000000       0.50000000       0.00000000 </v>
   <v>       0.50000000       0.50000000       0.00000000 </v>
  </varray>
  <varray name="weights" >
   <v>       0.06250000 </v>
   <v>       0.12500000 </v>
   <v>       0.06250000 </v>
   <v>       0.12500000 </v>
   <v>       0.12500000 </v>
   <v>       0.12500000 </v>
   <v>       0.12500000 </v>
   <v>       0.06250000 </v>
   <v>       0.12500000 </v>
   <v>       0.06250000 </v>
  </varray>
 </kpoints>
 <parameters>
  <separator name="general" >
   <i type="string" name="SYSTEM">unknown system</i>
   <i type="logical" name="LCOMPAT"> F  </i>
  </separator>
  <separator name="electronic" >
   <i type="string" name="PREC">accura</i>
   <i name="ENMAX">    500.00000000</i>
   <i name="ENAUG">    838.43500000</i>
   <i name="EDIFF">      0.00001000</i>
   <i type="int" name="IALGO">    68</i>
   <i type="int" name="IWAVPR">    11</i>
   <i type="int" name="NBANDS">  1380</i>
   <i name="NELECT">   2289.00000000</i>
   <i type="int" name="TURBO">     0</i>
   <i type="int" name="IRESTART">     0</i>
   <i type="int" name="NREBOOT">     0</i>
   <i type="int" name="NMIN">     0</i>
   <i name="EREF">      0.00000000</i>
   <separator name="electronic smearing" >
    <i type="int" name="ISMEAR">     0</i>
    <i name="SIGMA">      0.15000000</i>
    <i name="KSPACING">      0.50000000</i>
    <i type="logical" name="KGAMMA"> T  </i>
   </separator>
   <separator name="electronic projectors" >
    <i type="logical" name="LREAL"> T  </i>
    <v name="ROPT">     -0.00025000     -0.00025000</v>
    <i type="int" name="LMAXPAW">  -100</i>
    <i type="int" name="LMAXMIX">     2</i>
    <i type="logical" name="NLSPLINE"> F  </i>
   </separator>
   <separator name="electronic startup" >
    <i type="int" name="ISTART">     0</i>
    <i type="int" name="ICHARG">     2</i>
    <i type="int" name="INIWAV">     1</i>
   </separator>
   <separator name="electronic spin" >
    <i type="int" name="ISPIN">     1</i>
    <i type="logical" name="LNONCOLLINEAR"> F  </i>
    <v name="MAGMOM">      1.00000000      1.00000000      1.00000000      1.00000000      1.00000000      1.00000000      1.00000000      1.00000000      1.00000000      1.00000000      1.00000000      1.00000000      1.00000000      1.00000000      1.00000000      1.00000000      1.00000000      1.00000000      1.00000000      1.00000000
      1.00000000      1.00000000      1.00000000      1.00000000      1.00000000      1.00000000      1.00000000      1.00000000      1.00000000      1.00000000      1.00000000      1.00000000      1.00000000      1.00000000      1.00000000      1.00000000      1.00000000      1.00000000      1.00000000      1.00000000
      1.00000000      1.00000000      1.00000000      1.00000000      1.00000000      1.00000000      1.00000000      1.00000000      1.00000000      1.00000000      1.00000000      1.00000000      1.00000000      1.00000000      1.00000000      1.00000000      1.00000000      1.00000000      1.00000000      1.00000000
      1.00000000      1.00000000      1.00000000      1.00000000      1.00000000      1.00000000      1.00000000      1.00000000      1.00000000      1.00000000      1.00000000      1.00000000      1.00000000      1.00000000      1.00000000      1.00000000      1.00000000      1.00000000      1.00000000      1.00000000
      1.00000000      1.00000000      1.00000000      1.00000000      1.00000000      1.00000000      1.00000000      1.00000000      1.00000000      1.00000000      1.00000000      1.00000000      1.00000000      1.00000000      1.00000000      1.00000000      1.00000000      1.00000000      1.00000000      1.00000000
      1.00000000      1.00000000      1.00000000      1.00000000      1.00000000      1.00000000      1.00000000      1.00000000      1.00000000      1.00000000      1.00000000      1.00000000      1.00000000      1.00000000      1.00000000      1.00000000      1.00000000      1.00000000      1.00000000      1.00000000
      1.00000000      1.00000000      1.00000000      1.00000000      1.00000000      1.00000000      1.00000000      1.00000000      1.00000000      1.00000000      1.00000000      1.00000000      1.00000000      1.00000000      1.00000000      1.00000000      1.00000000      1.00000000      1.00000000      1.00000000
      1.00000000      1.00000000      1.00000000      1.00000000      1.00000000      1.00000000      1.00000000      1.00000000      1.00000000      1.00000000      1.00000000      1.00000000      1.00000000      1.00000000      1.00000000      1.00000000      1.00000000      1.00000000      1.00000000      1.00000000
      1.00000000      1.00000000      1.00000000      1.00000000      1.00000000      1.00000000      1.00000000      1.00000000      1.00000000      1.00000000      1.00000000      1.00000000      1.00000000      1.00000000      1.00000000      1.00000000      1.00000000      1.00000000      1.00000000      1.00000000
      1.00000000      1.00000000      1.00000000      1.00000000      1.00000000      1.00000000      1.00000000      1.00000000      1.00000000      1.00000000      1.00000000      1.00000000      1.00000000      1.00000000      1.00000000      1.00000000      1.00000000      1.00000000      1.00000000      1.00000000
      1.00000000      1.00000000      1.00000000      1.00000000      1.00000000      1.00000000      1.00000000      1.00000000      1.00000000      1.00000000      1.00000000      1.00000000      1.00000000      1.00000000      1.00000000      1.00000000      1.00000000      1.00000000      1.00000000      1.00000000
      1.00000000      1.00000000      1.00000000      1.00000000      1.00000000      1.00000000      1.00000000      1.00000000      1.00000000      1.00000000      1.00000000      1.00000000      1.00000000      1.00000000      1.00000000      1.00000000      1.00000000      1.00000000      1.00000000      1.00000000
      1.00000000      1.00000000      1.00000000      1.00000000      1.00000000      1.00000000      1.00000000      1.00000000      1.00000000      1.00000000      1.00000000      1.00000000      1.00000000      1.00000000      1.00000000      1.00000000      1.00000000      1.00000000      1.00000000      1.00000000
      1.00000000      1.00000000      1.00000000      1.00000000      1.00000000      1.00000000      1.00000000      1.00000000      1.00000000      1.00000000      1.00000000      1.00000000      1.00000000      1.00000000      1.00000000      1.00000000      1.00000000      1.00000000      1.00000000      1.00000000
      1.00000000      1.00000000      1.00000000      1.00000000      1.00000000      1.00000000      1.00000000      1.00000000</v>
    <i name="NUPDOWN">     -1.00000000</i>
    <i type="logical" name="LSORBIT"> F  </i>
    <v name="SAXIS">      0.00000000      0.00000000      1.00000000</v>
    <i type="logical" name="LSPIRAL"> F  </i>
    <v name="QSPIRAL">      0.00000000      0.00000000      0.00000000</v>
    <i type="logical" name="LZEROZ"> F  </i>
   </separator>
   <separator name="electronic exchange-correlation" >
    <i type="logical" name="LASPH"> F  </i>
    <i type="logical" name="LMETAGGA"> F  </i>
   </separator>
   <separator name="electronic convergence" >
    <i type="int" name="NELM">   100</i>
    <i type="int" name="NELMDL">     0</i>
    <i type="int" name="NELMIN">     4</i>
    <i name="ENINI">    500.00000000</i>
    <separator name="electronic convergence detail" >
     <i type="logical" name="LDIAG"> T  </i>
     <i type="logical" name="LSUBROT"> F  </i>
     <i name="WEIMIN">      0.00100000</i>
     <i name="EBREAK">      0.00000000</i>
     <i name="DEPER">      0.30000000</i>
     <i type="int" name="NRMM">     4</i>
     <i name="TIME">      0.40000000</i>
    </separator>
   </separator>
   <separator name="electronic mixer" >
    <i name="AMIX">      0.40000000</i>
    <i name="BMIX">      1.00000000</i>
    <i name="AMIN">      0.10000000</i>
    <i name="AMIX_MAG">      1.60000000</i>
    <i name="BMIX_MAG">      1.00000000</i>
    <separator name="electronic mixer details" >
     <i type="int" name="IMIX">     4</i>
     <i type="logical" name="MIXFIRST"> F  </i>
     <i type="int" name="MAXMIX">   -45</i>
     <i name="WC">    100.00000000</i>
     <i type="int" name="INIMIX">     1</i>
     <i type="int" name="MIXPRE">     1</i>
     <i type="int" name="MREMOVE">     5</i>
    </separator>
   </separator>
   <separator name="electronic dipolcorrection" >
    <i type="logical" name="LDIPOL"> F  </i>
    <i type="logical" name="LMONO"> F  </i>
    <i type="int" name="IDIPOL">     0</i>
    <i name="EPSILON">      1.00000000</i>
    <v name="DIPOL">   -100.00000000   -100.00000000   -100.00000000</v>
    <i name="EFIELD">      0.00000000</i>
   </separator>
  </separator>
  <separator name="grids" >
   <i type="int" name="NGX">    72</i>
   <i type="int" name="NGY">    64</i>
   <i type="int" name="NGZ">   336</i>
   <i type="int" name="NGXF">   144</i>
   <i type="int" name="NGYF">   128</i>
   <i type="int" name="NGZF">   672</i>
   <i type="logical" name="ADDGRID"> F  </i>
  </separator>
  <separator name="ionic" >
   <i type="int" name="NSW">   500</i>
   <i type="int" name="IBRION">     2</i>
   <i type="int" name="MDALGO">     0</i>
   <i type="int" name="ISIF">     2</i>
   <i name="PSTRESS">      0.00000000</i>
   <i name="EDIFFG">      0.00010000</i>
   <i type="int" name="NFREE">     1</i>
   <i name="POTIM">      0.25000000</i>
   <i name="SMASS">     -3.00000000</i>
   <i name="SCALEE">      1.00000000</i>
  </separator>
  <separator name="ionic md" >
   <i name="TEBEG">      0.00010000</i>
   <i name="TEEND">      0.00010000</i>
   <i type="int" name="NBLOCK">     1</i>
   <i type="int" name="KBLOCK">   500</i>
   <i type="int" name="NPACO">   256</i>
   <i name="APACO">     16.00000000</i>
  </separator>
  <separator name="symmetry" >
   <i type="int" name="ISYM">     2</i>
   <i name="SYMPREC">      0.00001000</i>
  </separator>
  <separator name="dos" >
   <i type="int" name="LORBIT">     0</i>
   <v name="RWIGS">     -1.00000000     -1.00000000</v>
   <i type="int" name="NEDOS">   301</i>
   <i name="EMIN">     10.00000000</i>
   <i name="EMAX">    -10.00000000</i>
   <i name="EFERMI">      0.00000000</i>
  </separator>
  <separator name="writing" >
   <i type="int" name="NWRITE">     2</i>
   <i type="logical" name="LWAVE"> F  </i>
   <i type="logical" name="LDOWNSAMPLE"> F  </i>
   <i type="logical" name="LCHARG"> F  </i>
   <i type="logical" name="LPARD"> F  </i>
   <i type="logical" name="LVTOT"> F  </i>
   <i type="logical" name="LVHAR"> F  </i>
   <i type="logical" name="LELF"> F  </i>
   <i type="logical" name="LOPTICS"> F  </i>
   <v name="STM">      0.00000000      0.00000000      0.00000000      0.00000000      0.00000000      0.00000000      0.00000000</v>
  </separator>
  <separator name="performance" >
   <i type="int" name="NPAR">    10</i>
   <i type="int" name="NSIM">     4</i>
   <i type="int" name="NBLK">    -1</i>
   <i type="logical" name="LPLANE"> T  </i>
   <i type="logical" name="LSCALAPACK"> F  </i>
   <i type="logical" name="LSCAAWARE"> F  </i>
   <i type="logical" name="LSCALU"> F  </i>
   <i type="logical" name="LASYNC"> F  </i>
   <i type="logical" name="LORBITALREAL"> F  </i>
  </separator>
  <separator name="miscellaneous" >
   <i type="int" name="IDIOT">     3</i>
   <i type="int" name="ISPECIAL">     0</i>
   <i type="logical" name="LMUSIC"> F  </i>
   <v name="POMASS">     55.84700000     54.93800000</v>
   <v name="DARWINR">      0.00000000      0.00000000</v>
   <v name="DARWINV">      1.00000000      1.00000000</v>
   <i type="logical" name="LCORR"> T  </i>
  </separator>
  <i type="logical" name="GGA_COMPAT"> T  </i>
  <i type="logical" name="LBERRY"> F  </i>
  <i type="int" name="ICORELEVEL">     0</i>
  <i type="logical" name="LDAU"> F  </i>
  <i type="int" name="I_CONSTRAINED_M">     0</i>
  <separator name="electronic exchange-correlation" >
   <i type="string" name="GGA">--</i>
   <i type="int" name="VOSKOWN">     0</i>
   <i type="logical" name="LHFCALC"> F  </i>
   <i type="string" name="PRECFOCK"></i>
   <i type="logical" name="LSYMGRAD"> F  </i>
   <i type="logical" name="LHFONE"> F  </i>
   <i type="logical" name="LRHFCALC"> F  </i>
   <i type="logical" name="LTHOMAS"> F  </i>
   <i type="logical" name="LMODELHF"> F  </i>
   <i name="ENCUT4O">     -1.00000000</i>
   <i type="int" name="EXXOEP">     0</i>
   <i type="int" name="FOURORBIT">     0</i>
   <i name="AEXX">      0.00000000</i>
   <i name="HFALPHA">      0.00000000</i>
   <i name="MCALPHA">      0.00000000</i>
   <i name="ALDAX">      1.00000000</i>
   <i name="AGGAX">      1.00000000</i>
   <i name="ALDAC">      1.00000000</i>
   <i name="AGGAC">      1.00000000</i>
   <i type="int" name="NKREDX">     1</i>
   <i type="int" name="NKREDY">     1</i>
   <i type="int" name="NKREDZ">     1</i>
   <i type="logical" name="SHIFTRED"> F  </i>
   <i type="logical" name="ODDONLY"> F  </i>
   <i type="logical" name="EVENONLY"> F  </i>
   <i type="int" name="LMAXFOCK">     0</i>
   <i type="int" name="NMAXFOCKAE">     0</i>
   <i type="logical" name="LFOCKAEDFT"> F  </i>
   <i name="HFSCREEN">      0.00000000</i>
   <i name="HFSCREENC">      0.00000000</i>
   <i type="int" name="NBANDSGWLOW">     0</i>
  </separator>
  <separator name="vdW DFT" >
   <i type="logical" name="LUSE_VDW"> F  </i>
   <i name="Zab_VDW">     -0.84910000</i>
   <i name="PARAM1">      0.12340000</i>
   <i name="PARAM2">      1.00000000</i>
   <i name="PARAM3">      0.00000000</i>
  </separator>
  <separator name="model GW" >
   <i type="int" name="MODEL_GW">     0</i>
   <i name="MODEL_EPS0">      7.68123361</i>
   <i name="MODEL_ALPHA">      1.00000000</i>
  </separator>
  <separator name="linear response parameters" >
   <i type="logical" name="LEPSILON"> F  </i>
   <i type="logical" name="LRPA"> F  </i>
   <i type="logical" name="LNABLA"> F  </i>
   <i type="logical" name="LVEL"> F  </i>
   <i type="int" name="KINTER">     0</i>
   <i name="CSHIFT">      0.10000000</i>
   <i name="OMEGAMAX">     -1.00000000</i>
   <i name="DEG_THRESHOLD">      0.00200000</i>
   <i name="RTIME">     -0.10000000</i>
   <i name="WPLASMAI">      0.00000000</i>
   <v name="DFIELD">      0.00000000      0.00000000      0.00000000</v>
   <v name="WPLASMA">      0.00000000      0.00000000      0.00000000      0.00000000      0.00000000      0.00000000      0.00000000      0.00000000      0.00000000</v>
  </separator>
  <separator name="orbital magnetization" >
   <i type="logical" name="NUCIND"> F  </i>
   <v name="MAGPOS">      0.00000000      0.00000000      0.00000000</v>
   <i type="logical" name="LNICSALL"> T  </i>
   <i type="logical" name="ORBITALMAG"> F  </i>
   <i type="logical" name="LMAGBLOCH"> F  </i>
   <i type="logical" name="LCHIMAG"> F  </i>
   <i type="logical" name="LGAUGE"> T  </i>
   <i type="int" name="MAGATOM">     0</i>
   <v name="MAGDIPOL">      0.00000000      0.00000000      0.00000000</v>
   <v name="AVECCONST">      0.00000000      0.00000000      0.00000000</v>
  </separator>
  <separator name="response functions" >
   <i type="logical" name="LADDER"> F  </i>
   <i type="logical" name="LRPAFORCE"> F  </i>
   <i type="logical" name="LFXC"> F  </i>
   <i type="logical" name="LHARTREE"> T  </i>
   <i type="int" name="IBSE">     0</i>
   <v type="int" name="KPOINT">    -1     0     0     0</v>
   <i type="logical" name="LTCTE"> F  </i>
   <i type="logical" name="LTETE"> F  </i>
   <i type="logical" name="LTRIPLET"> F  </i>
   <i type="logical" name="LFXCEPS"> F  </i>
   <i type="logical" name="LFXHEG"> F  </i>
   <i type="int" name="NATURALO">     2</i>
   <i type="logical" name="L2ORDER"> F  </i>
   <i type="logical" name="LMP2LT"> F  </i>
   <i type="logical" name="LUSEW"> F  </i>
   <i name="ENCUTGW">     -2.00000000</i>
   <i name="ENCUTGWSOFT">     -2.00000000</i>
   <i name="ENCUTLF">     -1.00000000</i>
   <i type="int" name="LMAXMP2">    -1</i>
   <i name="SCISSOR">      0.00000000</i>
   <i type="int" name="NOMEGA">     0</i>
   <i type="int" name="NOMEGAR">     0</i>
   <i type="int" name="NBANDSGW">    -1</i>
   <i type="int" name="NBANDSO">    -1</i>
   <i type="int" name="NBANDSV">    -1</i>
   <i type="int" name="NELM">   100</i>
   <i type="int" name="NELMHF">     1</i>
   <i type="int" name="DIM">     3</i>
   <i type="int" name="ANTIRES">     0</i>
   <i name="OMEGAMAX">    -30.00000000</i>
   <i name="OMEGAMIN">    -30.00000000</i>
   <i name="OMEGATL">   -200.00000000</i>
   <i type="int" name="OMEGAGRID">   140</i>
   <i name="CSHIFT">     -0.10000000</i>
   <i type="logical" name="SELFENERGY"> F  </i>
   <i type="logical" name="LSPECTRAL"> F  </i>
   <i type="logical" name="LSPECTRALGW"> F  </i>
   <i type="logical" name="LSINGLES"> F  </i>
   <i type="logical" name="LFERMIGW"> F  </i>
   <i type="logical" name="ODDONLYGW"> F  </i>
   <i type="logical" name="EVENONLYGW"> F  </i>
   <i type="int" name="NKREDLFX">     1</i>
   <i type="int" name="NKREDLFY">     1</i>
   <i type="int" name="NKREDLFZ">     1</i>
   <i type="int" name="MAXMEM">  2800</i>
   <i type="int" name="TELESCOPE">     0</i>
   <i type="int" name="TAUPAR">     1</i>
   <i type="int" name="OMEGAPAR">    -1</i>
   <i name="LAMBDA">      1.00000000</i>
  </separator>
  <separator name="External order field" >
   <i name="OFIELD_KAPPA">      0.00000000</i>
   <v name="OFIELD_K">      0.00000000      0.00000000      0.00000000</v>
   <i name="OFIELD_Q6_NEAR">      0.00000000</i>
   <i name="OFIELD_Q6_FAR">      0.00000000</i>
   <i name="OFIELD_A">      0.00000000</i>
  </separator>
 </parameters>
 <atominfo>
  <atoms>     288 </atoms>
  <types>       2 </types>
  <array name="atoms" >
   <dimension dim="1">ion</dimension>
   <field type="string">element</field>
   <field type="int">atomtype</field>
   <set>
    <rc><c>Fe</c><c>   1</c></rc>
    <rc><c>Fe</c><c>   1</c></rc>
    <rc><c>Fe</c><c>   1</c></rc>
    <rc><c>Fe</c><c>   1</c></rc>
    <rc><c>Fe</c><c>   1</c></rc>
    <rc><c>Fe</c><c>   1</c></rc>
    <rc><c>Fe</c><c>   1</c></rc>
    <rc><c>Fe</c><c>   1</c></rc>
    <rc><c>Fe</c><c>   1</c></rc>
    <rc><c>Fe</c><c>   1</c></rc>
    <rc><c>Fe</c><c>   1</c></rc>
    <rc><c>Fe</c><c>   1</c></rc>
    <rc><c>Fe</c><c>   1</c></rc>
    <rc><c>Fe</c><c>   1</c></rc>
    <rc><c>Fe</c><c>   1</c></rc>
    <rc><c>Fe</c><c>   1</c></rc>
    <rc><c>Fe</c><c>   1</c></rc>
    <rc><c>Fe</c><c>   1</c></rc>
    <rc><c>Fe</c><c>   1</c></rc>
    <rc><c>Fe</c><c>   1</c></rc>
    <rc><c>Fe</c><c>   1</c></rc>
    <rc><c>Fe</c><c>   1</c></rc>
    <rc><c>Fe</c><c>   1</c></rc>
    <rc><c>Fe</c><c>   1</c></rc>
    <rc><c>Fe</c><c>   1</c></rc>
    <rc><c>Fe</c><c>   1</c></rc>
    <rc><c>Fe</c><c>   1</c></rc>
    <rc><c>Fe</c><c>   1</c></rc>
    <rc><c>Fe</c><c>   1</c></rc>
    <rc><c>Fe</c><c>   1</c></rc>
    <rc><c>Fe</c><c>   1</c></rc>
    <rc><c>Fe</c><c>   1</c></rc>
    <rc><c>Fe</c><c>   1</c></rc>
    <rc><c>Fe</c><c>   1</c></rc>
    <rc><c>Fe</c><c>   1</c></rc>
    <rc><c>Fe</c><c>   1</c></rc>
    <rc><c>Fe</c><c>   1</c></rc>
    <rc><c>Fe</c><c>   1</c></rc>
    <rc><c>Fe</c><c>   1</c></rc>
    <rc><c>Fe</c><c>   1</c></rc>
    <rc><c>Fe</c><c>   1</c></rc>
    <rc><c>Fe</c><c>   1</c></rc>
    <rc><c>Fe</c><c>   1</c></rc>
    <rc><c>Fe</c><c>   1</c></rc>
    <rc><c>Fe</c><c>   1</c></rc>
    <rc><c>Fe</c><c>   1</c></rc>
    <rc><c>Fe</c><c>   1</c></rc>
    <rc><c>Fe</c><c>   1</c></rc>
    <rc><c>Fe</c><c>   1</c></rc>
    <rc><c>Fe</c><c>   1</c></rc>
    <rc><c>Fe</c><c>   1</c></rc>
    <rc><c>Fe</c><c>   1</c></rc>
    <rc><c>Fe</c><c>   1</c></rc>
    <rc><c>Fe</c><c>   1</c></rc>
    <rc><c>Fe</c><c>   1</c></rc>
    <rc><c>Fe</c><c>   1</c></rc>
    <rc><c>Fe</c><c>   1</c></rc>
    <rc><c>Fe</c><c>   1</c></rc>
    <rc><c>Fe</c><c>   1</c></rc>
    <rc><c>Fe</c><c>   1</c></rc>
    <rc><c>Fe</c><c>   1</c></rc>
    <rc><c>Fe</c><c>   1</c></rc>
    <rc><c>Fe</c><c>   1</c></rc>
    <rc><c>Fe</c><c>   1</c></rc>
    <rc><c>Fe</c><c>   1</c></rc>
    <rc><c>Fe</c><c>   1</c></rc>
    <rc><c>Fe</c><c>   1</c></rc>
    <rc><c>Fe</c><c>   1</c></rc>
    <rc><c>Fe</c><c>   1</c></rc>
    <rc><c>Fe</c><c>   1</c></rc>
    <rc><c>Fe</c><c>   1</c></rc>
    <rc><c>Fe</c><c>   1</c></rc>
    <rc><c>Fe</c><c>   1</c></rc>
    <rc><c>Fe</c><c>   1</c></rc>
    <rc><c>Fe</c><c>   1</c></rc>
    <rc><c>Fe</c><c>   1</c></rc>
    <rc><c>Fe</c><c>   1</c></rc>
    <rc><c>Fe</c><c>   1</c></rc>
    <rc><c>Fe</c><c>   1</c></rc>
    <rc><c>Fe</c><c>   1</c></rc>
    <rc><c>Fe</c><c>   1</c></rc>
    <rc><c>Fe</c><c>   1</c></rc>
    <rc><c>Fe</c><c>   1</c></rc>
    <rc><c>Fe</c><c>   1</c></rc>
    <rc><c>Fe</c><c>   1</c></rc>
    <rc><c>Fe</c><c>   1</c></rc>
    <rc><c>Fe</c><c>   1</c></rc>
    <rc><c>Fe</c><c>   1</c></rc>
    <rc><c>Fe</c><c>   1</c></rc>
    <rc><c>Fe</c><c>   1</c></rc>
    <rc><c>Fe</c><c>   1</c></rc>
    <rc><c>Fe</c><c>   1</c></rc>
    <rc><c>Fe</c><c>   1</c></rc>
    <rc><c>Fe</c><c>   1</c></rc>
    <rc><c>Fe</c><c>   1</c></rc>
    <rc><c>Fe</c><c>   1</c></rc>
    <rc><c>Fe</c><c>   1</c></rc>
    <rc><c>Fe</c><c>   1</c></rc>
    <rc><c>Fe</c><c>   1</c></rc>
    <rc><c>Fe</c><c>   1</c></rc>
    <rc><c>Fe</c><c>   1</c></rc>
    <rc><c>Fe</c><c>   1</c></rc>
    <rc><c>Fe</c><c>   1</c></rc>
    <rc><c>Fe</c><c>   1</c></rc>
    <rc><c>Fe</c><c>   1</c></rc>
    <rc><c>Fe</c><c>   1</c></rc>
    <rc><c>Fe</c><c>   1</c></rc>
    <rc><c>Fe</c><c>   1</c></rc>
    <rc><c>Fe</c><c>   1</c></rc>
    <rc><c>Fe</c><c>   1</c></rc>
    <rc><c>Fe</c><c>   1</c></rc>
    <rc><c>Fe</c><c>   1</c></rc>
    <rc><c>Fe</c><c>   1</c></rc>
    <rc><c>Fe</c><c>   1</c></rc>
    <rc><c>Fe</c><c>   1</c></rc>
    <rc><c>Fe</c><c>   1</c></rc>
    <rc><c>Fe</c><c>   1</c></rc>
    <rc><c>Fe</c><c>   1</c></rc>
    <rc><c>Fe</c><c>   1</c></rc>
    <rc><c>Fe</c><c>   1</c></rc>
    <rc><c>Fe</c><c>   1</c></rc>
    <rc><c>Fe</c><c>   1</c></rc>
    <rc><c>Fe</c><c>   1</c></rc>
    <rc><c>Fe</c><c>   1</c></rc>
    <rc><c>Fe</c><c>   1</c></rc>
    <rc><c>Fe</c><c>   1</c></rc>
    <rc><c>Fe</c><c>   1</c></rc>
    <rc><c>Fe</c><c>   1</c></rc>
    <rc><c>Fe</c><c>   1</c></rc>
    <rc><c>Fe</c><c>   1</c></rc>
    <rc><c>Fe</c><c>   1</c></rc>
    <rc><c>Fe</c><c>   1</c></rc>
    <rc><c>Fe</c><c>   1</c></rc>
    <rc><c>Fe</c><c>   1</c></rc>
    <rc><c>Fe</c><c>   1</c></rc>
    <rc><c>Fe</c><c>   1</c></rc>
    <rc><c>Fe</c><c>   1</c></rc>
    <rc><c>Fe</c><c>   1</c></rc>
    <rc><c>Fe</c><c>   1</c></rc>
    <rc><c>Fe</c><c>   1</c></rc>
    <rc><c>Fe</c><c>   1</c></rc>
    <rc><c>Fe</c><c>   1</c></rc>
    <rc><c>Fe</c><c>   1</c></rc>
    <rc><c>Fe</c><c>   1</c></rc>
    <rc><c>Fe</c><c>   1</c></rc>
    <rc><c>Fe</c><c>   1</c></rc>
    <rc><c>Fe</c><c>   1</c></rc>
    <rc><c>Fe</c><c>   1</c></rc>
    <rc><c>Fe</c><c>   1</c></rc>
    <rc><c>Fe</c><c>   1</c></rc>
    <rc><c>Fe</c><c>   1</c></rc>
    <rc><c>Fe</c><c>   1</c></rc>
    <rc><c>Fe</c><c>   1</c></rc>
    <rc><c>Fe</c><c>   1</c></rc>
    <rc><c>Fe</c><c>   1</c></rc>
    <rc><c>Fe</c><c>   1</c></rc>
    <rc><c>Fe</c><c>   1</c></rc>
    <rc><c>Fe</c><c>   1</c></rc>
    <rc><c>Fe</c><c>   1</c></rc>
    <rc><c>Fe</c><c>   1</c></rc>
    <rc><c>Fe</c><c>   1</c></rc>
    <rc><c>Fe</c><c>   1</c></rc>
    <rc><c>Fe</c><c>   1</c></rc>
    <rc><c>Fe</c><c>   1</c></rc>
    <rc><c>Fe</c><c>   1</c></rc>
    <rc><c>Fe</c><c>   1</c></rc>
    <rc><c>Fe</c><c>   1</c></rc>
    <rc><c>Fe</c><c>   1</c></rc>
    <rc><c>Fe</c><c>   1</c></rc>
    <rc><c>Fe</c><c>   1</c></rc>
    <rc><c>Fe</c><c>   1</c></rc>
    <rc><c>Fe</c><c>   1</c></rc>
    <rc><c>Fe</c><c>   1</c></rc>
    <rc><c>Fe</c><c>   1</c></rc>
    <rc><c>Fe</c><c>   1</c></rc>
    <rc><c>Fe</c><c>   1</c></rc>
    <rc><c>Fe</c><c>   1</c></rc>
    <rc><c>Fe</c><c>   1</c></rc>
    <rc><c>Fe</c><c>   1</c></rc>
    <rc><c>Fe</c><c>   1</c></rc>
    <rc><c>Fe</c><c>   1</c></rc>
    <rc><c>Fe</c><c>   1</c></rc>
    <rc><c>Fe</c><c>   1</c></rc>
    <rc><c>Fe</c><c>   1</c></rc>
    <rc><c>Fe</c><c>   1</c></rc>
    <rc><c>Fe</c><c>   1</c></rc>
    <rc><c>Fe</c><c>   1</c></rc>
    <rc><c>Fe</c><c>   1</c></rc>
    <rc><c>Fe</c><c>   1</c></rc>
    <rc><c>Fe</c><c>   1</c></rc>
    <rc><c>Fe</c><c>   1</c></rc>
    <rc><c>Fe</c><c>   1</c></rc>
    <rc><c>Fe</c><c>   1</c></rc>
    <rc><c>Fe</c><c>   1</c></rc>
    <rc><c>Fe</c><c>   1</c></rc>
    <rc><c>Fe</c><c>   1</c></rc>
    <rc><c>Fe</c><c>   1</c></rc>
    <rc><c>Fe</c><c>   1</c></rc>
    <rc><c>Fe</c><c>   1</c></rc>
    <rc><c>Fe</c><c>   1</c></rc>
    <rc><c>Fe</c><c>   1</c></rc>
    <rc><c>Fe</c><c>   1</c></rc>
    <rc><c>Fe</c><c>   1</c></rc>
    <rc><c>Fe</c><c>   1</c></rc>
    <rc><c>Fe</c><c>   1</c></rc>
    <rc><c>Fe</c><c>   1</c></rc>
    <rc><c>Fe</c><c>   1</c></rc>
    <rc><c>Fe</c><c>   1</c></rc>
    <rc><c>Fe</c><c>   1</c></rc>
    <rc><c>Fe</c><c>   1</c></rc>
    <rc><c>Fe</c><c>   1</c></rc>
    <rc><c>Fe</c><c>   1</c></rc>
    <rc><c>Fe</c><c>   1</c></rc>
    <rc><c>Fe</c><c>   1</c></rc>
    <rc><c>Fe</c><c>   1</c></rc>
    <rc><c>Fe</c><c>   1</c></rc>
    <rc><c>Fe</c><c>   1</c></rc>
    <rc><c>Fe</c><c>   1</c></rc>
    <rc><c>Fe</c><c>   1</c></rc>
    <rc><c>Fe</c><c>   1</c></rc>
    <rc><c>Fe</c><c>   1</c></rc>
    <rc><c>Fe</c><c>   1</c></rc>
    <rc><c>Fe</c><c>   1</c></rc>
    <rc><c>Fe</c><c>   1</c></rc>
    <rc><c>Fe</c><c>   1</c></rc>
    <rc><c>Fe</c><c>   1</c></rc>
    <rc><c>Fe</c><c>   1</c></rc>
    <rc><c>Fe</c><c>   1</c></rc>
    <rc><c>Fe</c><c>   1</c></rc>
    <rc><c>Fe</c><c>   1</c></rc>
    <rc><c>Fe</c><c>   1</c></rc>
    <rc><c>Fe</c><c>   1</c></rc>
    <rc><c>Fe</c><c>   1</c></rc>
    <rc><c>Fe</c><c>   1</c></rc>
    <rc><c>Fe</c><c>   1</c></rc>
    <rc><c>Fe</c><c>   1</c></rc>
    <rc><c>Fe</c><c>   1</c></rc>
    <rc><c>Fe</c><c>   1</c></rc>
    <rc><c>Fe</c><c>   1</c></rc>
    <rc><c>Fe</c><c>   1</c></rc>
    <rc><c>Fe</c><c>   1</c></rc>
    <rc><c>Fe</c><c>   1</c></rc>
    <rc><c>Fe</c><c>   1</c></rc>
    <rc><c>Fe</c><c>   1</c></rc>
    <rc><c>Fe</c><c>   1</c></rc>
    <rc><c>Fe</c><c>   1</c></rc>
    <rc><c>Fe</c><c>   1</c></rc>
    <rc><c>Fe</c><c>   1</c></rc>
    <rc><c>Fe</c><c>   1</c></rc>
    <rc><c>Fe</c><c>   1</c></rc>
    <rc><c>Fe</c><c>   1</c></rc>
    <rc><c>Fe</c><c>   1</c></rc>
    <rc><c>Fe</c><c>   1</c></rc>
    <rc><c>Fe</c><c>   1</c></rc>
    <rc><c>Fe</c><c>   1</c></rc>
    <rc><c>Fe</c><c>   1</c></rc>
    <rc><c>Fe</c><c>   1</c></rc>
    <rc><c>Fe</c><c>   1</c></rc>
    <rc><c>Fe</c><c>   1</c></rc>
    <rc><c>Fe</c><c>   1</c></rc>
    <rc><c>Fe</c><c>   1</c></rc>
    <rc><c>Fe</c><c>   1</c></rc>
    <rc><c>Fe</c><c>   1</c></rc>
    <rc><c>Fe</c><c>   1</c></rc>
    <rc><c>Fe</c><c>   1</c></rc>
    <rc><c>Fe</c><c>   1</c></rc>
    <rc><c>Fe</c><c>   1</c></rc>
    <rc><c>Fe</c><c>   1</c></rc>
    <rc><c>Fe</c><c>   1</c></rc>
    <rc><c>Fe</c><c>   1</c></rc>
    <rc><c>Fe</c><c>   1</c></rc>
    <rc><c>Fe</c><c>   1</c></rc>
    <rc><c>Fe</c><c>   1</c></rc>
    <rc><c>Mn</c><c>   2</c></rc>
    <rc><c>Mn</c><c>   2</c></rc>
    <rc><c>Mn</c><c>   2</c></rc>
    <rc><c>Mn</c><c>   2</c></rc>
    <rc><c>Mn</c><c>   2</c></rc>
    <rc><c>Mn</c><c>   2</c></rc>
    <rc><c>Mn</c><c>   2</c></rc>
    <rc><c>Mn</c><c>   2</c></rc>
    <rc><c>Mn</c><c>   2</c></rc>
    <rc><c>Mn</c><c>   2</c></rc>
    <rc><c>Mn</c><c>   2</c></rc>
    <rc><c>Mn</c><c>   2</c></rc>
    <rc><c>Mn</c><c>   2</c></rc>
    <rc><c>Mn</c><c>   2</c></rc>
    <rc><c>Mn</c><c>   2</c></rc>
   </set>
  </array>
  <array name="atomtypes" >
   <dimension dim="1">type</dimension>
   <field type="int">atomspertype</field>
   <field type="string">element</field>
   <field>mass</field>
   <field>valence</field>
   <field type="string">pseudopotential</field>
   <set>
    <rc><c> 273</c><c>Fe</c><c>     55.84700000</c><c>      8.00000000</c><c>  PAW_PBE Fe_GW 31Mar2010               </c></rc>
    <rc><c>  15</c><c>Mn</c><c>     54.93800000</c><c>      7.00000000</c><c>  PAW_PBE Mn_GW 31Mar2010               </c></rc>
   </set>
  </array>
 </atominfo>
 <structure name="initialpos" >
  <crystal>
   <varray name="basis" >
    <v>       9.72667800       0.00000000       0.00000000 </v>
    <v>       0.00000000       8.42355000       0.00000000 </v>
    <v>       0.00000000       0.00000000      45.00000000 </v>
   </varray>
   <i name="volume">   3686.99213101 </i>
   <varray name="rec_basis" >
    <v>       0.10281002       0.00000000       0.00000000 </v>
    <v>       0.00000000       0.11871479       0.00000000 </v>
    <v>       0.00000000       0.00000000       0.02222222 </v>
   </varray>
  </crystal>
  <varray name="positions" >
   <v>       0.43725279       0.95144441       0.21359592 </v>
   <v>       0.18754661       0.62054888       0.43479653 </v>
   <v>       0.68722200       0.29115118       0.60980956 </v>
   <v>       0.18728856       0.28485015       0.12664693 </v>
   <v>       0.68759211       0.45128066       0.21351836 </v>
   <v>       0.31254638       0.37283085       0.52133151 </v>
   <v>       0.56251064       0.20135607       0.21347074 </v>
   <v>       0.06251483       0.20896783       0.69817083 </v>
   <v>       0.93737966       0.61788906       0.16890076 </v>
   <v>       0.43729171       0.95293090       0.34631956 </v>
   <v>       0.43743328       0.62049457       0.43485282 </v>
   <v>       0.68736516       0.12066546       0.43511542 </v>
   <v>       0.81263408       0.37127974       0.43477731 </v>
   <v>       0.81268385       0.20099413       0.21347769 </v>
   <v>       0.56251489       0.53493638       0.25780736 </v>
   <v>       0.18784827       0.95932002       0.69822346 </v>
   <v>       0.68742307       0.78482642       0.25767607 </v>
   <v>       0.43789434       0.12642965       0.78642252 </v>
   <v>       0.68771489       0.11894137       0.30179789 </v>
   <v>       0.18752688       0.62649513       0.78643257 </v>
   <v>       0.68727995       0.12710504       0.78654428 </v>
   <v>       0.31261703       0.54237929       0.87335507 </v>
   <v>       0.43698844       0.46033378       0.83111989 </v>
   <v>       0.06221144       0.87674214       0.78642560 </v>
   <v>       0.68721133       0.45736564       0.56519512 </v>
   <v>       0.06277027       0.87495250       0.65370604 </v>
   <v>       0.81208471       0.53474721       0.25772071 </v>
   <v>       0.31246649       0.04336520       0.74226219 </v>
   <v>       0.81248489       0.54133920       0.60976227 </v>
   <v>       0.93761959       0.95670884       0.56514797 </v>
   <v>       0.18762347       0.95102939       0.21355434 </v>
   <v>       0.18728488       0.12263662       0.52134278 </v>
   <v>       0.31246550       0.70485694       0.47864157 </v>
   <v>       0.31198370       0.53678634       0.39027513 </v>
   <v>       0.68824293       0.46094346       0.83127451 </v>
   <v>       0.68743866       0.62563061       0.65366364 </v>
   <v>       0.81287243       0.36882858       0.30185066 </v>
   <v>       0.06260437       0.04280472       0.74233902 </v>
   <v>       0.18754810       0.62260901       0.52130828 </v>
   <v>       0.43745274       0.78666422       0.39021458 </v>
   <v>       0.93748367       0.29304735       0.74224052 </v>
   <v>       0.18734676       0.79336013       0.74227883 </v>
   <v>       0.31165176       0.86882473       0.30170898 </v>
   <v>       0.31214757       0.03694454       0.39028901 </v>
   <v>       0.43727211       0.62502414       0.65366396 </v>
   <v>       0.06256885       0.87083495       0.43485015 </v>
   <v>       0.56178105       0.20553889       0.47867726 </v>
   <v>       0.06267642       0.70514258       0.47860131 </v>
   <v>       0.18745722       0.28717301       0.39024251 </v>
   <v>       0.68759516       0.29291257       0.74229739 </v>
   <v>       0.81251748       0.54262040       0.74232558 </v>
   <v>       0.93748264       0.45290774       0.34627494 </v>
   <v>       0.18744756       0.28474802       0.25774957 </v>
   <v>       0.31246211       0.87087280       0.43490439 </v>
   <v>       0.31242165       0.70899123       0.69809464 </v>
   <v>       0.31265300       0.70119457       0.21351826 </v>
   <v>       0.81242758       0.70693004       0.56502857 </v>
   <v>       0.93753407       0.62629386       0.78645964 </v>
   <v>       0.31259771       0.37688133       0.78630651 </v>
   <v>       0.93750682       0.45879378       0.69821814 </v>
   <v>       0.31245296       0.20492300       0.47872812 </v>
   <v>       0.56221945       0.87073268       0.43476220 </v>
   <v>       0.06241279       0.53705965       0.39012789 </v>
   <v>       0.31265233       0.87466276       0.65372201 </v>
   <v>       0.43740472       0.45942908       0.69815686 </v>
   <v>       0.06260391       0.03691166       0.39015128 </v>
   <v>       0.68768484       0.11733235       0.16880197 </v>
   <v>       0.56251196       0.70115788       0.21348035 </v>
   <v>       0.43726889       0.61894803       0.30186114 </v>
   <v>       0.81249293       0.70504902       0.47862300 </v>
   <v>       0.93876314       0.79289868       0.87332271 </v>
   <v>       0.31239419       0.37072356       0.43491609 </v>
   <v>       0.43762941       0.95938467       0.69813304 </v>
   <v>       0.93775465       0.62254309       0.52130812 </v>
   <v>       0.43708957       0.12522897       0.65375447 </v>
   <v>       0.43722503       0.11887578       0.30183664 </v>
   <v>       0.81248190       0.04268991       0.74240098 </v>
   <v>       0.68676063       0.79307235       0.87354191 </v>
   <v>       0.06246919       0.36843862       0.16884650 </v>
   <v>       0.68749294       0.45308444       0.34628742 </v>
   <v>       0.93784456       0.12056493       0.43471485 </v>
   <v>       0.56242471       0.20970875       0.83110148 </v>
   <v>       0.81305157       0.21038883       0.83137981 </v>
   <v>       0.43743977       0.28645846       0.39021655 </v>
   <v>       0.06246461       0.70126975       0.21356500 </v>
   <v>       0.18729812       0.45499891       0.47860049 </v>
   <v>       0.18736862       0.11832736       0.16891630 </v>
   <v>       0.56253620       0.37524779       0.65376208 </v>
   <v>       0.81232462       0.70116364       0.21351069 </v>
   <v>       0.06229346       0.20715341       0.56519545 </v>
   <v>       0.93750860       0.79271809       0.74227711 </v>
   <v>       0.68770219       0.61894340       0.30185273 </v>
   <v>       0.18741853       0.12060480       0.43485170 </v>
   <v>       0.06278030       0.20932956       0.83111992 </v>
   <v>       0.18753215       0.45701271       0.56512103 </v>
   <v>       0.18742175       0.95482029       0.47861588 </v>
   <v>       0.31262759       0.86813257       0.16871654 </v>
   <v>       0.43739131       0.45312657       0.34629904 </v>
   <v>       0.68743482       0.62242828       0.52131522 </v>
   <v>       0.56224651       0.37647572       0.78628740 </v>
   <v>       0.43722414       0.62250763       0.52132626 </v>
   <v>       0.31208720       0.36885992       0.30186217 </v>
   <v>       0.18795932       0.79104079       0.60968410 </v>
   <v>       0.56250623       0.53636482       0.39027761 </v>
   <v>       0.31230426       0.20102356       0.21348727 </v>
   <v>       0.06239834       0.54308031       0.74224677 </v>
   <v>       0.18752795       0.78662436       0.39019278 </v>
   <v>       0.93740869       0.78685373       0.39018911 </v>
   <v>       0.18802136       0.45933788       0.83108389 </v>
   <v>       0.31289647       0.53472046       0.25772050 </v>
   <v>       0.56256653       0.04154273       0.60977184 </v>
   <v>       0.93797006       0.62549388       0.65378166 </v>
   <v>       0.06162933       0.70957240       0.83126998 </v>
   <v>       0.56252794       0.03490015       0.25778255 </v>
   <v>       0.31246155       0.04407218       0.87352377 </v>
   <v>       0.18765940       0.96047570       0.83122606 </v>
   <v>       0.93756811       0.28479210       0.25774713 </v>
   <v>       0.68727147       0.78533849       0.12652463 </v>
   <v>       0.56258371       0.20924893       0.69821134 </v>
   <v>       0.56284310       0.70868210       0.69802568 </v>
   <v>       0.18759546       0.61790142       0.16889702 </v>
   <v>       0.81293436       0.53719396       0.39020635 </v>
   <v>       0.43732240       0.11733607       0.16879484 </v>
   <v>       0.31236779       0.53405909       0.12669118 </v>
   <v>       0.18753514       0.61857909       0.30184520 </v>
   <v>       0.43695303       0.29237312       0.87341387 </v>
   <v>       0.81248428       0.87728076       0.78634950 </v>
   <v>       0.18749784       0.78483798       0.25776978 </v>
   <v>       0.93750174       0.78479942       0.25775558 </v>
   <v>       0.06254676       0.54136446       0.60980068 </v>
   <v>       0.06249446       0.70264707       0.34631499 </v>
   <v>       0.06258344       0.04123012       0.60976743 </v>
   <v>       0.56249956       0.36756275       0.16888649 </v>
   <v>       0.68753252       0.62071247       0.43491288 </v>
   <v>       0.31234325       0.70294165       0.34628477 </v>
   <v>       0.06250477       0.36852124       0.30180161 </v>
   <v>       0.43738508       0.12044514       0.43486327 </v>
   <v>       0.18712691       0.12649835       0.78634992 </v>
   <v>       0.93728569       0.11873265       0.30186004 </v>
   <v>       0.68709672       0.61784844       0.16879790 </v>
   <v>       0.31253538       0.03460004       0.12663662 </v>
   <v>       0.31272089       0.03476382       0.25772653 </v>
   <v>       0.06329302       0.54411525       0.87326620 </v>
   <v>       0.18774704       0.29268404       0.87346683 </v>
   <v>       0.06244898       0.87266278       0.52132489 </v>
   <v>       0.93812929       0.12232693       0.52122838 </v>
   <v>       0.43764026       0.79302989       0.74223418 </v>
   <v>       0.93723967       0.28712751       0.39025145 </v>
   <v>       0.68750336       0.95640933       0.56516445 </v>
   <v>       0.81333086       0.86898216       0.30173842 </v>
   <v>       0.06245921       0.03460686       0.12665540 </v>
   <v>       0.43773740       0.95700083       0.56512599 </v>
   <v>       0.18768997       0.45957328       0.69820698 </v>
   <v>       0.31237108       0.20986219       0.69802691 </v>
   <v>       0.18747694       0.45285689       0.34630231 </v>
   <v>       0.43735440       0.79107704       0.60979468 </v>
   <v>       0.68834092       0.29202164       0.87326469 </v>
   <v>       0.06246776       0.86791853       0.16885478 </v>
   <v>       0.81261929       0.37502493       0.65375836 </v>
   <v>       0.68706765       0.45480575       0.47864628 </v>
   <v>       0.06244087       0.53414937       0.12669248 </v>
   <v>       0.43712037       0.28520734       0.12671074 </v>
   <v>       0.18767741       0.29130731       0.60984642 </v>
   <v>       0.93783692       0.45509899       0.47860097 </v>
   <v>       0.68785818       0.28523044       0.12670232 </v>
   <v>       0.31255551       0.70979725       0.83123598 </v>
   <v>       0.18741604       0.45132522       0.21362445 </v>
   <v>       0.31197701       0.36802844       0.16882257 </v>
   <v>       0.93761102       0.12507911       0.65370478 </v>
   <v>       0.93732594       0.29204236       0.87335929 </v>
   <v>       0.93738864       0.95100104       0.21355826 </v>
   <v>       0.56258633       0.54321025       0.74222030 </v>
   <v>       0.93761887       0.95297673       0.34628609 </v>
   <v>       0.31263466       0.87254200       0.52143268 </v>
   <v>       0.68727368       0.95958245       0.83117745 </v>
   <v>       0.43737872       0.29327245       0.74239364 </v>
   <v>       0.81243593       0.04153586       0.60969685 </v>
   <v>       0.56251500       0.04288649       0.74228569 </v>
   <v>       0.93703831       0.46056501       0.83119158 </v>
   <v>       0.56248117       0.03434380       0.12643451 </v>
   <v>       0.68732939       0.79106968       0.60980979 </v>
   <v>       0.68754159       0.28523561       0.25768967 </v>
   <v>       0.43770541       0.45486686       0.47861112 </v>
   <v>       0.06248798       0.53465077       0.25776314 </v>
   <v>       0.18752862       0.29320181       0.74231511 </v>
   <v>       0.31240730       0.70683010       0.56516116 </v>
   <v>       0.56262733       0.54078064       0.60981887 </v>
   <v>       0.81248430       0.87099286       0.43477213 </v>
   <v>       0.31265708       0.37515103       0.65378287 </v>
   <v>       0.81272759       0.70891549       0.83123663 </v>
   <v>       0.06289440       0.37614257       0.78625178 </v>
   <v>       0.93738985       0.62072509       0.43482433 </v>
   <v>       0.81250197       0.37338486       0.52133498 </v>
   <v>       0.06225804       0.70695418       0.56507917 </v>
   <v>       0.06219578       0.37058908       0.43484868 </v>
   <v>       0.93733163       0.96037323       0.83112672 </v>
   <v>       0.18689476       0.78498521       0.12672049 </v>
   <v>       0.56225254       0.70489714       0.47870189 </v>
   <v>       0.06242737       0.86870663       0.30185334 </v>
   <v>       0.18770825       0.11873350       0.30188491 </v>
   <v>       0.06231429       0.37248638       0.52137324 </v>
   <v>       0.06252599       0.20292278       0.34632714 </v>
   <v>       0.81251189       0.70893510       0.69813481 </v>
   <v>       0.81265202       0.20699907       0.56485817 </v>
   <v>       0.68750691       0.95409557       0.47868192 </v>
   <v>       0.06215019       0.37523487       0.65371544 </v>
   <v>       0.81248576       0.20899097       0.69818621 </v>
   <v>       0.43764329       0.95478225       0.47865096 </v>
   <v>       0.81214689       0.20303595       0.34640057 </v>
   <v>       0.93754554       0.45128855       0.21361583 </v>
   <v>       0.56288015       0.70698418       0.56513271 </v>
   <v>       0.18723568       0.95692152       0.56509740 </v>
   <v>       0.43840673       0.79271552       0.87356926 </v>
   <v>       0.81277823       0.04368697       0.87340674 </v>
   <v>       0.31276998       0.20303860       0.34638568 </v>
   <v>       0.81259849       0.03722964       0.39028200 </v>
   <v>       0.68702731       0.95924966       0.69825711 </v>
   <v>       0.56209066       0.87262334       0.52138913 </v>
   <v>       0.68770380       0.62633513       0.78631056 </v>
   <v>       0.56264032       0.37101131       0.43471671 </v>
   <v>       0.81255163       0.53406782       0.12668692 </v>
   <v>       0.56266064       0.37259536       0.52140422 </v>
   <v>       0.31234195       0.04118942       0.60982295 </v>
   <v>       0.43768422       0.78531389       0.12652721 </v>
   <v>       0.93778961       0.45716529       0.56526806 </v>
   <v>       0.81257237       0.70279905       0.34630232 </v>
   <v>       0.31240337       0.54076775       0.60970909 </v>
   <v>       0.81301981       0.36801395       0.16882614 </v>
   <v>       0.56240663       0.87511124       0.65370955 </v>
   <v>       0.93777784       0.12681907       0.78648317 </v>
   <v>       0.18771122       0.12507923       0.65373857 </v>
   <v>       0.68751139       0.79238007       0.74232531 </v>
   <v>       0.93761527       0.28487092       0.12664212 </v>
   <v>       0.56174113       0.54412610       0.87350247 </v>
   <v>       0.43752603       0.45686741       0.56510500 </v>
   <v>       0.43731451       0.12211653       0.52137025 </v>
   <v>       0.56235089       0.20711127       0.56527399 </v>
   <v>       0.18727709       0.95296990       0.34632923 </v>
   <v>       0.68767668       0.28640502       0.39020233 </v>
   <v>       0.56242178       0.70301005       0.34628505 </v>
   <v>       0.06284666       0.20548358       0.47858456 </v>
   <v>       0.93745718       0.29164474       0.60984448 </v>
   <v>       0.43800038       0.95999902       0.83123945 </v>
   <v>       0.81246787       0.37658339       0.78647020 </v>
   <v>       0.43746321       0.28522042       0.25769079 </v>
   <v>       0.18737477       0.62511301       0.65366394 </v>
   <v>       0.81222443       0.87517001       0.65371580 </v>
   <v>       0.06235021       0.70910177       0.69807868 </v>
   <v>       0.43744963       0.45130366       0.21351999 </v>
   <v>       0.93728820       0.95466786       0.47856075 </v>
   <v>       0.68721416       0.45878706       0.69811262 </v>
   <v>       0.43724463       0.62639095       0.78629286 </v>
   <v>       0.56239817       0.20269285       0.34624678 </v>
   <v>       0.81234551       0.86812527       0.16872126 </v>
   <v>       0.43770349       0.29107096       0.60989415 </v>
   <v>       0.56271779       0.04312168       0.87339119 </v>
   <v>       0.93742512       0.61854934       0.30184165 </v>
   <v>       0.56287474       0.87727981       0.78633908 </v>
   <v>       0.81237302       0.03466501       0.12663518 </v>
   <v>       0.31247147       0.54337222       0.74232542 </v>
   <v>       0.81279048       0.87292987       0.52130334 </v>
   <v>       0.68741016       0.78699569       0.39020010 </v>
   <v>       0.93803532       0.78500315       0.12671287 </v>
   <v>       0.43789148       0.61787707       0.16879524 </v>
   <v>       0.06247158       0.20103450       0.21358145 </v>
   <v>       0.43758366       0.78487150       0.25768259 </v>
   <v>       0.93757265       0.11832683       0.16892196 </v>
   <v>       0.68772992       0.95281626       0.34625532 </v>
   <v>       0.68776272       0.95143421       0.21359255 </v>
   <v>       0.18663711       0.79294351       0.87333007 </v>
   <v>       0.81231178       0.03471917       0.25773221 </v>
   <v>       0.06253561       0.04357819       0.87343287 </v>
   <v>       0.56249140       0.53490332       0.12664856 </v>
   <v>       0.56250215       0.86898942       0.30180913 </v>
   <v>       0.31259346       0.20711047       0.56512017 </v>
   <v>       0.68776475       0.12500695       0.65370307 </v>
   <v>       0.06250438       0.03483570       0.25767129 </v>
   <v>       0.31207277       0.20921610       0.83174069 </v>
   <v>       0.56249501       0.36931132       0.30175505 </v>
   <v>       0.81279682       0.54326310       0.87307713 </v>
   <v>       0.56297860       0.70951334       0.83189127 </v>
   <v>       0.93719243       0.95930356       0.69816571 </v>
   <v>       0.68731907       0.12247602       0.52126929 </v>
   <v>       0.31288857       0.87662399       0.78620910 </v>
   <v>       0.56251840       0.86783945       0.16823197 </v>
   <v>       0.81258040       0.20509574       0.47874282 </v>
   <v>       0.93747826       0.79162801       0.60986036 </v>
   <v>       0.56238429       0.03639266       0.39010041 </v>
  </varray>
 </structure>
 <calculation>
  <scstep>
   <time name="dav">  144.88  144.87</time>
   <time name="total">  145.33  145.33</time>
   <energy>
    <i name="alphaZ">  16277.55763135 </i>
    <i name="ewald"> 771115.94908696 </i>
    <i name="hartreedc">-961358.27961166 </i>
    <i name="XCdc">  -6524.78038971 </i>
    <i name="pawpsdc"> 162148.49262465 </i>
    <i name="pawaedc">-159453.03229289 </i>
    <i name="eentropy">     -0.97312683 </i>
    <i name="bandstr">  39734.86144643 </i>
    <i name="atom"> 168497.18126305 </i>
    <i name="e_fr_energy">  30436.97663135 </i>
    <i name="e_wo_entrp">  30437.94975818 </i>
    <i name="e_0_energy">  30437.46319477 </i>
   </energy>
  </scstep>
  <scstep>
   <time name="dav">  140.33  140.33</time>
   <time name="total">  140.34  140.34</time>
   <energy>
    <i name="e_fr_energy">   1533.62144919 </i>
    <i name="e_wo_entrp">   1535.00134446 </i>
    <i name="e_0_energy">   1534.31139683 </i>
   </energy>
  </scstep>
  <scstep>
   <time name="dav">  179.00  179.00</time>
   <time name="total">  179.01  179.00</time>
   <energy>
    <i name="e_fr_energy">  -1896.04345221 </i>
    <i name="e_wo_entrp">  -1892.52327657 </i>
    <i name="e_0_energy">  -1894.28336439 </i>
   </energy>
  </scstep>
  <scstep>
   <time name="dav">  217.25  217.24</time>
   <time name="total">  217.26  217.25</time>
   <energy>
    <i name="e_fr_energy">  -2609.56983208 </i>
    <i name="e_wo_entrp">  -2606.11469281 </i>
    <i name="e_0_energy">  -2607.84226245 </i>
   </energy>
  </scstep>
  <scstep>
   <time name="dav">  209.60  209.59</time>
   <time name="total">  214.29  214.28</time>
   <energy>
    <i name="e_fr_energy">  -2739.44942938 </i>
    <i name="e_wo_entrp">  -2735.92521176 </i>
    <i name="e_0_energy">  -2737.68732057 </i>
   </energy>
  </scstep>
  <scstep>
   <time name="diag">   28.96   28.96</time>
   <time name="diis">   75.68   75.68</time>
   <time name="orth">    8.76    8.76</time>
   <time name="total">  118.68  118.68</time>
   <energy>
    <i name="e_fr_energy">  -6427.57678840 </i>
    <i name="e_wo_entrp">  -6424.07186564 </i>
    <i name="e_0_energy">  -6425.82432702 </i>
   </energy>
  </scstep>
  <scstep>
   <time name="diag">   30.18   30.18</time>
   <time name="diis">   77.78   77.78</time>
   <time name="orth">    8.69    8.69</time>
   <time name="total">  122.25  122.24</time>
   <energy>
    <i name="e_fr_energy">  -5255.52224135 </i>
    <i name="e_wo_entrp">  -5250.33029100 </i>
    <i name="e_0_energy">  -5252.92626618 </i>
   </energy>
  </scstep>
  <scstep>
[...]
    <v>       0.06249441       0.04212759       0.87354047 </v>
    <v>       0.56245799       0.53656227       0.12655636 </v>
    <v>       0.56248174       0.87042353       0.30178326 </v>
    <v>       0.31254303       0.20638128       0.56513022 </v>
    <v>       0.68775243       0.12339704       0.65373837 </v>
    <v>       0.06250035       0.03647569       0.25765057 </v>
    <v>       0.31211373       0.20782291       0.83187264 </v>
    <v>       0.56247789       0.37088388       0.30170249 </v>
    <v>       0.81273785       0.54165209       0.87318687 </v>
    <v>       0.56302885       0.70806663       0.83202686 </v>
    <v>       0.93721829       0.95754130       0.69819666 </v>
    <v>       0.68727576       0.12232778       0.52128039 </v>
    <v>       0.31292565       0.87494067       0.78629455 </v>
    <v>       0.56247796       0.86934820       0.16817148 </v>
    <v>       0.81259710       0.20554792       0.47872856 </v>
    <v>       0.93744263       0.79024964       0.60989586 </v>
    <v>       0.56241689       0.03755289       0.39005802 </v>
   </varray>
  </structure>
  <varray name="forces" >
   <v>       0.00033546       0.00537840      -0.00188902 </v>
   <v>      -0.00175964       0.00375993       0.00416796 </v>
   <v>      -0.00100904      -0.00269848      -0.00174049 </v>
   <v>       0.00021066      -0.00046308       0.00168714 </v>
   <v>      -0.00114835       0.00501804      -0.00146403 </v>
   <v>       0.00027889      -0.00323431      -0.00127836 </v>
   <v>       0.00015016       0.00503994      -0.00150071 </v>
   <v>      -0.00037025       0.00050453       0.00137490 </v>
   <v>      -0.00052047       0.00117615      -0.00144717 </v>
   <v>      -0.00076508      -0.00161735       0.00111579 </v>
   <v>      -0.00029100       0.00391474       0.00457610 </v>
   <v>       0.00069525       0.00287401       0.00523997 </v>
   <v>       0.00027670       0.00201565       0.00401055 </v>
   <v>      -0.00058811       0.00489855      -0.00127479 </v>
   <v>      -0.00047504       0.00303445      -0.00052046 </v>
   <v>      -0.00053769       0.00067206       0.00150111 </v>
   <v>      -0.00074606       0.00351733      -0.00132480 </v>
   <v>      -0.00218826      -0.00475803       0.00297812 </v>
   <v>       0.00006243       0.00146688      -0.00097593 </v>
   <v>      -0.00037212      -0.00459649       0.00411789 </v>
   <v>       0.00030334      -0.00370657       0.00383007 </v>
   <v>      -0.00065474      -0.00206887       0.00041382 </v>
   <v>       0.00234434      -0.00200856      -0.00271832 </v>
   <v>      -0.00036225      -0.00543861       0.00369581 </v>
   <v>      -0.00148009      -0.00487670      -0.00261418 </v>
   <v>       0.00025692       0.00433213      -0.00147496 </v>
   <v>      -0.00133071       0.00165538      -0.00000787 </v>
   <v>      -0.00102248      -0.00051488       0.00153558 </v>
   <v>       0.00029151      -0.00270097      -0.00246254 </v>
   <v>      -0.00021958      -0.00101203      -0.00325159 </v>
   <v>       0.00105723       0.00477543      -0.00379343 </v>
   <v>       0.00073344      -0.00077397      -0.00230962 </v>
   <v>       0.00048830       0.00219452      -0.00134013 </v>
   <v>      -0.00003851      -0.00149168       0.00239122 </v>
   <v>      -0.00114012      -0.00107738      -0.00285383 </v>
   <v>      -0.00054584       0.00188371      -0.00289143 </v>
   <v>      -0.00054501       0.00071044      -0.00146440 </v>
   <v>       0.00063917      -0.00261149      -0.00088140 </v>
   <v>      -0.00077596      -0.00072486      -0.00265800 </v>
   <v>      -0.00056788      -0.00105708       0.00206534 </v>
   <v>      -0.00014153       0.00010147       0.00148094 </v>
   <v>      -0.00193682      -0.00144240       0.00066371 </v>
   <v>      -0.00139076       0.00179588      -0.00129547 </v>
   <v>      -0.00027389      -0.00125270       0.00240807 </v>
   <v>       0.00103162       0.00132616      -0.00238431 </v>
   <v>      -0.00023020       0.00272514       0.00364962 </v>
   <v>      -0.00101745       0.00220476       0.00268735 </v>
   <v>       0.00021736       0.00068077       0.00049889 </v>
   <v>      -0.00033548      -0.00211562       0.00221563 </v>
   <v>       0.00100986      -0.00078308      -0.00009960 </v>
   <v>       0.00058966      -0.00071720      -0.00096150 </v>
   <v>       0.00076203      -0.00184668       0.00295474 </v>
   <v>       0.00137767       0.00465533       0.00025667 </v>
   <v>      -0.00058596       0.00456395       0.00507117 </v>
   <v>      -0.00068217      -0.00066025       0.00084209 </v>
   <v>      -0.00005593       0.00455838      -0.00150125 </v>
   <v>       0.00030837      -0.00430622      -0.00313150 </v>
   <v>      -0.00016395      -0.00147721       0.00300839 </v>
   <v>      -0.00076637      -0.00601144       0.00333485 </v>
   <v>       0.00002396       0.00032897       0.00120726 </v>
   <v>       0.00049641       0.00149324       0.00055050 </v>
   <v>      -0.00030577       0.00334943       0.00432742 </v>
   <v>       0.00015476      -0.00147271       0.00145067 </v>
   <v>       0.00011562       0.00188058      -0.00145178 </v>
   <v>      -0.00031978       0.00123432       0.00035619 </v>
   <v>       0.00013043      -0.00050821       0.00201161 </v>
   <v>       0.00057109       0.00115141       0.00215053 </v>
   <v>      -0.00007631       0.00206822      -0.00189186 </v>
   <v>       0.00011116      -0.00049926      -0.00166093 </v>
   <v>      -0.00069230       0.00131163       0.00216287 </v>
   <v>      -0.00004759      -0.00178377      -0.00259942 </v>
   <v>      -0.00085450       0.00316905       0.00315535 </v>
   <v>       0.00162942       0.00118568       0.00064729 </v>
   <v>      -0.00040525      -0.00189850      -0.00129136 </v>
   <v>      -0.00023559       0.00136228      -0.00347008 </v>
   <v>      -0.00093487       0.00058842      -0.00158127 </v>
   <v>       0.00111705      -0.00129287       0.00107940 </v>
   <v>      -0.00045026      -0.00018284      -0.00231878 </v>
   <v>      -0.00137977       0.00042523      -0.00038371 </v>
   <v>       0.00100264      -0.00239208       0.00157206 </v>
   <v>       0.00001129       0.00347178       0.00353902 </v>
   <v>       0.00039197      -0.00180774      -0.00102811 </v>
   <v>       0.00143123      -0.00222460      -0.00035350 </v>
   <v>       0.00091316      -0.00162707       0.00301328 </v>
   <v>      -0.00052068       0.00394820      -0.00308327 </v>
   <v>       0.00075024       0.00191487       0.00169120 </v>
   <v>      -0.00139800       0.00139869       0.00046720 </v>
   <v>       0.00015870       0.00033971      -0.00281474 </v>
   <v>      -0.00016712       0.00445359      -0.00132929 </v>
   <v>      -0.00025334      -0.00439607      -0.00392636 </v>
   <v>       0.00062519      -0.00028459       0.00330967 </v>
   <v>      -0.00076052      -0.00054909      -0.00090054 </v>
   <v>      -0.00043836       0.00339902       0.00389238 </v>
   <v>       0.00021252      -0.00028698       0.00048398 </v>
   <v>       0.00058876      -0.00493498      -0.00417840 </v>
   <v>       0.00001150       0.00132726       0.00051730 </v>
   <v>       0.00004647       0.00010676      -0.00092846 </v>
   <v>      -0.00125742      -0.00381976       0.00135619 </v>
   <v>       0.00168119      -0.00051019      -0.00106941 </v>
   <v>      -0.00020234      -0.00510813       0.00335775 </v>
   <v>      -0.00008468      -0.00022248      -0.00169117 </v>
   <v>       0.00011851       0.00016128      -0.00106831 </v>
   <v>      -0.00138222       0.00167740      -0.00091967 </v>
   <v>      -0.00013611      -0.00160705       0.00085863 </v>
   <v>       0.00050688       0.00422074      -0.00178663 </v>
   <v>       0.00045151       0.00015381       0.00159942 </v>
   <v>      -0.00079714      -0.00105376       0.00168814 </v>
   <v>       0.00070787      -0.00127442       0.00166685 </v>
   <v>      -0.00230768      -0.00275776      -0.00078348 </v>
   <v>       0.00077376       0.00275421      -0.00009203 </v>
   <v>       0.00087351      -0.00064158      -0.00208424 </v>
   <v>      -0.00015242       0.00144081      -0.00263827 </v>
   <v>       0.00197537      -0.00258445       0.00076992 </v>
   <v>      -0.00061204       0.00420812      -0.00170112 </v>
   <v>      -0.00168334      -0.00014543       0.00237102 </v>
   <v>       0.00077706      -0.00249618       0.00001644 </v>
   <v>      -0.00147315       0.00536895       0.00044259 </v>
   <v>       0.00103532      -0.00173459       0.00109037 </v>
   <v>      -0.00059686       0.00107101       0.00086189 </v>
   <v>      -0.00044889       0.00010950       0.00178472 </v>
   <v>      -0.00016484       0.00142850      -0.00154944 </v>
   <v>       0.00044335      -0.00061035       0.00291541 </v>
   <v>      -0.00011817       0.00074071       0.00228906 </v>
   <v>       0.00120021      -0.00213582      -0.00163556 </v>
   <v>       0.00191292       0.00065215      -0.00036766 </v>
   <v>       0.00035432      -0.00341905      -0.00233205 </v>
   <v>       0.00088986      -0.00443975       0.00229676 </v>
   <v>      -0.00010934       0.00459362      -0.00067186 </v>
   <v>       0.00007364       0.00430076      -0.00027148 </v>
   <v>      -0.00050972      -0.00110145      -0.00179104 </v>
   <v>       0.00032593      -0.00115701       0.00182052 </v>
   <v>       0.00033116       0.00167945      -0.00154960 </v>
   <v>       0.00022812       0.00085489       0.00046160 </v>
   <v>       0.00073052       0.00287319       0.00418746 </v>
   <v>       0.00052297      -0.00186401       0.00280717 </v>
   <v>       0.00009737       0.00035979      -0.00088869 </v>
   <v>      -0.00020831       0.00440729       0.00461114 </v>
   <v>       0.00025699      -0.00309376       0.00216135 </v>
   <v>       0.00067271       0.00211311      -0.00144544 </v>
   <v>       0.00159953       0.00129026      -0.00034853 </v>
   <v>       0.00194144      -0.00080048       0.00240614 </v>
   <v>       0.00084382       0.00309272      -0.00030471 </v>
   <v>      -0.00200445      -0.00234156      -0.00071094 </v>
   <v>      -0.00113877      -0.00120032      -0.00082303 </v>
   <v>      -0.00038037       0.00154859      -0.00247591 </v>
   <v>      -0.00065743      -0.00179954      -0.00211880 </v>
   <v>       0.00115818      -0.00222495      -0.00035117 </v>
   <v>       0.00066780      -0.00273060       0.00240931 </v>
   <v>       0.00038410      -0.00083320      -0.00393864 </v>
   <v>       0.00055111       0.00184734      -0.00131195 </v>
   <v>      -0.00003559       0.00014542       0.00094500 </v>
   <v>       0.00013395      -0.00361072      -0.00469525 </v>
   <v>       0.00023581       0.00108136       0.00216229 </v>
   <v>      -0.00021058       0.00028479       0.00093586 </v>
   <v>      -0.00071984      -0.00270791       0.00230127 </v>
   <v>      -0.00014045       0.00030133      -0.00060611 </v>
   <v>      -0.00099810      -0.00204150      -0.00336473 </v>
   <v>      -0.00069981       0.00109083      -0.00084330 </v>
   <v>       0.00028049       0.00175625      -0.00082537 </v>
   <v>      -0.00052227       0.00225301       0.00275613 </v>
   <v>      -0.00005192      -0.00179373       0.00209665 </v>
   <v>      -0.00006210      -0.00039993       0.00149336 </v>
   <v>       0.00058828      -0.00046064      -0.00160402 </v>
   <v>       0.00058629       0.00262748      -0.00004746 </v>
   <v>       0.00024244      -0.00027113       0.00146105 </v>
   <v>      -0.00084926      -0.00025740       0.00065176 </v>
   <v>      -0.00030492       0.00602657      -0.00182581 </v>
   <v>       0.00024639       0.00029857       0.00041424 </v>
   <v>      -0.00009924       0.00307916      -0.00040993 </v>
   <v>       0.00184249      -0.00173528      -0.00180883 </v>
   <v>      -0.00165928       0.00475769      -0.00322668 </v>
   <v>       0.00099497      -0.00059746       0.00022568 </v>
   <v>       0.00018063      -0.00110672       0.00182690 </v>
   <v>      -0.00081171      -0.00025224      -0.00334904 </v>
   <v>       0.00155195      -0.00202173      -0.00054701 </v>
   <v>      -0.00106785      -0.00299629      -0.00104722 </v>
   <v>      -0.00087495      -0.00119017      -0.00229267 </v>
   <v>       0.00030944      -0.00175232      -0.00183902 </v>
   <v>       0.00280310      -0.00208905      -0.00159574 </v>
   <v>       0.00052248      -0.00239474      -0.00133220 </v>
   <v>      -0.00037720       0.00115528      -0.00224319 </v>
   <v>      -0.00030287       0.00238732      -0.00161282 </v>
   <v>      -0.00080189       0.00237970       0.00294827 </v>
   <v>       0.00010582       0.00235305       0.00093808 </v>
   <v>      -0.00018314      -0.00052477       0.00018740 </v>
   <v>      -0.00019496      -0.00442263      -0.00260649 </v>
   <v>       0.00059576      -0.00021385      -0.00219258 </v>
   <v>       0.00065096       0.00355654       0.00392430 </v>
   <v>       0.00157690       0.00028157      -0.00088186 </v>
   <v>       0.00015749      -0.00244013      -0.00099577 </v>
   <v>      -0.00090131      -0.00322528       0.00242725 </v>
   <v>       0.00039217       0.00320326       0.00406388 </v>
   <v>      -0.00089839      -0.00219799      -0.00137430 </v>
   <v>       0.00012649      -0.00331099      -0.00225094 </v>
   <v>       0.00056666       0.00429996       0.00392173 </v>
   <v>      -0.00068810      -0.00145370      -0.00071564 </v>
   <v>       0.00178516       0.00037465      -0.00013277 </v>
   <v>       0.00008671       0.00176331      -0.00012780 </v>
   <v>       0.00068747       0.00163485      -0.00157577 </v>
   <v>      -0.00120762       0.00155591      -0.00117218 </v>
   <v>       0.00124617      -0.00110999      -0.00146477 </v>
   <v>      -0.00025537      -0.00229617       0.00341685 </v>
   <v>      -0.00056587       0.00096306       0.00198765 </v>
   <v>       0.00031036      -0.00359347      -0.00259595 </v>
   <v>      -0.00003750       0.00175569       0.00219399 </v>
   <v>       0.00005202       0.00041626      -0.00034829 </v>
   <v>       0.00092072       0.00260728       0.00174260 </v>
   <v>      -0.00037036       0.00064610       0.00033528 </v>
   <v>       0.00103039      -0.00188984       0.00258524 </v>
   <v>      -0.00031443       0.00494158      -0.00183577 </v>
   <v>      -0.00027387      -0.00302158      -0.00382066 </v>
   <v>       0.00067246      -0.00244916      -0.00305598 </v>
   <v>       0.00099770       0.00039409      -0.00173893 </v>
   <v>       0.00076547       0.00190917      -0.00100595 </v>
   <v>       0.00007508      -0.00338190       0.00100344 </v>
   <v>      -0.00069483      -0.00125378       0.00242627 </v>
   <v>       0.00048352       0.00117025       0.00061912 </v>
   <v>       0.00078211       0.00041271      -0.00199071 </v>
   <v>       0.00046697      -0.00326429       0.00141993 </v>
   <v>       0.00078230       0.00376316       0.00517123 </v>
   <v>      -0.00095203      -0.00217210      -0.00188860 </v>
   <v>      -0.00074031      -0.00246659      -0.00031438 </v>
   <v>      -0.00044552       0.00064464      -0.00132080 </v>
   <v>      -0.00031578      -0.00168176       0.00059192 </v>
   <v>       0.00056602      -0.00436976      -0.00404992 </v>
   <v>      -0.00009560      -0.00178107       0.00253599 </v>
   <v>       0.00101169      -0.00127610      -0.00005548 </v>
   <v>      -0.00020536       0.00013957       0.00053013 </v>
   <v>       0.00001636       0.00185060      -0.00338507 </v>
   <v>       0.00036841      -0.00372224       0.00205050 </v>
   <v>       0.00118215       0.00205072      -0.00218548 </v>
   <v>       0.00036571      -0.00023962       0.00067396 </v>
   <v>       0.00040885      -0.00022814       0.00096857 </v>
   <v>       0.00073855       0.00150543      -0.00226156 </v>
   <v>       0.00028956      -0.00415160      -0.00310936 </v>
   <v>      -0.00073401      -0.00026239      -0.00250785 </v>
   <v>      -0.00050366      -0.00370793      -0.00318788 </v>
   <v>       0.00013232      -0.00214232       0.00250941 </v>
   <v>       0.00064522      -0.00137301       0.00282698 </v>
   <v>      -0.00053311      -0.00456846       0.00229762 </v>
   <v>       0.00068391       0.00122475      -0.00018766 </v>
   <v>       0.00036222      -0.00167771      -0.00203632 </v>
   <v>      -0.00150262      -0.00246882       0.00153794 </v>
   <v>       0.00036933      -0.00373158       0.00122866 </v>
   <v>      -0.00083651       0.00275747      -0.00120971 </v>
   <v>      -0.00004127       0.00166131       0.00038010 </v>
   <v>      -0.00129264       0.00233757      -0.00239512 </v>
   <v>      -0.00036901       0.00242177       0.00225440 </v>
   <v>       0.00146681       0.00477818      -0.00221945 </v>
   <v>      -0.00027137       0.00241774       0.00121637 </v>
   <v>       0.00032390       0.00228796       0.00101303 </v>
   <v>      -0.00041168      -0.00486505       0.00424369 </v>
   <v>      -0.00074180      -0.00320967       0.00234892 </v>
   <v>      -0.00054357       0.00010828      -0.00127527 </v>
   <v>       0.00050473      -0.00061902      -0.00107805 </v>
   <v>      -0.00139272      -0.00326293      -0.00000275 </v>
   <v>      -0.00023951       0.00061422      -0.00088696 </v>
   <v>       0.00047941      -0.00493877       0.00503310 </v>
   <v>      -0.00123819       0.00017633       0.00275795 </v>
   <v>      -0.00067396      -0.00151483      -0.00237388 </v>
   <v>      -0.00085909       0.00039069      -0.00096673 </v>
   <v>       0.00147601      -0.00031016       0.00272959 </v>
   <v>      -0.00188254       0.00036002      -0.00010472 </v>
   <v>      -0.00068882       0.00049231      -0.00035865 </v>
   <v>      -0.00033406       0.00568310      -0.00411082 </v>
   <v>       0.00078451       0.00375931      -0.00048784 </v>
   <v>       0.00130928       0.00211966      -0.00027297 </v>
   <v>       0.00061019      -0.00136396       0.00111942 </v>
   <v>      -0.00009997       0.00515128      -0.00198529 </v>
   <v>       0.00095031      -0.00203424      -0.00209631 </v>
   <v>      -0.00153085       0.00206075      -0.00056067 </v>
   <v>      -0.00028037      -0.00109573       0.00074853 </v>
   <v>       0.00125533      -0.00159671       0.00053070 </v>
   <v>      -0.00046462       0.00098814      -0.00302117 </v>
   <v>       0.00051630      -0.00365935      -0.00262941 </v>
   <v>      -0.00037639       0.00240630      -0.00208984 </v>
   <v>      -0.00035136       0.00387075      -0.00272419 </v>
   <v>      -0.00010675      -0.00361760       0.00047541 </v>
   <v>       0.00021796      -0.00145101      -0.00035538 </v>
   <v>      -0.00009795      -0.00040990      -0.00365975 </v>
   <v>       0.00090569      -0.00200353      -0.00114849 </v>
   <v>      -0.00071745       0.00163179       0.00201569 </v>
   <v>       0.00085611      -0.00038541      -0.00279615 </v>
   <v>      -0.00121008      -0.00635367       0.00239177 </v>
   <v>       0.00066139       0.00106528      -0.00106571 </v>
   <v>      -0.00050352       0.00193850       0.00035221 </v>
   <v>      -0.00006732       0.00000525      -0.00309282 </v>
   <v>       0.00023267      -0.00048317       0.00234793 </v>
  </varray>
  <varray name="stress" >
   <v>      -1.28053560      -0.02867401      -0.00420083 </v>
   <v>      -0.02867379      -0.53097482      -1.48669777 </v>
   <v>      -0.00420154      -1.48669871      -6.21140685 </v>
  </varray>
  <energy>
   <i name="e_fr_energy">  -2326.11522067 </i>
   <i name="e_wo_entrp">  -2323.35962423 </i>
   <i name="e_0_energy">     -5.51119288 </i>
  </energy>
  <time name="totalsc"> 1448.51 1448.49</time>
 </calculation>
 <calculation>
  <scstep>
   <time name="dav">  133.97  133.97</time>
   <time name="total">  139.40  139.39</time>
   <energy>
    <i name="alphaZ">  16277.55763135 </i>
    <i name="ewald"> 769257.97369694 </i>
    <i name="hartreedc">-956379.419