unknown system                          
            1
     9.726678    0.000000    0.000000
     0.000000    8.423550    0.000000
     0.000000    0.000000   45.000000
   Fe   Mn
 273  15
Direct configuration=     1
   0.43725279  0.95144441  0.21359592
   0.18754661  0.62054888  0.43479653
   0.68722200  0.29115118  0.60980956
   0.18728856  0.28485015  0.12664693
   0.68759211  0.45128066  0.21351836
   0.31254638  0.37283085  0.52133151
   0.56251064  0.20135607  0.21347074
   0.06251483  0.20896783  0.69817083
   0.93737966  0.61788906  0.16890076
   0.43729171  0.95293090  0.34631956
   0.43743328  0.62049457  0.43485282
   0.68736516  0.12066546  0.43511542
   0.81263408  0.37127974  0.43477731
   0.81268385  0.20099413  0.21347769
   0.56251489  0.53493638  0.25780736
   0.18784827  0.95932002  0.69822346
   0.68742307  0.78482642  0.25767607
   0.43789434  0.12642965  0.78642252
   0.68771489  0.11894137  0.30179789
   0.18752688  0.62649513  0.78643257
   0.68727995  0.12710504  0.78654428
   0.31261703  0.54237929  0.87335507
   0.43698844  0.46033378  0.83111989
   0.06221144  0.87674214  0.78642560
   0.68721133  0.45736564  0.56519512
   0.06277027  0.87495250  0.65370604
   0.81208471  0.53474721  0.25772071
   0.31246649  0.04336520  0.74226219
   0.81248489  0.54133920  0.60976227
   0.93761959  0.95670884  0.56514797
   0.18762347  0.95102939  0.21355434
   0.18728488  0.12263662  0.52134278
   0.31246550  0.70485694  0.47864157
   0.31198370  0.53678634  0.39027513
   0.68824293  0.46094346  0.83127451
   0.68743866  0.62563061  0.65366364
   0.81287243  0.36882858  0.30185066
   0.06260437  0.04280472  0.74233902
   0.18754810  0.62260901  0.52130828
   0.43745274  0.78666422  0.39021458
   0.93748367  0.29304735  0.74224052
   0.18734676  0.79336013  0.74227883
   0.31165176  0.86882473  0.30170898
   0.31214757  0.03694454  0.39028901
   0.43727211  0.62502414  0.65366396
   0.06256885  0.87083495  0.43485015
   0.56178105  0.20553889  0.47867726
   0.06267642  0.70514258  0.47860131
   0.18745722  0.28717301  0.39024251
   0.68759516  0.29291257  0.74229739
   0.81251748  0.54262040  0.74232558
   0.93748264  0.45290774  0.34627494
   0.18744756  0.28474802  0.25774957
   0.31246211  0.87087280  0.43490439
   0.31242165  0.70899123  0.69809464
   0.31265300  0.70119457  0.21351826
   0.81242758  0.70693004  0.56502857
   0.93753407  0.62629386  0.78645964
   0.31259771  0.37688133  0.78630651
   0.93750682  0.45879378  0.69821814
   0.31245296  0.20492300  0.47872812
   0.56221945  0.87073268  0.43476220
   0.06241279  0.53705965  0.39012789
   0.31265233  0.87466276  0.65372201
   0.43740472  0.45942908  0.69815686
   0.06260391  0.03691166  0.39015128
   0.68768484  0.11733235  0.16880197
   0.56251196  0.70115788  0.21348035
   0.43726889  0.61894803  0.30186114
   0.81249293  0.70504902  0.47862300
   0.93876314  0.79289868  0.87332271
   0.31239419  0.37072356  0.43491609
   0.43762941  0.95938467  0.69813304
   0.93775465  0.62254309  0.52130812
   0.43708957  0.12522897  0.65375447
   0.43722503  0.11887578  0.30183664
   0.81248190  0.04268991  0.74240098
   0.68676063  0.79307235  0.87354191
   0.06246919  0.36843862  0.16884650
   0.68749294  0.45308444  0.34628742
   0.93784456  0.12056493  0.43471485
   0.56242471  0.20970875  0.83110148
   0.81305157  0.21038883  0.83137981
   0.43743977  0.28645846  0.39021655
   0.06246461  0.70126975  0.21356500
   0.18729812  0.45499891  0.47860049
   0.18736862  0.11832736  0.16891630
   0.56253620  0.37524779  0.65376208
   0.81232462  0.70116364  0.21351069
   0.06229346  0.20715341  0.56519545
   0.93750860  0.79271809  0.74227711
   0.68770219  0.61894340  0.30185273
   0.18741853  0.12060480  0.43485170
   0.06278030  0.20932956  0.83111992
   0.18753215  0.45701271  0.56512103
   0.18742175  0.95482029  0.47861588
   0.31262759  0.86813257  0.16871654
   0.43739131  0.45312657  0.34629904
   0.68743482  0.62242828  0.52131522
   0.56224651  0.37647572  0.78628740
   0.43722414  0.62250763  0.52132626
   0.31208720  0.36885992  0.30186217
   0.18795932  0.79104079  0.60968410
   0.56250623  0.53636482  0.39027761
   0.31230426  0.20102356  0.21348727
   0.06239834  0.54308031  0.74224677
   0.18752795  0.78662436  0.39019278
   0.93740869  0.78685373  0.39018911
   0.18802136  0.45933788  0.83108389
   0.31289647  0.53472046  0.25772050
   0.56256653  0.04154273  0.60977184
   0.93797006  0.62549388  0.65378166
   0.06162933  0.70957240  0.83126998
   0.56252794  0.03490015  0.25778255
   0.31246155  0.04407218  0.87352377
   0.18765940  0.96047570  0.83122606
   0.93756811  0.28479210  0.25774713
   0.68727147  0.78533849  0.12652463
   0.56258371  0.20924893  0.69821134
   0.56284310  0.70868210  0.69802568
   0.18759546  0.61790142  0.16889702
   0.81293436  0.53719396  0.39020635
   0.43732240  0.11733607  0.16879484
   0.31236779  0.53405909  0.12669118
   0.18753514  0.61857909  0.30184520
   0.43695303  0.29237312  0.87341387
   0.81248428  0.87728076  0.78634950
   0.18749784  0.78483798  0.25776978
   0.93750174  0.78479942  0.25775558
   0.06254676  0.54136446  0.60980068
   0.06249446  0.70264707  0.34631499
   0.06258344  0.04123012  0.60976743
   0.56249956  0.36756275  0.16888649
   0.68753252  0.62071247  0.43491288
   0.31234325  0.70294165  0.34628477
   0.06250477  0.36852124  0.30180161
   0.43738508  0.12044514  0.43486327
   0.18712691  0.12649835  0.78634992
   0.93728569  0.11873265  0.30186004
   0.68709672  0.61784844  0.16879790
   0.31253538  0.03460004  0.12663662
   0.31272089  0.03476382  0.25772653
   0.06329302  0.54411525  0.87326620
   0.18774704  0.29268404  0.87346683
   0.06244898  0.87266278  0.52132489
   0.93812929  0.12232693  0.52122838
   0.43764026  0.79302989  0.74223418
   0.93723967  0.28712751  0.39025145
   0.68750336  0.95640933  0.56516445
   0.81333086  0.86898216  0.30173842
   0.06245921  0.03460686  0.12665540
   0.43773740  0.95700083  0.56512599
   0.18768997  0.45957328  0.69820698
   0.31237108  0.20986219  0.69802691
   0.18747694  0.45285689  0.34630231
   0.43735440  0.79107704  0.60979468
   0.68834092  0.29202164  0.87326469
   0.06246776  0.86791853  0.16885478
   0.81261929  0.37502493  0.65375836
   0.68706765  0.45480575  0.47864628
   0.06244087  0.53414937  0.12669248
   0.43712037  0.28520734  0.12671074
   0.18767741  0.29130731  0.60984642
   0.93783692  0.45509899  0.47860097
   0.68785818  0.28523044  0.12670232
   0.31255551  0.70979725  0.83123598
   0.18741604  0.45132522  0.21362445
   0.31197701  0.36802844  0.16882257
   0.93761102  0.12507911  0.65370478
   0.93732594  0.29204236  0.87335929
   0.93738864  0.95100104  0.21355826
   0.56258633  0.54321025  0.74222030
   0.93761887  0.95297673  0.34628609
   0.31263466  0.87254200  0.52143268
   0.68727368  0.95958245  0.83117745
   0.43737872  0.29327245  0.74239364
   0.81243593  0.04153586  0.60969685
   0.56251500  0.04288649  0.74228569
   0.93703831  0.46056501  0.83119158
   0.56248117  0.03434380  0.12643451
   0.68732939  0.79106968  0.60980979
   0.68754159  0.28523561  0.25768967
   0.43770541  0.45486686  0.47861112
   0.06248798  0.53465077  0.25776314
   0.18752862  0.29320181  0.74231511
   0.31240730  0.70683010  0.56516116
   0.56262733  0.54078064  0.60981887
   0.81248430  0.87099286  0.43477213
   0.31265708  0.37515103  0.65378287
   0.81272759  0.70891549  0.83123663
   0.06289440  0.37614257  0.78625178
   0.93738985  0.62072509  0.43482433
   0.81250197  0.37338486  0.52133498
   0.06225804  0.70695418  0.56507917
   0.06219578  0.37058908  0.43484868
   0.93733163  0.96037323  0.83112672
   0.18689476  0.78498521  0.12672049
   0.56225254  0.70489714  0.47870189
   0.06242737  0.86870663  0.30185334
   0.18770825  0.11873350  0.30188491
   0.06231429  0.37248638  0.52137324
   0.06252599  0.20292278  0.34632714
   0.81251189  0.70893510  0.69813481
   0.81265202  0.20699907  0.56485817
   0.68750691  0.95409557  0.47868192
   0.06215019  0.37523487  0.65371544
   0.81248576  0.20899097  0.69818621
   0.43764329  0.95478225  0.47865096
   0.81214689  0.20303595  0.34640057
   0.93754554  0.45128855  0.21361583
   0.56288015  0.70698418  0.56513271
   0.18723568  0.95692152  0.56509740
   0.43840673  0.79271552  0.87356926
   0.81277823  0.04368697  0.87340674
   0.31276998  0.20303860  0.34638568
   0.81259849  0.03722964  0.39028200
   0.68702731  0.95924966  0.69825711
   0.56209066  0.87262334  0.52138913
   0.68770380  0.62633513  0.78631056
   0.56264032  0.37101131  0.43471671
   0.81255163  0.53406782  0.12668692
   0.56266064  0.37259536  0.52140422
   0.31234195  0.04118942  0.60982295
   0.43768422  0.78531389  0.12652721
   0.93778961  0.45716529  0.56526806
   0.81257237  0.70279905  0.34630232
   0.31240337  0.54076775  0.60970909
   0.81301981  0.36801395  0.16882614
   0.56240663  0.87511124  0.65370955
   0.93777784  0.12681907  0.78648317
   0.18771122  0.12507923  0.65373857
   0.68751139  0.79238007  0.74232531
   0.93761527  0.28487092  0.12664212
   0.56174113  0.54412610  0.87350247
   0.43752603  0.45686741  0.56510500
   0.43731451  0.12211653  0.52137025
   0.56235089  0.20711127  0.56527399
   0.18727709  0.95296990  0.34632923
   0.68767668  0.28640502  0.39020233
   0.56242178  0.70301005  0.34628505
   0.06284666  0.20548358  0.47858456
   0.93745718  0.29164474  0.60984448
   0.43800038  0.95999902  0.83123945
   0.81246787  0.37658339  0.78647020
   0.43746321  0.28522042  0.25769079
   0.18737477  0.62511301  0.65366394
   0.81222443  0.87517001  0.65371580
   0.06235021  0.70910177  0.69807868
   0.43744963  0.45130366  0.21351999
   0.93728820  0.95466786  0.47856075
   0.68721416  0.45878706  0.69811262
   0.43724463  0.62639095  0.78629286
   0.56239817  0.20269285  0.34624678
   0.81234551  0.86812527  0.16872126
   0.43770349  0.29107096  0.60989415
   0.56271779  0.04312168  0.87339119
   0.93742512  0.61854934  0.30184165
   0.56287474  0.87727981  0.78633908
   0.81237302  0.03466501  0.12663518
   0.31247147  0.54337222  0.74232542
   0.81279048  0.87292987  0.52130334
   0.68741016  0.78699569  0.39020010
   0.93803532  0.78500315  0.12671287
   0.43789148  0.61787707  0.16879524
   0.06247158  0.20103450  0.21358145
   0.43758366  0.78487150  0.25768259
   0.93757265  0.11832683  0.16892196
   0.68772992  0.95281626  0.34625532
   0.68776272  0.95143421  0.21359255
   0.18663711  0.79294351  0.87333007
   0.81231178  0.03471917  0.25773221
   0.06253561  0.04357819  0.87343287
   0.56249140  0.53490332  0.12664856
   0.56250215  0.86898942  0.30180913
   0.31259346  0.20711047  0.56512017
   0.68776475  0.12500695  0.65370307
   0.06250438  0.03483570  0.25767129
   0.31207277  0.20921610  0.83174069
   0.56249501  0.36931132  0.30175505
   0.81279682  0.54326310  0.87307713
   0.56297860  0.70951334  0.83189127
   0.93719243  0.95930356  0.69816571
   0.68731907  0.12247602  0.52126929
   0.31288857  0.87662399  0.78620910
   0.56251840  0.86783945  0.16823197
   0.81258040  0.20509574  0.47874282
   0.93747826  0.79162801  0.60986036
   0.56238429  0.03639266  0.39010041
Direct configuration=     2
   0.43726182  0.95145038  0.21359535
   0.18755352  0.62057645  0.43479690
   0.68723065  0.29115306  0.60980881
   0.18730076  0.28485511  0.12665099
   0.68759319  0.45129965  0.21352020
   0.31256300  0.37280017  0.52133571
   0.56250410  0.20137651  0.21347178
   0.06252108  0.20896633  0.69816759
   0.93738432  0.61788225  0.16889491
   0.43729285  0.95292123  0.34631768
   0.43743683  0.62051851  0.43484971
   0.68736013  0.12068814  0.43511532
   0.81263003  0.37129892  0.43477640
   0.81267826  0.20101766  0.21347948
   0.56251038  0.53494495  0.25780935
   0.18785244  0.95931394  0.69821920
   0.68742143  0.78484939  0.25767946
   0.43789565  0.12641614  0.78642320
   0.68770691  0.11894711  0.30180045
   0.18753141  0.62646644  0.78642841
   0.68727361  0.12709221  0.78653875
   0.31262751  0.54236672  0.87335539
   0.43697804  0.46033855  0.83113061
   0.06221218  0.87673234  0.78642087
   0.68721564  0.45736400  0.56519689
   0.06276654  0.87493777  0.65370544
   0.81209224  0.53477821  0.25772251
   0.31247248  0.04334342  0.74225994
   0.81248241  0.54134085  0.60976308
   0.93763325  0.95667691  0.56514992
   0.18762499  0.95106034  0.21355820
   0.18728430  0.12264242  0.52134973
   0.31246005  0.70487794  0.47863873
   0.31199502  0.53679168  0.39027617
   0.68824723  0.46095042  0.83128557
   0.68744542  0.62561118  0.65366800
   0.81286577  0.36883094  0.30185301
   0.06261530  0.04280001  0.74233845
   0.18752342  0.62259832  0.52130580
   0.43745993  0.78666535  0.39021761
   0.93748891  0.29301741  0.74223595
   0.18736290  0.79333256  0.74227880
   0.31166242  0.86881321  0.30171143
   0.31215697  0.03693515  0.39028966
   0.43725904  0.62501710  0.65366640
   0.06257214  0.87085695  0.43484728
   0.56182349  0.20556977  0.47867508
   0.06270394  0.70512062  0.47860178
   0.18746538  0.28718253  0.39024416
   0.68757831  0.29288832  0.74229269
   0.81251894  0.54260682  0.74232357
   0.93747234  0.45291077  0.34627096
   0.18744701  0.28476614  0.25775044
   0.31246819  0.87087295  0.43490211
   0.31241682  0.70898967  0.69809442
   0.31266118  0.70120363  0.21351822
   0.81242911  0.70692107  0.56502907
   0.93753024  0.62626225  0.78645655
   0.31260296  0.37687978  0.78630330
   0.93750885  0.45878982  0.69821708
   0.31246512  0.20493706  0.47872882
   0.56222130  0.87075277  0.43475862
   0.06241902  0.53707672  0.39013240
   0.31265125  0.87464535  0.65372535
   0.43739737  0.45941458  0.69815696
   0.06261176  0.03691666  0.39015233
   0.68767483  0.11732443  0.16879494
   0.56250890  0.70119526  0.21348091
   0.43726942  0.61895430  0.30186242
   0.81250223  0.70504239  0.47862403
   0.93875466  0.79289763  0.87332367
   0.31240119  0.37073979  0.43491302
   0.43762488  0.95938328  0.69813245
   0.93775022  0.62254289  0.52130617
   0.43707960  0.12523309  0.65375914
   0.43723562  0.11887964  0.30183767
   0.81247213  0.04268218  0.74239585
   0.68675272  0.79305192  0.87353761
   0.06247443  0.36845029  0.16883811
   0.68749209  0.45308126  0.34628535
   0.93784511  0.12057943  0.43471467
   0.56242197  0.20970084  0.83110837
   0.81305116  0.21040575  0.83138552
   0.43743961  0.28646328  0.39021715
   0.06246703  0.70128012  0.21356723
   0.18725279  0.45505431  0.47859755
   0.18737632  0.11833024  0.16890855
   0.56254381  0.37525088  0.65376669
   0.81231814  0.70118055  0.21351115
   0.06229881  0.20713680  0.56520089
   0.93751102  0.79268966  0.74227203
   0.68769947  0.61894322  0.30185455
   0.18742630  0.12061475  0.43484714
   0.06278609  0.20931389  0.83112704
   0.18753422  0.45699863  0.56512323
   0.18741651  0.95482135  0.47861300
   0.31262635  0.86814769  0.16871003
   0.43740097  0.45312340  0.34629756
   0.68744904  0.62244094  0.52131940
   0.56224395  0.37646494  0.78628390
   0.43724063  0.62248204  0.52132522
   0.31209374  0.36885905  0.30186484
   0.18795873  0.79101655  0.60968446
   0.56250520  0.53637256  0.39027992
   0.31230819  0.20104333  0.21348815
   0.06240953  0.54305754  0.74224063
   0.18753712  0.78662727  0.39019265
   0.93740264  0.78686567  0.39018914
   0.18804066  0.45933252  0.83109464
   0.31288976  0.53474827  0.25772140
   0.56256015  0.04153432  0.60977135
   0.93797053  0.62549740  0.65378454
   0.06162175  0.70956885  0.83127899
   0.56252311  0.03492845  0.25778184
   0.31247332  0.04406982  0.87351791
   0.18765247  0.96048078  0.83123696
   0.93756818  0.28480561  0.25774778
   0.68726433  0.78533040  0.12652612
   0.56258021  0.20924562  0.69821020
   0.56284056  0.70868119  0.69802397
   0.18759118  0.61789092  0.16889245
   0.81292134  0.53719910  0.39020708
   0.43732408  0.11732592  0.16878878
   0.31236623  0.53406942  0.12669173
   0.18753330  0.61859138  0.30184565
   0.43694257  0.29237461  0.87341367
   0.81248224  0.87727034  0.78634624
   0.18749812  0.78485162  0.25776864
   0.93750483  0.78481236  0.25775562
   0.06254813  0.54134820  0.60980116
   0.06249447  0.70265171  0.34631342
   0.06258540  0.04121183  0.60976616
   0.56249570  0.36756189  0.16888221
   0.68752184  0.62073402  0.43490835
   0.31234667  0.70293525  0.34628249
   0.06250095  0.36853110  0.30180344
   0.43738124  0.12045464  0.43485704
   0.18712869  0.12647516  0.78635111
   0.93727846  0.11873349  0.30186181
   0.68708078  0.61785209  0.16878911
   0.31253773  0.03461026  0.12663742
   0.31271915  0.03479176  0.25772753
   0.06329335  0.54412616  0.87326603
   0.18776613  0.29267440  0.87346544
   0.06243863  0.87267439  0.52132570
   0.93815314  0.12229119  0.52122545
   0.43763374  0.79302025  0.74223418
   0.93724069  0.28713820  0.39025374
   0.68750083  0.95637377  0.56516681
   0.81332288  0.86896967  0.30173987
   0.06245994  0.03459806  0.12665603
   0.43773357  0.95698505  0.56512934
   0.18769799  0.45956765  0.69820604
   0.31237360  0.20985883  0.69802479
   0.18748287  0.45285607  0.34629930
   0.43734803  0.79106036  0.60979164
   0.68834287  0.29202691  0.87326616
   0.06247389  0.86792057  0.16884750
   0.81261989  0.37502478  0.65375962
   0.68710252  0.45476360  0.47864526
   0.06244489  0.53417474  0.12668873
   0.43713159  0.28520946  0.12671167
   0.18767052  0.29129544  0.60984547
   0.93784682  0.45510682  0.47860288
   0.68784181  0.28522968  0.12670535
   0.31257706  0.70978688  0.83124381
   0.18743529  0.45133784  0.21362552
   0.31197765  0.36803296  0.16881713
   0.93762531  0.12506128  0.65370411
   0.93730468  0.29204595  0.87335917
   0.93738570  0.95103650  0.21356148
   0.56257938  0.54320001  0.74221835
   0.93761887  0.95295796  0.34628528
   0.31263896  0.87256485  0.52143425
   0.68726174  0.95957384  0.83118803
   0.43738942  0.29327416  0.74238987
   0.81244385  0.04152749  0.60969732
   0.56251100  0.04288921  0.74228690
   0.93702395  0.46056719  0.83119951
   0.56247950  0.03435671  0.12643994
   0.68733581  0.79105443  0.60980855
   0.68753296  0.28525677  0.25769556
   0.43770841  0.45489231  0.47860843
   0.06249225  0.53467741  0.25776304
   0.18753959  0.29318014  0.74231328
   0.31240917  0.70681828  0.56516345
   0.56262787  0.54076762  0.60981850
   0.81247761  0.87101390  0.43476787
   0.31264080  0.37516462  0.65378262
   0.81271285  0.70890528  0.83124607
   0.06289458  0.37611663  0.78624827
   0.93738587  0.62074259  0.43482149
   0.81248080  0.37341278  0.52133108
   0.06226258  0.70693649  0.56508016
   0.06219740  0.37060172  0.43484819
   0.93733341  0.96036451  0.83113301
   0.18688959  0.78497817  0.12671947
   0.56222430  0.70492244  0.47870044
   0.06242956  0.86870530  0.30185576
   0.18771460  0.11872530  0.30188562
   0.06233182  0.37251012  0.52137125
   0.06253057  0.20291049  0.34632439
   0.81251694  0.70894255  0.69813137
   0.81264525  0.20698721  0.56486001
   0.68750653  0.95411914  0.47867833
   0.06215662  0.37524279  0.65371614
   0.81247614  0.20897795  0.69818383
   0.43762978  0.95476625  0.47864757
   0.81214812  0.20302837  0.34639555
   0.93753361  0.45131007  0.21361808
   0.56286929  0.70697064  0.56513296
   0.18722629  0.95689522  0.56509851
   0.43841173  0.79270579  0.87356590
   0.81276207  0.04368956  0.87340826
   0.31276481  0.20303849  0.34638311
   0.81259457  0.03722455  0.39028374
   0.68702559  0.95924925  0.69825632
   0.56209955  0.87260592  0.52139038
   0.68770359  0.62631204  0.78631017
   0.56263562  0.37101849  0.43471412
   0.81255668  0.53407756  0.12668853
   0.56264314  0.37257395  0.52140433
   0.31233556  0.04117154  0.60982126
   0.43769314  0.78530820  0.12652800
   0.93779102  0.45715991  0.56527262
   0.81256920  0.70279940  0.34629973
   0.31240046  0.54076211  0.60970979
   0.81301464  0.36802066  0.16881835
   0.56240292  0.87510717  0.65371160
   0.93778276  0.12680057  0.78647918
   0.18770432  0.12507764  0.65374224
   0.68750896  0.79236198  0.74231809
   0.93761237  0.28487124  0.12664710
   0.56174443  0.54413603  0.87349345
   0.43752004  0.45685531  0.56510633
   0.43730464  0.12214341  0.52137554
   0.56235482  0.20709772  0.56527467
   0.18727585  0.95295937  0.34632757
   0.68766870  0.28640658  0.39020465
   0.56242494  0.70301328  0.34628392
   0.06279614  0.20550073  0.47858444
   0.93746624  0.29164560  0.60984265
   0.43801514  0.95998947  0.83125024
   0.81245878  0.37656646  0.78646728
   0.43746593  0.28524519  0.25769551
   0.18738055  0.62511144  0.65366376
   0.81223602  0.87515495  0.65372060
   0.06235120  0.70908903  0.69807577
   0.43743783  0.45131705  0.21352219
   0.93730966  0.95473151  0.47856043
   0.68721415  0.45877755  0.69810962
   0.43724840  0.62636816  0.78628781
   0.56240212  0.20268783  0.34624508
   0.81234765  0.86814104  0.16871266
   0.43769425  0.29106457  0.60989090
   0.56271886  0.04313115  0.87339190
   0.93742702  0.61856219  0.30184489
   0.56286633  0.87726787  0.78633403
   0.81237853  0.03466410  0.12663578
   0.31247809  0.54335448  0.74232602
   0.81277844  0.87291158  0.52130630
   0.68739718  0.78699413  0.39020250
   0.93804261  0.78499616  0.12671355
   0.43790406  0.61787803  0.16878800
   0.06247935  0.20105265  0.21358402
   0.43757747  0.78488941  0.25768606
   0.93757220  0.11832852  0.16891363
   0.68772114  0.95280181  0.34625330
   0.68774911  0.95144261  0.21359314
   0.18665017  0.79295055  0.87333291
   0.81230440  0.03475227  0.25773370
   0.06253176  0.04357915  0.87343376
   0.56248907  0.53491105  0.12664679
   0.56249879  0.86898058  0.30181177
   0.31258846  0.20709097  0.56511785
   0.68776480  0.12500414  0.65370436
   0.06250574  0.03484135  0.25767641
   0.31207994  0.20922142  0.83175293
   0.56249552  0.36931638  0.30175483
   0.81277762  0.54325040  0.87307495
   0.56298849  0.70951186  0.83190575
   0.93719259  0.95929512  0.69816363
   0.68730759  0.12248131  0.52127004
   0.31288924  0.87661235  0.78620900
   0.56251094  0.86782954  0.16822790
   0.81257916  0.20513098  0.47874226
   0.93747596  0.79160434  0.60986137
   0.56238607  0.03638395  0.39010150
Direct configuration=     3
   0.43728236  0.95146395  0.21359407
   0.18756921  0.62063912  0.43479773
   0.68725031  0.29115735  0.60980710
   0.18732851  0.28486639  0.12666022
   0.68759564  0.45134282  0.21352441
   0.31260079  0.37273044  0.52134525
   0.56248925  0.20142298  0.21347413
   0.06253529  0.20896292  0.69816022
   0.93739491  0.61786679  0.16888159
   0.43729543  0.95289925  0.34631342
   0.43744492  0.62057291  0.43484265
   0.68734868  0.12073971  0.43511509
   0.81262083  0.37134252  0.43477433
   0.81266558  0.20107114  0.21348356
   0.56250014  0.53496444  0.25781387
   0.18786191  0.95930012  0.69820952
   0.68741770  0.78490161  0.25768715
   0.43789863  0.12638544  0.78642474
   0.68768876  0.11896016  0.30180627
   0.18754169  0.62640121  0.78641897
   0.68725921  0.12706304  0.78652617
   0.31265134  0.54233815  0.87335612
   0.43695443  0.46034938  0.83115498
   0.06221386  0.87671007  0.78641013
   0.68722543  0.45736027  0.56520091
   0.06275805  0.87490428  0.65370409
   0.81210935  0.53484868  0.25772659
   0.31248610  0.04329392  0.74225482
   0.81247678  0.54134458  0.60976493
   0.93766431  0.95660433  0.56515433
   0.18762843  0.95113068  0.21356698
   0.18728300  0.12265559  0.52136554
   0.31244766  0.70492567  0.47863228
   0.31202075  0.53680381  0.39027853
   0.68825702  0.46096622  0.83131071
   0.68746079  0.62556701  0.65367793
   0.81285063  0.36883629  0.30185833
   0.06264016  0.04278930  0.74233715
   0.18746732  0.62257403  0.52130017
   0.43747629  0.78666790  0.39022449
   0.93750083  0.29294935  0.74222556
   0.18739957  0.79326988  0.74227873
   0.31168666  0.86878703  0.30171699
   0.31217835  0.03691380  0.39029113
   0.43722934  0.62500107  0.65367194
   0.06257962  0.87090698  0.43484076
   0.56191997  0.20563997  0.47867014
   0.06276650  0.70507068  0.47860283
   0.18748391  0.28720417  0.39024790
   0.68754001  0.29283320  0.74228201
   0.81252228  0.54257595  0.74231901
   0.93744892  0.45291767  0.34626193
   0.18744575  0.28480733  0.25775243
   0.31248200  0.87087331  0.43489692
   0.31240585  0.70898614  0.69809394
   0.31267976  0.70122423  0.21351811
   0.81243259  0.70690067  0.56503019
   0.93752154  0.62619040  0.78644951
   0.31261492  0.37687625  0.78629600
   0.93751349  0.45878081  0.69821467
   0.31249277  0.20496904  0.47873043
   0.56222551  0.87079843  0.43475049
   0.06243318  0.53711551  0.39014267
   0.31264881  0.87460580  0.65373295
   0.43738066  0.45938163  0.69815719
   0.06262960  0.03692802  0.39015471
   0.68765209  0.11730641  0.16877895
   0.56250194  0.70128023  0.21348218
   0.43727061  0.61896854  0.30186533
   0.81252336  0.70502732  0.47862638
   0.93873540  0.79289523  0.87332584
   0.31241712  0.37077668  0.43490604
   0.43761458  0.95938011  0.69813111
   0.93774015  0.62254244  0.52130176
   0.43705693  0.12524247  0.65376976
   0.43725971  0.11888843  0.30184001
   0.81244990  0.04266460  0.74238419
   0.68673473  0.79300545  0.87352783
   0.06248632  0.36847683  0.16881905
   0.68749018  0.45307403  0.34628063
   0.93784636  0.12061240  0.43471424
   0.56241572  0.20968287  0.83112404
   0.81305024  0.21044420  0.83139850
   0.43743923  0.28647423  0.39021850
   0.06247252  0.70130371  0.21357230
   0.18714973  0.45518023  0.47859088
   0.18739382  0.11833678  0.16889096
   0.56256112  0.37525790  0.65377716
   0.81230340  0.70121899  0.21351220
   0.06231099  0.20709903  0.56521324
   0.93751652  0.79262504  0.74226048
   0.68769331  0.61894282  0.30185869
   0.18744395  0.12063735  0.43483679
   0.06279924  0.20927828  0.83114323
   0.18753892  0.45696664  0.56512822
   0.18740460  0.95482376  0.47860644
   0.31262352  0.86818208  0.16869524
   0.43742295  0.45311621  0.34629418
   0.68748136  0.62246971  0.52132890
   0.56223814  0.37644042  0.78627597
   0.43727811  0.62242388  0.52132284
   0.31210861  0.36885709  0.30187090
   0.18795739  0.79096145  0.60968528
   0.56250285  0.53639013  0.39028519
   0.31231713  0.20108826  0.21349014
   0.06243497  0.54300577  0.74222667
   0.18755797  0.78663388  0.39019233
   0.93738889  0.78689281  0.39018921
   0.18808452  0.45932034  0.83111908
   0.31287449  0.53481148  0.25772343
   0.56254565  0.04151520  0.60977023
   0.93797159  0.62550539  0.65379108
   0.06160451  0.70956080  0.83129946
   0.56251213  0.03499280  0.25778023
   0.31250007  0.04406446  0.87350459
   0.18763672  0.96049231  0.83126176
   0.93756834  0.28483632  0.25774926
   0.68724810  0.78531201  0.12652952
   0.56257226  0.20923810  0.69820759
   0.56283479  0.70867910  0.69802007
   0.18758144  0.61786705  0.16888207
   0.81289172  0.53721079  0.39020876
   0.43732789  0.11730286  0.16877501
   0.31236268  0.53409290  0.12669297
   0.18752910  0.61861930  0.30184667
   0.43691879  0.29237799  0.87341321
   0.81247761  0.87724666  0.78633882
   0.18749876  0.78488262  0.25776605
   0.93751185  0.78484177  0.25775572
   0.06255126  0.54131123  0.60980226
   0.06249449  0.70266225  0.34630984
   0.06258986  0.04117028  0.60976327
   0.56248691  0.36755994  0.16887246
   0.68749757  0.62078300  0.43489804
   0.31235444  0.70292069  0.34627730
   0.06249228  0.36855351  0.30180758
   0.43737251  0.12047625  0.43484289
   0.18713273  0.12642246  0.78635382
   0.93726200  0.11873541  0.30186583
   0.68704456  0.61786038  0.16876913
   0.31254305  0.03463349  0.12663922
   0.31271520  0.03485528  0.25772981
   0.06329412  0.54415096  0.87326564
   0.18780953  0.29265250  0.87346228
   0.06241512  0.87270079  0.52132753
   0.93820735  0.12220994  0.52121880
   0.43761891  0.79299834  0.74223417
   0.93724301  0.28716251  0.39025894
   0.68749508  0.95629295  0.56517217
   0.81330475  0.86894129  0.30174317
   0.06246161  0.03457804  0.12665747
   0.43772488  0.95694919  0.56513695
   0.18771622  0.45955487  0.69820390
   0.31237932  0.20985120  0.69801998
   0.18749634  0.45285418  0.34629247
   0.43733353  0.79102244  0.60978473
   0.68834730  0.29203888  0.87326950
   0.06248784  0.86792522  0.16883096
   0.81262125  0.37502445  0.65376248
   0.68718179  0.45466778  0.47864292
   0.06245403  0.53423242  0.12668023
   0.43715709  0.28521430  0.12671379
   0.18765487  0.29126847  0.60984332
   0.93786933  0.45512463  0.47860721
   0.68780460  0.28522796  0.12671226
   0.31262604  0.70976330  0.83126162
   0.18747906  0.45136653  0.21362797
   0.31197910  0.36804323  0.16880477
   0.93765777  0.12502075  0.65370258
   0.93725634  0.29205413  0.87335890
   0.93737903  0.95111711  0.21356879
   0.56256360  0.54317673  0.74221393
   0.93761886  0.95291528  0.34628344
   0.31264873  0.87261679  0.52143782
   0.68723462  0.95955425  0.83121207
   0.43741375  0.29327804  0.74238130
   0.81246186  0.04150847  0.60969839
   0.56250192  0.04289538  0.74228964
   0.93699131  0.46057214  0.83121754
   0.56247570  0.03438605  0.12645228
   0.68735040  0.79101977  0.60980574
   0.68751335  0.28530486  0.25770895
   0.43771523  0.45495016  0.47860234
   0.06250194  0.53473795  0.25776279
   0.18756452  0.29313089  0.74230912
   0.31241343  0.70679142  0.56516866
   0.56262907  0.54073803  0.60981765
   0.81246241  0.87106173  0.43475820
   0.31260379  0.37519550  0.65378205
   0.81267935  0.70888208  0.83126755
   0.06289498  0.37605765  0.78624028
   0.93737681  0.62078236  0.43481505
   0.81243269  0.37347627  0.52132222
   0.06227291  0.70689625  0.56508244
   0.06220110  0.37063046  0.43484708
   0.93733744  0.96034468  0.83114732
   0.18687786  0.78496218  0.12671713
   0.56216011  0.70497994  0.47869714
   0.06243453  0.86870227  0.30186128
   0.18772902  0.11870665  0.30188724
   0.06237167  0.37256407  0.52136674
   0.06254097  0.20288257  0.34631814
   0.81252843  0.70895949  0.69812355
   0.81262985  0.20696025  0.56486420
   0.68750567  0.95417270  0.47867016
   0.06217123  0.37526080  0.65371772