 288 288   0   0
  0.1280206E+02  0.9726678E-09  0.8423550E-09  0.4500000E-08  0.2500000E-15
  1.000000000000000E-004
  CAR 
 unknown system                          
      6.78992136     -6.04325646  301      4.31358407      1.00000000
     -6.043  0.0000E+00  0.0000E+00
     -6.000  0.0000E+00  0.0000E+00
     -5.958  0.0000E+00  0.0000E+00
     -5.915  0.0000E+00  0.0000E+00
     -5.872  0.0000E+00  0.0000E+00
     -5.829  0.0000E+00  0.0000E+00
     -5.787  0.0000E+00  0.0000E+00
     -5.744  0.0000E+00  0.0000E+00
     -5.701  0.0000E+00  0.0000E+00
     -5.658  0.0000E+00  0.0000E+00
     -5.615  0.0000E+00  0.0000E+00
     -5.573  0.0000E+00  0.0000E+00
     -5.530  0.0000E+00  0.0000E+00
     -5.487  0.0000E+00  0.0000E+00
     -5.444  0.0000E+00  0.0000E+00
     -5.402  0.1622E-15  0.6939E-17
     -5.359  0.4153E-14  0.1846E-15
     -5.316  0.8912E-13  0.3997E-14
     -5.273  0.1625E-11  0.7353E-13
     -5.230  0.2525E-10  0.1154E-11
     -5.188  0.3339E-09  0.1544E-10
     -5.145  0.3760E-08  0.1763E-09
     -5.102  0.3608E-07  0.1720E-08
     -5.059  0.2950E-06  0.1434E-07
     -5.017  0.2057E-05  0.1023E-06
     -4.974  0.1224E-04  0.6259E-06
     -4.931  0.6226E-04  0.3289E-05
     -4.888  0.2712E-03  0.1489E-04
     -4.845  0.1015E-02  0.5833E-04
     -4.803  0.3281E-02  0.1987E-03
     -4.760  0.9217E-02  0.5930E-03
     -4.717  0.2271E-01  0.1564E-02
     -4.674  0.4964E-01  0.3688E-02
     -4.632  0.9757E-01  0.7861E-02
     -4.589  0.1747E+00  0.1534E-01
     -4.546  0.2882E+00  0.2766E-01
     -4.503  0.4414E+00  0.4654E-01
     -4.460  0.6315E+00  0.7356E-01
     -4.418  0.8482E+00  0.1098E+00
     -4.375  0.1074E+01  0.1558E+00
     -4.332  0.1289E+01  0.2110E+00
     -4.289  0.1473E+01  0.2740E+00
     -4.247  0.1614E+01  0.3430E+00
     -4.204  0.1712E+01  0.4163E+00
     -4.161  0.1784E+01  0.4926E+00
     -4.118  0.1855E+01  0.5720E+00
     -4.076  0.1953E+01  0.6555E+00
     -4.033  0.2099E+01  0.7453E+00
     -3.990  0.2298E+01  0.8436E+00
     -3.947  0.2534E+01  0.9520E+00
     -3.904  0.2773E+01  0.1071E+01
     -3.862  0.2977E+01  0.1198E+01
     -3.819  0.3111E+01  0.1331E+01
     -3.776  0.3162E+01  0.1466E+01
     -3.733  0.3142E+01  0.1601E+01
     -3.691  0.3088E+01  0.1733E+01
     -3.648  0.3049E+01  0.1863E+01
     -3.605  0.3067E+01  0.1994E+01
     -3.562  0.3166E+01  0.2130E+01
     -3.519  0.3342E+01  0.2273E+01
     -3.477  0.3569E+01  0.2426E+01
     -3.434  0.3806E+01  0.2588E+01
     -3.391  0.4008E+01  0.2760E+01
     -3.348  0.4146E+01  0.2937E+01
     -3.306  0.4208E+01  0.3117E+01
     -3.263  0.4208E+01  0.3297E+01
     -3.220  0.4180E+01  0.3476E+01
     -3.177  0.4171E+01  0.3654E+01
     -3.134  0.4226E+01  0.3835E+01
     -3.092  0.4367E+01  0.4022E+01
     -3.049  0.4584E+01  0.4218E+01
     -3.006  0.4843E+01  0.4425E+01
     -2.963  0.5094E+01  0.4643E+01
     -2.921  0.5285E+01  0.4869E+01
     -2.878  0.5387E+01  0.5100E+01
     -2.835  0.5402E+01  0.5331E+01
     -2.792  0.5372E+01  0.5561E+01
     -2.749  0.5359E+01  0.5790E+01
     -2.707  0.5404E+01  0.6021E+01
     -2.664  0.5502E+01  0.6256E+01
     -2.621  0.5600E+01  0.6496E+01
     -2.578  0.5640E+01  0.6737E+01
     -2.536  0.5607E+01  0.6977E+01
     -2.493  0.5555E+01  0.7215E+01
     -2.450  0.5585E+01  0.7454E+01
     -2.407  0.5792E+01  0.7701E+01
     -2.364  0.6204E+01  0.7967E+01
     -2.322  0.6746E+01  0.8255E+01
     -2.279  0.7251E+01  0.8565E+01
     -2.236  0.7537E+01  0.8888E+01
     -2.193  0.7510E+01  0.9209E+01
     -2.151  0.7233E+01  0.9518E+01
     -2.108  0.6904E+01  0.9814E+01
     -2.065  0.6749E+01  0.1010E+02
     -2.022  0.6910E+01  0.1040E+02
     -1.979  0.7373E+01  0.1071E+02
     -1.937  0.7989E+01  0.1106E+02
     -1.894  0.8546E+01  0.1142E+02
     -1.851  0.8871E+01  0.1180E+02
     -1.808  0.8916E+01  0.1218E+02
     -1.766  0.8775E+01  0.1256E+02
     -1.723  0.8621E+01  0.1293E+02
     -1.680  0.8595E+01  0.1329E+02
     -1.637  0.8739E+01  0.1367E+02
     -1.594  0.9007E+01  0.1405E+02
     -1.552  0.9320E+01  0.1445E+02
     -1.509  0.9624E+01  0.1486E+02
     -1.466  0.9900E+01  0.1529E+02
     -1.423  0.1015E+02  0.1572E+02
     -1.381  0.1036E+02  0.1616E+02
     -1.338  0.1053E+02  0.1661E+02
     -1.295  0.1070E+02  0.1707E+02
     -1.252  0.1097E+02  0.1754E+02
     -1.209  0.1151E+02  0.1803E+02
     -1.167  0.1238E+02  0.1856E+02
     -1.124  0.1347E+02  0.1914E+02
     -1.081  0.1451E+02  0.1976E+02
     -1.038  0.1521E+02  0.2041E+02
     -0.996  0.1547E+02  0.2107E+02
     -0.953  0.1550E+02  0.2174E+02
     -0.910  0.1568E+02  0.2241E+02
     -0.867  0.1638E+02  0.2311E+02
     -0.824  0.1775E+02  0.2387E+02
     -0.782  0.1970E+02  0.2471E+02
     -0.739  0.2208E+02  0.2565E+02
     -0.696  0.2491E+02  0.2672E+02
     -0.653  0.2829E+02  0.2793E+02
     -0.611  0.3231E+02  0.2931E+02
     -0.568  0.3678E+02  0.3089E+02
     -0.525  0.4121E+02  0.3265E+02
     -0.482  0.4510E+02  0.3458E+02
     -0.439  0.4816E+02  0.3664E+02
     -0.397  0.5044E+02  0.3880E+02
     -0.354  0.5221E+02  0.4103E+02
     -0.311  0.5375E+02  0.4333E+02
     -0.268  0.5515E+02  0.4569E+02
     -0.226  0.5632E+02  0.4810E+02
     -0.183  0.5712E+02  0.5054E+02
     -0.140  0.5751E+02  0.5300E+02
     -0.097  0.5762E+02  0.5546E+02
     -0.054  0.5771E+02  0.5793E+02
     -0.012  0.5804E+02  0.6042E+02
      0.031  0.5881E+02  0.6293E+02
      0.074  0.6018E+02  0.6551E+02
      0.117  0.6226E+02  0.6817E+02
      0.159  0.6503E+02  0.7095E+02
      0.202  0.6830E+02  0.7387E+02
      0.245  0.7172E+02  0.7694E+02
      0.288  0.7498E+02  0.8015E+02
      0.331  0.7786E+02  0.8348E+02
      0.373  0.8029E+02  0.8691E+02
      0.416  0.8231E+02  0.9043E+02
      0.459  0.8396E+02  0.9403E+02
      0.502  0.8523E+02  0.9767E+02
      0.544  0.8607E+02  0.1014E+03
      0.587  0.8646E+02  0.1051E+03
      0.630  0.8638E+02  0.1087E+03
      0.673  0.8586E+02  0.1124E+03
      0.716  0.8490E+02  0.1161E+03
      0.758  0.8347E+02  0.1196E+03
      0.801  0.8165E+02  0.1231E+03
      0.844  0.7970E+02  0.1265E+03
      0.887  0.7800E+02  0.1299E+03
      0.929  0.7684E+02  0.1331E+03
      0.972  0.7622E+02  0.1364E+03
      1.015  0.7590E+02  0.1397E+03
      1.058  0.7557E+02  0.1429E+03
      1.101  0.7499E+02  0.1461E+03
      1.143  0.7418E+02  0.1493E+03
      1.186  0.7342E+02  0.1524E+03
      1.229  0.7304E+02  0.1555E+03
      1.272  0.7317E+02  0.1587E+03
      1.314  0.7359E+02  0.1618E+03
      1.357  0.7378E+02  0.1650E+03
      1.400  0.7327E+02  0.1681E+03
      1.443  0.7194E+02  0.1712E+03
      1.486  0.7018E+02  0.1742E+03
      1.528  0.6865E+02  0.1771E+03
      1.571  0.6793E+02  0.1800E+03
      1.614  0.6828E+02  0.1829E+03
      1.657  0.6965E+02  0.1859E+03
      1.699  0.7174E+02  0.1890E+03
      1.742  0.7416E+02  0.1922E+03
      1.785  0.7661E+02  0.1954E+03
      1.828  0.7888E+02  0.1988E+03
      1.871  0.8093E+02  0.2023E+03
      1.913  0.8277E+02  0.2058E+03
      1.956  0.8447E+02  0.2094E+03
      1.999  0.8610E+02  0.2131E+03
      2.042  0.8772E+02  0.2169E+03
      2.084  0.8931E+02  0.2207E+03
      2.127  0.9083E+02  0.2246E+03
      2.170  0.9230E+02  0.2285E+03
      2.213  0.9375E+02  0.2325E+03
      2.256  0.9535E+02  0.2366E+03
      2.298  0.9735E+02  0.2408E+03
      2.341  0.1000E+03  0.2451E+03
      2.384  0.1035E+03  0.2495E+03
      2.427  0.1077E+03  0.2541E+03
      2.469  0.1122E+03  0.2589E+03
      2.512  0.1167E+03  0.2639E+03
      2.555  0.1208E+03  0.2691E+03
      2.598  0.1241E+03  0.2744E+03
      2.641  0.1264E+03  0.2798E+03
      2.683  0.1278E+03  0.2852E+03
      2.726  0.1284E+03  0.2907E+03
      2.769  0.1289E+03  0.2962E+03
      2.812  0.1299E+03  0.3018E+03
      2.854  0.1320E+03  0.3074E+03
      2.897  0.1350E+03  0.3132E+03
      2.940  0.1384E+03  0.3191E+03
      2.983  0.1408E+03  0.3252E+03
      3.026  0.1405E+03  0.3312E+03
      3.068  0.1367E+03  0.3370E+03
      3.111  0.1296E+03  0.3426E+03
      3.154  0.1205E+03  0.3477E+03
      3.197  0.1111E+03  0.3525E+03
      3.239  0.1031E+03  0.3569E+03
      3.282  0.9717E+02  0.3610E+03
      3.325  0.9352E+02  0.3650E+03
      3.368  0.9176E+02  0.3690E+03
      3.411  0.9120E+02  0.3729E+03
      3.453  0.9102E+02  0.3768E+03
      3.496  0.9048E+02  0.3806E+03
      3.539  0.8913E+02  0.3844E+03
      3.582  0.8710E+02  0.3882E+03
      3.624  0.8505E+02  0.3918E+03
      3.667  0.8388E+02  0.3954E+03
      3.710  0.8425E+02  0.3990E+03
      3.753  0.8619E+02  0.4027E+03
      3.796  0.8912E+02  0.4065E+03
      3.838  0.9223E+02  0.4104E+03
      3.881  0.9494E+02  0.4145E+03
      3.924  0.9710E+02  0.4187E+03
      3.967  0.9886E+02  0.4229E+03
      4.009  0.1004E+03  0.4272E+03
      4.052  0.1017E+03  0.4315E+03
      4.095  0.1026E+03  0.4359E+03
      4.138  0.1029E+03  0.4403E+03
      4.181  0.1024E+03  0.4447E+03
      4.223  0.1013E+03  0.4490E+03
      4.266  0.9990E+02  0.4533E+03
      4.309  0.9870E+02  0.4575E+03
      4.352  0.9802E+02  0.4617E+03
      4.394  0.9798E+02  0.4659E+03
      4.437  0.9848E+02  0.4701E+03
      4.480  0.9918E+02  0.4744E+03
      4.523  0.9965E+02  0.4786E+03
      4.566  0.9960E+02  0.4829E+03
      4.608  0.9903E+02  0.4871E+03
      4.651  0.9827E+02  0.4913E+03
      4.694  0.9786E+02  0.4955E+03
      4.737  0.9831E+02  0.4997E+03
      4.779  0.9987E+02  0.5040E+03
      4.822  0.1024E+03  0.5084E+03
      4.865  0.1056E+03  0.5129E+03
      4.908  0.1088E+03  0.5176E+03
      4.950  0.1117E+03  0.5223E+03
      4.993  0.1134E+03  0.5272E+03
      5.036  0.1132E+03  0.5320E+03
      5.079  0.1100E+03  0.5367E+03
      5.122  0.1027E+03  0.5411E+03
      5.164  0.9074E+02  0.5450E+03
      5.207  0.7483E+02  0.5482E+03
      5.250  0.5678E+02  0.5506E+03
      5.293  0.3917E+02  0.5523E+03
      5.335  0.2432E+02  0.5533E+03
      5.378  0.1347E+02  0.5539E+03
      5.421  0.6620E+01  0.5542E+03
      5.464  0.2869E+01  0.5543E+03
      5.507  0.1092E+01  0.5544E+03
      5.549  0.3639E+00  0.5544E+03
      5.592  0.1059E+00  0.5544E+03
      5.635  0.2684E-01  0.5544E+03
      5.678  0.5916E-02  0.5544E+03
      5.720  0.1131E-02  0.5544E+03
      5.763  0.1874E-03  0.5544E+03
      5.806  0.2684E-04  0.5544E+03
      5.849  0.3320E-05  0.5544E+03
      5.892  0.3541E-06  0.5544E+03
      5.934  0.3253E-07  0.5544E+03
      5.977  0.2569E-08  0.5544E+03
      6.020  0.1744E-09  0.5544E+03
      6.063  0.1016E-10  0.5544E+03
      6.105  0.5061E-12  0.5544E+03
      6.148  0.2037E-13  0.5544E+03
      6.191  0.3244E-15  0.5544E+03
      6.234  0.0000E+00  0.5544E+03
      6.277  0.0000E+00  0.5544E+03
      6.319  0.0000E+00  0.5544E+03
      6.362  0.0000E+00  0.5544E+03
      6.405  0.0000E+00  0.5544E+03
      6.448  0.0000E+00  0.5544E+03
      6.490  0.0000E+00  0.5544E+03
      6.533  0.0000E+00  0.5544E+03
      6.576  0.0000E+00  0.5544E+03
      6.619  0.0000E+00  0.5544E+03
      6.662  0.0000E+00  0.5544E+03
      6.704  0.0000E+00  0.5544E+03
      6.747  0.0000E+00  0.5544E+03
      6.790  0.0000E+00  0.5544E+03
