<?xml version="1.0" encoding="ISO-8859-1"?>
<modeling>
 <generator>
  <i name="program" type="string">vasp </i>
  <i name="version" type="string">5.4.4.18Apr17-6-g9f103f2a35  </i>
  <i name="subversion" type="string">(build Sep 27 2018 12:46:37) complex + VL-xray_ parallel </i>
  <i name="platform" type="string">LLNL_Quartz_ifc </i>
  <i name="date" type="string">2021 09 26 </i>
  <i name="time" type="string">22:03:35 </i>
 </generator>
 <incar>
  <i type="int" name="ISTART">     2</i>
  <i type="string" name="PREC">accurate</i>
  <i type="string" name="ALGO"> Fast</i>
  <i type="int" name="ICHARG">     2</i>
  <i type="int" name="INIWAV">     1</i>
  <i type="int" name="NELM">   100</i>
  <i type="int" name="NELMIN">     4</i>
  <i type="int" name="IBRION">     2</i>
  <i name="EDIFF">      0.00000100</i>
  <i type="int" name="NSW">     5</i>
  <i type="int" name="ISIF">     2</i>
  <i type="int" name="ISYM">     2</i>
  <i name="ENCUT">    450.00000000</i>
  <i name="POTIM">      0.25000000</i>
  <i type="string" name="LREAL"> Auto</i>
  <i type="int" name="ISMEAR">     0</i>
  <i name="SIGMA">      0.15000000</i>
  <i type="logical" name="LWAVE"> F  </i>
  <i type="logical" name="LCHARG"> F  </i>
  <i type="int" name="ICORELEVEL">     0</i>
  <i type="int" name="CLNT">     1</i>
  <i type="int" name="CLN">     1</i>
  <i type="int" name="INCAR     ">     0</i>
  <i name="CLZ">      0.00000000</i>
  <v type="int" name="KPOINT_BSE">    -1     0     0     0</v>
  <i type="int" name="NELM">   100</i>
 </incar>
 <structure name="primitive_cell" >
  <crystal>
   <varray name="basis" >
    <v>       9.72667804       0.00000000       0.00000000 </v>
    <v>       0.00000000       8.42355028       0.00000000 </v>
    <v>       0.00000000       0.00000000      45.00000000 </v>
   </varray>
   <i name="volume">   3686.99226691 </i>
   <varray name="rec_basis" >
    <v>       0.10281002       0.00000000       0.00000000 </v>
    <v>       0.00000000       0.11871479       0.00000000 </v>
    <v>       0.00000000       0.00000000       0.02222222 </v>
   </varray>
  </crystal>
  <varray name="positions" >
   <v>       0.06262090       0.03298937       0.12475836 </v>
   <v>       0.18557775       0.11449341       0.16682590 </v>
   <v>       0.06107597      -0.13276355       0.16729778 </v>
   <v>      -0.06405526      -0.21034235       0.12493761 </v>
   <v>       0.18924901      -0.21206950       0.12455718 </v>
   <v>      -0.06546130       0.11655553       0.16770326 </v>
   <v>       0.31251346       0.03310898       0.12480887 </v>
   <v>      -0.18761699       0.03288741       0.12470720 </v>
   <v>       0.18740409       0.28959819       0.12500649 </v>
   <v>      -0.06284235       0.29060161       0.12482958 </v>
   <v>       0.31039810      -0.13342160       0.16633317 </v>
   <v>       0.06000755       0.36674221       0.16719444 </v>
   <v>      -0.18902190      -0.13314849       0.16741540 </v>
   <v>       0.43504126       0.11504319       0.16692570 </v>
   <v>      -0.06105528      -0.04256707       0.21215315 </v>
   <v>       0.31064383       0.36394861       0.16772931 </v>
   <v>       0.43515433      -0.21217327       0.12458460 </v>
   <v>       0.18727063      -0.38359320       0.16715950 </v>
   <v>       0.18812726      -0.04201583       0.21236073 </v>
   <v>      -0.31214163      -0.20918364       0.12492545 </v>
   <v>      -0.18930160       0.36710804       0.16698967 </v>
   <v>      -0.06414964      -0.38476646       0.16722723 </v>
   <v>      -0.31360039       0.11678980       0.16750184 </v>
   <v>       0.06312362       0.20678891       0.21221125 </v>
   <v>       0.06254144      -0.46729797       0.12496152 </v>
   <v>       0.43715526       0.28956532       0.12499147 </v>
   <v>      -0.31224556       0.29106657       0.12485881 </v>
   <v>       0.06415088      -0.29286075       0.21221456 </v>
   <v>      -0.18660471       0.20738779       0.21202002 </v>
   <v>       0.31315747      -0.46521695       0.12454643 </v>
   <v>      -0.18721377      -0.46693341       0.12467531 </v>
   <v>      -0.43744842       0.03316906       0.12481812 </v>
   <v>       0.31371705       0.20788108       0.21255711 </v>
   <v>      -0.18637013      -0.29273422       0.21202566 </v>
   <v>       0.43354446      -0.38283003       0.16723978 </v>
   <v>      -0.43913600      -0.13294088       0.16728071 </v>
   <v>       0.31349818      -0.29425455       0.21260468 </v>
   <v>      -0.31236071      -0.04274110       0.21220116 </v>
   <v>       0.43864536      -0.04169595       0.21239724 </v>
   <v>      -0.31384090      -0.38507447       0.16723191 </v>
   <v>      -0.06152152       0.45800000       0.21245024 </v>
   <v>       0.18819712       0.45805616       0.21234730 </v>
   <v>       0.05944965       0.04105368       0.25642754 </v>
   <v>      -0.43818681       0.36679818       0.16718035 </v>
   <v>       0.18445634      -0.20900465       0.25645282 </v>
   <v>       0.31012327       0.04040151       0.25618390 </v>
   <v>      -0.06568830      -0.20867890       0.25639676 </v>
   <v>      -0.43626137       0.20662994       0.21215064 </v>
   <v>       0.18445969       0.29129105       0.25642782 </v>
   <v>      -0.43678698      -0.46738077       0.12488415 </v>
   <v>      -0.19005259       0.04112804       0.25673383 </v>
   <v>      -0.06497744       0.29114645       0.25636849 </v>
   <v>      -0.31225753       0.45787376       0.21250770 </v>
   <v>       0.43850320       0.45804970       0.21236577 </v>
   <v>      -0.43690335      -0.29334981       0.21213248 </v>
   <v>       0.05994564      -0.45888984       0.25642653 </v>
   <v>       0.43440255      -0.20954755       0.25639951 </v>
   <v>      -0.31535219      -0.20864802       0.25633376 </v>
   <v>       0.43386210       0.29098617       0.25633081 </v>
   <v>      -0.31582529       0.29061540       0.25635352 </v>
   <v>       0.30987238      -0.45976460       0.25588243 </v>
   <v>      -0.19031673      -0.45925184       0.25636931 </v>
   <v>      -0.44009532       0.04100460       0.25632696 </v>
   <v>       0.06402315      -0.12513601       0.30071021 </v>
   <v>      -0.06063429       0.12441706       0.30061695 </v>
   <v>       0.19129247       0.12487606       0.30089179 </v>
   <v>      -0.18569050      -0.12450134       0.30063649 </v>
   <v>       0.31487822      -0.12550131       0.30059430 </v>
   <v>       0.06421294       0.37511920       0.30094070 </v>
   <v>      -0.44042294      -0.45965949       0.25629390 </v>
   <v>      -0.06070563      -0.37540490       0.30063879 </v>
   <v>      -0.30964096       0.12451949       0.30075505 </v>
   <v>       0.18952455      -0.37443168       0.30133663 </v>
   <v>       0.43895492       0.12510918       0.30074134 </v>
   <v>      -0.18564029       0.37513903       0.30066762 </v>
   <v>       0.31453214       0.37444247       0.30075724 </v>
   <v>      -0.30948049      -0.37512920       0.30062802 </v>
   <v>      -0.43389883      -0.12521409       0.30084439 </v>
   <v>       0.44061190      -0.37502197       0.30105639 </v>
   <v>      -0.43415961       0.37539202       0.30084268 </v>
   <v>      -0.06402728      -0.04571026       0.34534580 </v>
   <v>       0.18554870      -0.04474130       0.34545773 </v>
   <v>       0.06051399       0.20395488       0.34538264 </v>
   <v>       0.06043235      -0.29535501       0.34532264 </v>
   <v>       0.31046045       0.20459077       0.34537784 </v>
   <v>      -0.18917998       0.20500784       0.34537887 </v>
   <v>       0.31114343      -0.29535393       0.34520715 </v>
   <v>       0.43564144      -0.04581192       0.34537971 </v>
   <v>      -0.18985207      -0.29563670       0.34539037 </v>
   <v>      -0.31535871      -0.04619672       0.34529567 </v>
   <v>      -0.06464765       0.45392357       0.34528781 </v>
   <v>       0.18571491       0.45483107       0.34542914 </v>
   <v>      -0.43938489       0.20607925       0.34565357 </v>
   <v>      -0.31487427       0.45398189       0.34544913 </v>
   <v>       0.43560853       0.45471553       0.34577763 </v>
   <v>       0.06514263       0.03411668      -0.12513229 </v>
   <v>      -0.43983135      -0.29339271       0.34542415 </v>
   <v>       0.18766039      -0.20792023      -0.12465899 </v>
   <v>      -0.05924060      -0.21075950      -0.12490308 </v>
   <v>      -0.18516243       0.03660739      -0.12499301 </v>
   <v>       0.31555403       0.03703604      -0.12496895 </v>
   <v>       0.18876644       0.29227511      -0.12480290 </v>
   <v>      -0.06391684       0.29154509      -0.12513689 </v>
   <v>       0.06364493       0.04016269       0.38928538 </v>
   <v>       0.43768999      -0.20775839      -0.12474383 </v>
   <v>      -0.31403275      -0.20915411      -0.12473087 </v>
   <v>       0.06558297      -0.46164354      -0.12495387 </v>
   <v>       0.43757712       0.29241117      -0.12460105 </v>
   <v>      -0.31257256       0.29236627      -0.12481762 </v>
   <v>      -0.06120324      -0.20951121       0.38933842 </v>
   <v>       0.18837522      -0.21002985       0.38948744 </v>
   <v>      -0.18613396       0.04004217       0.38940125 </v>
   <v>       0.31350004       0.03959811       0.38945549 </v>
   <v>      -0.06136095       0.28985460       0.38936187 </v>
   <v>       0.18848839       0.29016603       0.38956282 </v>
   <v>       0.31486369      -0.46321015      -0.12445618 </v>
   <v>      -0.43613929       0.03511039      -0.12455131 </v>
   <v>      -0.18749193      -0.46377793      -0.12497764 </v>
   <v>       0.06381671      -0.45982410       0.38929503 </v>
   <v>      -0.31087740      -0.21046578       0.38932656 </v>
   <v>       0.43870866      -0.21015587       0.38948023 </v>
   <v>      -0.31196618       0.28982125       0.38926449 </v>
   <v>       0.43876379       0.29043153       0.38932213 </v>
   <v>       0.31358422      -0.45978787       0.38932377 </v>
   <v>      -0.18658603      -0.45983625       0.38951544 </v>
   <v>      -0.43626504       0.03967093       0.38940524 </v>
   <v>      -0.43677884      -0.46161078      -0.12475435 </v>
   <v>      -0.05960048      -0.03738987      -0.16702336 </v>
   <v>       0.18882029      -0.03912803      -0.16721331 </v>
   <v>       0.06483353       0.21173554      -0.16694874 </v>
   <v>       0.06243351      -0.28783450      -0.16702041 </v>
   <v>      -0.18419110       0.21228879      -0.16655447 </v>
   <v>       0.31373025       0.20923410      -0.16711338 </v>
   <v>      -0.43620271      -0.45959563       0.38934623 </v>
   <v>      -0.18630208      -0.28931531      -0.16718224 </v>
   <v>      -0.31220780      -0.03950331      -0.16730627 </v>
   <v>       0.43958888      -0.04104771      -0.16726988 </v>
   <v>      -0.06031993       0.46181307      -0.16681047 </v>
   <v>       0.31512161      -0.28924313      -0.16779055 </v>
   <v>       0.18909410       0.45950561      -0.16712310 </v>
   <v>       0.06270055      -0.12851253       0.43446207 </v>
   <v>       0.18784907       0.12144354       0.43444209 </v>
   <v>      -0.06322425       0.12335610       0.43486306 </v>
   <v>      -0.31006664       0.45998193      -0.16701576 </v>
   <v>       0.43854480       0.45916555      -0.16725462 </v>
   <v>      -0.43723589       0.20984617      -0.16761443 </v>
   <v>      -0.18776457      -0.12766676       0.43449379 </v>
   <v>       0.31195569      -0.12839372       0.43454994 </v>
   <v>       0.06227364       0.37178621       0.43441145 </v>
   <v>      -0.43564478      -0.29035478      -0.16714599 </v>
   <v>       0.18741263      -0.37752285       0.43457252 </v>
   <v>      -0.06243598      -0.37759251       0.43459860 </v>
   <v>      -0.31264147       0.12067732       0.43455270 </v>
   <v>       0.43729697       0.12101026       0.43462088 </v>
   <v>       0.31210566       0.37120441       0.43460564 </v>
   <v>      -0.18735268       0.37304516       0.43460390 </v>
   <v>      -0.31212776      -0.37814376       0.43440786 </v>
   <v>       0.43709269      -0.37909301       0.43454797 </v>
   <v>      -0.43737449      -0.12781286       0.43457284 </v>
   <v>      -0.43781633       0.37269079       0.43457879 </v>
   <v>       0.06252400      -0.13021142      -0.21216847 </v>
   <v>      -0.06201115       0.11816814      -0.21224184 </v>
   <v>       0.18738473       0.11775977      -0.21226265 </v>
   <v>       0.31318156      -0.13245938      -0.21228394 </v>
   <v>      -0.18816926      -0.13092824      -0.21235174 </v>
   <v>       0.06328046       0.36863835      -0.21226279 </v>
   <v>       0.18787380      -0.38217425      -0.21227097 </v>
   <v>       0.43807488       0.11800051      -0.21217521 </v>
   <v>      -0.06372213      -0.38148046      -0.21234063 </v>
   <v>       0.31272561       0.36861706      -0.21218784 </v>
   <v>      -0.18686497       0.36961617      -0.21217781 </v>
   <v>      -0.31385181       0.11748416      -0.21232372 </v>
   <v>      -0.43683262      -0.13082528      -0.21209539 </v>
   <v>       0.43631244      -0.38277544      -0.21213177 </v>
   <v>      -0.31147984      -0.38156637      -0.21217967 </v>
   <v>       0.18723562      -0.04399381       0.47859424 </v>
   <v>      -0.06259003      -0.04451427       0.47868604 </v>
   <v>       0.06272987       0.20571994       0.47867120 </v>
   <v>       0.06270943      -0.29416185       0.47860119 </v>
   <v>      -0.43835613       0.36757542      -0.21233390 </v>
   <v>       0.31244534       0.20585197       0.47863422 </v>
   <v>      -0.18805423       0.20591380       0.47869233 </v>
   <v>      -0.18775098      -0.29399893       0.47865273 </v>
   <v>       0.31297655      -0.29472194       0.47865891 </v>
   <v>       0.43755939      -0.04395532       0.47861932 </v>
   <v>      -0.31224909      -0.04397011       0.47863015 </v>
   <v>      -0.06257614       0.45563569       0.47861438 </v>
   <v>       0.18726032       0.45558620       0.47862800 </v>
   <v>      -0.43766342       0.20596764       0.47859831 </v>
   <v>       0.43741835       0.45566730       0.47865642 </v>
   <v>      -0.31251088       0.45562105       0.47872683 </v>
   <v>      -0.43781496      -0.29450981       0.47866480 </v>
   <v>       0.06314567       0.03752628      -0.25643899 </v>
   <v>      -0.06003414      -0.21163747      -0.25612642 </v>
   <v>      -0.18589768       0.03857812      -0.25630208 </v>
   <v>       0.18868939      -0.21171465      -0.25637992 </v>
   <v>       0.19009335       0.28904020      -0.25623470 </v>
   <v>       0.31299514       0.03920241      -0.25653104 </v>
   <v>      -0.06235882       0.28753706      -0.25655290 </v>
   <v>       0.06470556      -0.46123841      -0.25617117 </v>
   <v>      -0.31137744      -0.21139894      -0.25609610 </v>
   <v>      -0.31001804       0.28929447      -0.25624162 </v>
   <v>       0.43806158      -0.21194604      -0.25646994 </v>
   <v>       0.43823541       0.28963888      -0.25622580 </v>
   <v>      -0.43512392       0.03824464      -0.25612263 </v>
   <v>       0.31366883      -0.46219775      -0.25619545 </v>
   <v>      -0.18663549      -0.46227611      -0.25649007 </v>
   <v>       0.06220712      -0.12892629      -0.47869831 </v>
   <v>       0.18766012       0.12030516      -0.47876874 </v>
   <v>      -0.06296540       0.12093258      -0.47877793 </v>
   <v>       0.31161937      -0.12879145      -0.47875282 </v>
   <v>      -0.18803352      -0.12891724      -0.47872782 </v>
   <v>       0.06160886       0.37155447      -0.47865463 </v>
   <v>       0.18732310      -0.37873818      -0.47872607 </v>
   <v>      -0.06323267      -0.37863661      -0.47868592 </v>
   <v>       0.43723489       0.12128845      -0.47877851 </v>
   <v>      -0.31335396       0.12105389      -0.47877972 </v>
   <v>       0.31173244       0.37107045      -0.47873267 </v>
   <v>      -0.18716006       0.37107998      -0.47874156 </v>
   <v>      -0.43609928      -0.46054454      -0.25654650 </v>
   <v>       0.43689358      -0.37875631      -0.47870044 </v>
   <v>      -0.31328822      -0.37875507      -0.47875039 </v>
   <v>      -0.43697884      -0.12884872      -0.47869798 </v>
   <v>      -0.43804201       0.37119164      -0.47867219 </v>
   <v>       0.18736244      -0.04245948      -0.30071428 </v>
   <v>      -0.06290753      -0.04229363      -0.30074945 </v>
   <v>       0.06214636       0.20741395      -0.30073417 </v>
   <v>       0.06226339      -0.29286636      -0.30078938 </v>
   <v>      -0.18767518       0.20707040      -0.30070131 </v>
   <v>       0.31213518       0.20737802      -0.30074782 </v>
   <v>       0.31219495      -0.29259530      -0.30070161 </v>
   <v>      -0.18832985      -0.29292730      -0.30085234 </v>
   <v>      -0.31299943      -0.04240528      -0.30074850 </v>
   <v>       0.43693154      -0.04280290      -0.30090771 </v>
   <v>      -0.06289377       0.45775438      -0.30072643 </v>
   <v>       0.18683665       0.45747884      -0.30083750 </v>
   <v>      -0.43775993       0.20689300      -0.30083813 </v>
   <v>      -0.31295738       0.45755261      -0.30072618 </v>
   <v>       0.43694432       0.45711027      -0.30085713 </v>
   <v>      -0.06259947      -0.04247701      -0.43465465 </v>
   <v>       0.18726152      -0.04252777      -0.43460751 </v>
   <v>       0.06376582       0.20605767      -0.43446406 </v>
   <v>      -0.43830081      -0.29300763      -0.30077976 </v>
   <v>       0.06257409      -0.29392497      -0.43473576 </v>
   <v>      -0.18779515       0.20626399      -0.43483316 </v>
   <v>       0.31184180       0.20675577      -0.43460094 </v>
   <v>       0.43744782      -0.04336706      -0.43505231 </v>
   <v>       0.31272536      -0.29289244      -0.43460815 </v>
   <v>      -0.18779599      -0.29384356      -0.43463511 </v>
   <v>      -0.31169153      -0.04266470      -0.43459286 </v>
   <v>       0.18737948       0.45747029      -0.43466096 </v>
   <v>      -0.06210775       0.45709318      -0.43457630 </v>
   <v>      -0.43645052       0.20677089      -0.43452879 </v>
   <v>       0.43740703       0.45761838      -0.43471306 </v>
   <v>      -0.31285265       0.45717296      -0.43460684 </v>
   <v>      -0.43750885      -0.29289118      -0.43448776 </v>
   <v>      -0.06053135       0.12402062      -0.34521287 </v>
   <v>       0.06362162      -0.12786434      -0.34540746 </v>
   <v>       0.18936084       0.12287143      -0.34535906 </v>
   <v>      -0.18585025      -0.12732454      -0.34532013 </v>
   <v>       0.31434470      -0.12720444      -0.34540674 </v>
   <v>       0.06405437       0.37250412      -0.34540425 </v>
   <v>      -0.06093870      -0.37617331      -0.34539091 </v>
   <v>       0.18854260      -0.37737277      -0.34547345 </v>
   <v>      -0.18532339       0.37227656      -0.34530921 </v>
   <v>      -0.31142172       0.12291347      -0.34542116 </v>
   <v>       0.31496268       0.37322491      -0.34533655 </v>
   <v>       0.43918342       0.12299008      -0.34552705 </v>
   <v>      -0.31135975      -0.37700097      -0.34547038 </v>
   <v>      -0.43641465      -0.12718393      -0.34542196 </v>
   <v>       0.43894204      -0.37722105      -0.34547921 </v>
   <v>       0.06039425       0.03705409      -0.38951645 </v>
   <v>      -0.43533873       0.37272807      -0.34550874 </v>
   <v>       0.18594737       0.28750535      -0.38961816 </v>
   <v>      -0.18911712       0.03735509      -0.38953368 </v>
   <v>       0.18440980      -0.21245702      -0.38926981 </v>
   <v>       0.30952029       0.03785682      -0.38926433 </v>
   <v>      -0.06497637      -0.21256550      -0.38924134 </v>
   <v>      -0.06526030       0.28771741      -0.38932561 </v>
   <v>       0.43557996      -0.21172842      -0.38935987 </v>
   <v>       0.43486692       0.28775369      -0.38947561 </v>
   <v>       0.05956091      -0.46234621      -0.38930677 </v>
   <v>      -0.31543556      -0.21184619      -0.38929976 </v>
   <v>      -0.31512678       0.28802024      -0.38935451 </v>
   <v>       0.30980499      -0.46229125      -0.38926790 </v>
   <v>      -0.44005091       0.03819101      -0.38927822 </v>
   <v>      -0.19037600      -0.46275112      -0.38930604 </v>
   <v>      -0.43983504      -0.46177858      -0.38933177 </v>
  </varray>
 </structure>
 <varray name="primitive_index" >
  <v type="int" >        1 </v>
  <v type="int" >      125 </v>
  <v type="int" >       60 </v>
  <v type="int" >       44 </v>
  <v type="int" >       83 </v>
  <v type="int" >       26 </v>
  <v type="int" >      256 </v>
  <v type="int" >      202 </v>
  <v type="int" >      111 </v>
  <v type="int" >      155 </v>
  <v type="int" >      277 </v>
  <v type="int" >       51 </v>
  <v type="int" >      102 </v>
  <v type="int" >      182 </v>
  <v type="int" >      212 </v>
  <v type="int" >      108 </v>
  <v type="int" >      170 </v>
  <v type="int" >       20 </v>
  <v type="int" >      146 </v>
  <v type="int" >      163 </v>
  <v type="int" >      284 </v>
  <v type="int" >      104 </v>
  <v type="int" >      166 </v>
  <v type="int" >       50 </v>
  <v type="int" >      176 </v>
  <v type="int" >      117 </v>
  <v type="int" >      145 </v>
  <v type="int" >      250 </v>
  <v type="int" >      167 </v>
  <v type="int" >       91 </v>
  <v type="int" >      205 </v>
  <v type="int" >      114 </v>
  <v type="int" >      278 </v>
  <v type="int" >      213 </v>
  <v type="int" >      174 </v>
  <v type="int" >      192 </v>
  <v type="int" >      276 </v>
  <v type="int" >       92 </v>
  <v type="int" >      229 </v>
  <v type="int" >       97 </v>
  <v type="int" >      175 </v>
  <v type="int" >      189 </v>
  <v type="int" >      185 </v>
  <v type="int" >       30 </v>
  <v type="int" >      200 </v>
  <v type="int" >      179 </v>
  <v type="int" >       52 </v>
  <v type="int" >      103 </v>
  <v type="int" >      112 </v>
  <v type="int" >      164 </v>
  <v type="int" >       24 </v>
  <v type="int" >      127 </v>
  <v type="int" >      261 </v>
  <v type="int" >      139 </v>
  <v type="int" >      243 </v>
  <v type="int" >      168 </v>
  <v type="int" >      137 </v>
  <v type="int" >      118 </v>
  <v type="int" >      265 </v>
  <v type="int" >       58 </v>
  <v type="int" >      275 </v>
  <v type="int" >       81 </v>
  <v type="int" >      221 </v>
  <v type="int" >      214 </v>
  <v type="int" >      135 </v>
  <v type="int" >      215 </v>
  <v type="int" >       72 </v>
  <v type="int" >       98 </v>
  <v type="int" >      226 </v>
  <v type="int" >       28 </v>
  <v type="int" >      178 </v>
  <v type="int" >      109 </v>
  <v type="int" >      263 </v>
  <v type="int" >      159 </v>
  <v type="int" >      220 </v>
  <v type="int" >      242 </v>
  <v type="int" >      130 </v>
  <v type="int" >      210 </v>
  <v type="int" >      101 </v>
  <v type="int" >      171 </v>
  <v type="int" >      194 </v>
  <v type="int" >      258 </v>
  <v type="int" >       47 </v>
  <v type="int" >      216 </v>
  <v type="int" >       86 </v>
  <v type="int" >      207 </v>
  <v type="int" >      208 </v>
  <v type="int" >      172 </v>
  <v type="int" >       73 </v>
  <v type="int" >       25 </v>
  <v type="int" >       12 </v>
  <v type="int" >      116 </v>
  <v type="int" >      219 </v>
  <v type="int" >      279 </v>
  <v type="int" >      206 </v>
  <v type="int" >      282 </v>
  <v type="int" >      283 </v>
  <v type="int" >      268 </v>
  <v type="int" >      105 </v>
  <v type="int" >       14 </v>
  <v type="int" >      245 </v>
  <v type="int" >      120 </v>
  <v type="int" >      280 </v>
  <v type="int" >      124 </v>
  <v type="int" >      150 </v>
  <v type="int" >       29 </v>
  <v type="int" >      266 </v>
  <v type="int" >      255 </v>
  <v type="int" >      191 </v>
  <v type="int" >      190 </v>
  <v type="int" >       62 </v>
  <v type="int" >       48 </v>
  <v type="int" >      165 </v>
  <v type="int" >       13 </v>
  <v type="int" >      248 </v>
  <v type="int" >       18 </v>
  <v type="int" >      161 </v>
  <v type="int" >      285 </v>
  <v type="int" >      273 </v>
  <v type="int" >       45 </v>
  <v type="int" >      264 </v>
  <v type="int" >       84 </v>
  <v type="int" >        4 </v>
  <v type="int" >       67 </v>
  <v type="int" >      123 </v>
  <v type="int" >       16 </v>
  <v type="int" >       64 </v>
  <v type="int" >       17 </v>
  <v type="int" >        7 </v>
  <v type="int" >      259 </v>
  <v type="int" >      134 </v>
  <v type="int" >        6 </v>
  <v type="int" >       39 </v>
  <v type="int" >      222 </v>
  <v type="int" >      253 </v>
  <v type="int" >       88 </v>
  <v type="int" >      110 </v>
  <v type="int" >       36 </v>
  <v type="int" >        5 </v>
  <v type="int" >      181 </v>
  <v type="int" >      204 </v>
  <v type="int" >      160 </v>
  <v type="int" >      158 </v>
  <v type="int" >       82 </v>
  <v type="int" >       74 </v>
  <v type="int" >      143 </v>
  <v type="int" >      235 </v>
  <v type="int" >       23 </v>
  <v type="int" >      218 </v>
  <v type="int" >      241 </v>
  <v type="int" >      238 </v>
  <v type="int" >      131 </v>
  <v type="int" >      257 </v>
  <v type="int" >      201 </v>
  <v type="int" >      113 </v>
  <v type="int" >       80 </v>
  <v type="int" >      232 </v>
  <v type="int" >      249 </v>
  <v type="int" >       69 </v>
  <v type="int" >      251 </v>
  <v type="int" >      197 </v>
  <v type="int" >      149 </v>
  <v type="int" >        3 </v>
  <v type="int" >      224 </v>
  <v type="int" >       55 </v>
  <v type="int" >      254 </v>
  <v type="int" >      272 </v>
  <v type="int" >       49 </v>
  <v type="int" >      132 </v>
  <v type="int" >      138 </v>
  <v type="int" >       57 </v>
  <v type="int" >      188 </v>
  <v type="int" >       33 </v>
  <v type="int" >      184 </v>
  <v type="int" >       66 </v>
  <v type="int" >       94 </v>
  <v type="int" >      236 </v>
  <v type="int" >      223 </v>
  <v type="int" >      157 </v>
  <v type="int" >      106 </v>
  <v type="int" >      230 </v>
  <v type="int" >       21 </v>
  <v type="int" >      234 </v>
  <v type="int" >       99 </v>
  <v type="int" >      281 </v>
  <v type="int" >       75 </v>
  <v type="int" >      269 </v>
  <v type="int" >      244 </v>
  <v type="int" >      237 </v>
  <v type="int" >      156 </v>
  <v type="int" >      199 </v>
  <v type="int" >      169 </v>
  <v type="int" >        9 </v>
  <v type="int" >       46 </v>
  <v type="int" >      151 </v>
  <v type="int" >      262 </v>
  <v type="int" >       11 </v>
  <v type="int" >      239 </v>
  <v type="int" >      187 </v>
  <v type="int" >      211 </v>
  <v type="int" >       43 </v>
  <v type="int" >       19 </v>
  <v type="int" >       31 </v>
  <v type="int" >       71 </v>
  <v type="int" >      267 </v>
  <v type="int" >      288 </v>
  <v type="int" >       87 </v>
  <v type="int" >       27 </v>
  <v type="int" >      140 </v>
  <v type="int" >      286 </v>
  <v type="int" >      144 </v>
  <v type="int" >       10 </v>
  <v type="int" >      107 </v>
  <v type="int" >       68 </v>
  <v type="int" >      203 </v>
  <v type="int" >      119 </v>
  <v type="int" >       34 </v>
  <v type="int" >      183 </v>
  <v type="int" >      177 </v>
  <v type="int" >      270 </v>
  <v type="int" >      252 </v>
  <v type="int" >      195 </v>
  <v type="int" >       77 </v>
  <v type="int" >      247 </v>
  <v type="int" >      173 </v>
  <v type="int" >      225 </v>
  <v type="int" >       37 </v>
  <v type="int" >      274 </v>
  <v type="int" >      233 </v>
  <v type="int" >       63 </v>
  <v type="int" >      154 </v>
  <v type="int" >      141 </v>
  <v type="int" >       54 </v>
  <v type="int" >       38 </v>
  <v type="int" >      152 </v>
  <v type="int" >      246 </v>
  <v type="int" >       53 </v>
  <v type="int" >       76 </v>
  <v type="int" >      193 </v>
  <v type="int" >      129 </v>
  <v type="int" >      162 </v>
  <v type="int" >      287 </v>
  <v type="int" >      133 </v>
  <v type="int" >       65 </v>
  <v type="int" >      271 </v>
  <v type="int" >       93 </v>
  <v type="int" >       56 </v>
  <v type="int" >       90 </v>
  <v type="int" >       32 </v>
  <v type="int" >       95 </v>
  <v type="int" >       59 </v>
  <v type="int" >       42 </v>
  <v type="int" >        8 </v>
  <v type="int" >       70 </v>
  <v type="int" >      228 </v>
  <v type="int" >      186 </v>
  <v type="int" >      122 </v>
  <v type="int" >      196 </v>
  <v type="int" >      121 </v>
  <v type="int" >       79 </v>
  <v type="int" >        2 </v>
  <v type="int" >      198 </v>
  <v type="int" >      240 </v>
  <v type="int" >      153 </v>
  <v type="int" >       35 </v>
  <v type="int" >      209 </v>
  <v type="int" >       85 </v>
  <v type="int" >      231 </v>
  <v type="int" >      227 </v>
  <v type="int" >       89 </v>
  <v type="int" >       40 </v>
  <v type="int" >      142 </v>
  <v type="int" >       78 </v>
  <v type="int" >       61 </v>
  <v type="int" >      217 </v>
  <v type="int" >       15 </v>
  <v type="int" >      148 </v>
  <v type="int" >      136 </v>
  <v type="int" >      100 </v>
  <v type="int" >       96 </v>
  <v type="int" >      115 </v>
  <v type="int" >      126 </v>
  <v type="int" >      180 </v>
  <v type="int" >      147 </v>
  <v type="int" >       41 </v>
  <v type="int" >      260 </v>
  <v type="int" >       22 </v>
  <v type="int" >      128 </v>
 </varray>
 <kpoints>
  <generation param="Gamma">
   <v type="int" name="divisions">       4        4        1 </v>
   <v name="usershift">      0.00000000       0.00000000       0.00000000 </v>
   <v name="genvec1">      0.25000000       0.00000000       0.00000000 </v>
   <v name="genvec2">      0.00000000       0.25000000       0.00000000 </v>
   <v name="genvec3">      0.00000000       0.00000000       1.00000000 </v>
   <v name="shift">      0.00000000       0.00000000       0.00000000 </v>
  </generation>
  <varray name="kpointlist" >
   <v>       0.00000000       0.00000000       0.00000000 </v>
   <v>       0.25000000       0.00000000       0.00000000 </v>
   <v>       0.50000000       0.00000000       0.00000000 </v>
   <v>       0.00000000       0.25000000       0.00000000 </v>
   <v>       0.25000000       0.25000000       0.00000000 </v>
   <v>       0.50000000       0.25000000       0.00000000 </v>
   <v>      -0.25000000       0.25000000       0.00000000 </v>
   <v>       0.00000000       0.50000000       0.00000000 </v>
   <v>       0.25000000       0.50000000       0.00000000 </v>
   <v>       0.50000000       0.50000000       0.00000000 </v>
  </varray>
  <varray name="weights" >
   <v>       0.06250000 </v>
   <v>       0.12500000 </v>
   <v>       0.06250000 </v>
   <v>       0.12500000 </v>
   <v>       0.12500000 </v>
   <v>       0.12500000 </v>
   <v>       0.12500000 </v>
   <v>       0.06250000 </v>
   <v>       0.12500000 </v>
   <v>       0.06250000 </v>
  </varray>
 </kpoints>
 <parameters>
  <separator name="general" >
   <i type="string" name="SYSTEM">unknown system</i>
   <i type="logical" name="LCOMPAT"> F  </i>
  </separator>
  <separator name="electronic" >
   <i type="string" name="PREC">accura</i>
   <i name="ENMAX">    450.00000000</i>
   <i name="ENAUG">    838.43500000</i>
   <i name="EDIFF">      0.00000100</i>
   <i type="int" name="IALGO">    68</i>
   <i type="int" name="IWAVPR">    11</i>
   <i type="int" name="NBANDS">  1386</i>
   <i name="NELECT">   2290.00000000</i>
   <i type="int" name="TURBO">     0</i>
   <i type="int" name="IRESTART">     0</i>
   <i type="int" name="NREBOOT">     0</i>
   <i type="int" name="NMIN">     0</i>
   <i name="EREF">      0.00000000</i>
   <separator name="electronic smearing" >
    <i type="int" name="ISMEAR">     0</i>
    <i name="SIGMA">      0.15000000</i>
    <i name="KSPACING">      0.50000000</i>
    <i type="logical" name="KGAMMA"> T  </i>
   </separator>
   <separator name="electronic projectors" >
    <i type="logical" name="LREAL"> T  </i>
    <v name="ROPT">     -0.00025000     -0.00025000</v>
    <i type="int" name="LMAXPAW">  -100</i>
    <i type="int" name="LMAXMIX">     2</i>
    <i type="logical" name="NLSPLINE"> F  </i>
   </separator>
   <separator name="electronic startup" >
    <i type="int" name="ISTART">     0</i>
    <i type="int" name="ICHARG">     2</i>
    <i type="int" name="INIWAV">     1</i>
   </separator>
   <separator name="electronic spin" >
    <i type="int" name="ISPIN">     1</i>
    <i type="logical" name="LNONCOLLINEAR"> F  </i>
    <v name="MAGMOM">      1.00000000      1.00000000      1.00000000      1.00000000      1.00000000      1.00000000      1.00000000      1.00000000      1.00000000      1.00000000      1.00000000      1.00000000      1.00000000      1.00000000      1.00000000      1.00000000      1.00000000      1.00000000      1.00000000      1.00000000
      1.00000000      1.00000000      1.00000000      1.00000000      1.00000000      1.00000000      1.00000000      1.00000000      1.00000000      1.00000000      1.00000000      1.00000000      1.00000000      1.00000000      1.00000000      1.00000000      1.00000000      1.00000000      1.00000000      1.00000000
      1.00000000      1.00000000      1.00000000      1.00000000      1.00000000      1.00000000      1.00000000      1.00000000      1.00000000      1.00000000      1.00000000      1.00000000      1.00000000      1.00000000      1.00000000      1.00000000      1.00000000      1.00000000      1.00000000      1.00000000
      1.00000000      1.00000000      1.00000000      1.00000000      1.00000000      1.00000000      1.00000000      1.00000000      1.00000000      1.00000000      1.00000000      1.00000000      1.00000000      1.00000000      1.00000000      1.00000000      1.00000000      1.00000000      1.00000000      1.00000000
      1.00000000      1.00000000      1.00000000      1.00000000      1.00000000      1.00000000      1.00000000      1.00000000      1.00000000      1.00000000      1.00000000      1.00000000      1.00000000      1.00000000      1.00000000      1.00000000      1.00000000      1.00000000      1.00000000      1.00000000
      1.00000000      1.00000000      1.00000000      1.00000000      1.00000000      1.00000000      1.00000000      1.00000000      1.00000000      1.00000000      1.00000000      1.00000000      1.00000000      1.00000000      1.00000000      1.00000000      1.00000000      1.00000000      1.00000000      1.00000000
      1.00000000      1.00000000      1.00000000      1.00000000      1.00000000      1.00000000      1.00000000      1.00000000      1.00000000      1.00000000      1.00000000      1.00000000      1.00000000      1.00000000      1.00000000      1.00000000      1.00000000      1.00000000      1.00000000      1.00000000
      1.00000000      1.00000000      1.00000000      1.00000000      1.00000000      1.00000000      1.00000000      1.00000000      1.00000000      1.00000000      1.00000000      1.00000000      1.00000000      1.00000000      1.00000000      1.00000000      1.00000000      1.00000000      1.00000000      1.00000000
      1.00000000      1.00000000      1.00000000      1.00000000      1.00000000      1.00000000      1.00000000      1.00000000      1.00000000      1.00000000      1.00000000      1.00000000      1.00000000      1.00000000      1.00000000      1.00000000      1.00000000      1.00000000      1.00000000      1.00000000
      1.00000000      1.00000000      1.00000000      1.00000000      1.00000000      1.00000000      1.00000000      1.00000000      1.00000000      1.00000000      1.00000000      1.00000000      1.00000000      1.00000000      1.00000000      1.00000000      1.00000000      1.00000000      1.00000000      1.00000000
      1.00000000      1.00000000      1.00000000      1.00000000      1.00000000      1.00000000      1.00000000      1.00000000      1.00000000      1.00000000      1.00000000      1.00000000      1.00000000      1.00000000      1.00000000      1.00000000      1.00000000      1.00000000      1.00000000      1.00000000
      1.00000000      1.00000000      1.00000000      1.00000000      1.00000000      1.00000000      1.00000000      1.00000000      1.00000000      1.00000000      1.00000000      1.00000000      1.00000000      1.00000000      1.00000000      1.00000000      1.00000000      1.00000000      1.00000000      1.00000000
      1.00000000      1.00000000      1.00000000      1.00000000      1.00000000      1.00000000      1.00000000      1.00000000      1.00000000      1.00000000      1.00000000      1.00000000      1.00000000      1.00000000      1.00000000      1.00000000      1.00000000      1.00000000      1.00000000      1.00000000
      1.00000000      1.00000000      1.00000000      1.00000000      1.00000000      1.00000000      1.00000000      1.00000000      1.00000000      1.00000000      1.00000000      1.00000000      1.00000000      1.00000000      1.00000000      1.00000000      1.00000000      1.00000000      1.00000000      1.00000000
      1.00000000      1.00000000      1.00000000      1.00000000      1.00000000      1.00000000      1.00000000      1.00000000</v>
    <i name="NUPDOWN">     -1.00000000</i>
    <i type="logical" name="LSORBIT"> F  </i>
    <v name="SAXIS">      0.00000000      0.00000000      1.00000000</v>
    <i type="logical" name="LSPIRAL"> F  </i>
    <v name="QSPIRAL">      0.00000000      0.00000000      0.00000000</v>
    <i type="logical" name="LZEROZ"> F  </i>
   </separator>
   <separator name="electronic exchange-correlation" >
    <i type="logical" name="LASPH"> F  </i>
    <i type="logical" name="LMETAGGA"> F  </i>
   </separator>
   <separator name="electronic convergence" >
    <i type="int" name="NELM">   100</i>
    <i type="int" name="NELMDL">     0</i>
    <i type="int" name="NELMIN">     4</i>
    <i name="ENINI">    450.00000000</i>
    <separator name="electronic convergence detail" >
     <i type="logical" name="LDIAG"> T  </i>
     <i type="logical" name="LSUBROT"> F  </i>
     <i name="WEIMIN">      0.00100000</i>
     <i name="EBREAK">      0.00000000</i>
     <i name="DEPER">      0.30000000</i>
     <i type="int" name="NRMM">     4</i>
     <i name="TIME">      0.40000000</i>
    </separator>
   </separator>
   <separator name="electronic mixer" >
    <i name="AMIX">      0.40000000</i>
    <i name="BMIX">      1.00000000</i>
    <i name="AMIN">      0.10000000</i>
    <i name="AMIX_MAG">      1.60000000</i>
    <i name="BMIX_MAG">      1.00000000</i>
    <separator name="electronic mixer details" >
     <i type="int" name="IMIX">     4</i>
     <i type="logical" name="MIXFIRST"> F  </i>
     <i type="int" name="MAXMIX">   -45</i>
     <i name="WC">    100.00000000</i>
     <i type="int" name="INIMIX">     1</i>
     <i type="int" name="MIXPRE">     1</i>
     <i type="int" name="MREMOVE">     5</i>
    </separator>
   </separator>
   <separator name="electronic dipolcorrection" >
    <i type="logical" name="LDIPOL"> F  </i>
    <i type="logical" name="LMONO"> F  </i>
    <i type="int" name="IDIPOL">     0</i>
    <i name="EPSILON">      1.00000000</i>
    <v name="DIPOL">   -100.00000000   -100.00000000   -100.00000000</v>
    <i name="EFIELD">      0.00000000</i>
   </separator>
  </separator>
  <separator name="grids" >
   <i type="int" name="NGX">    70</i>
   <i type="int" name="NGY">    60</i>
   <i type="int" name="NGZ">   320</i>
   <i type="int" name="NGXF">   140</i>
   <i type="int" name="NGYF">   120</i>
   <i type="int" name="NGZF">   640</i>
   <i type="logical" name="ADDGRID"> F  </i>
  </separator>
  <separator name="ionic" >
   <i type="int" name="NSW">     5</i>
   <i type="int" name="IBRION">     2</i>
   <i type="int" name="MDALGO">     0</i>
   <i type="int" name="ISIF">     2</i>
   <i name="PSTRESS">      0.00000000</i>
   <i name="EDIFFG">      0.00001000</i>
   <i type="int" name="NFREE">     1</i>
   <i name="POTIM">      0.25000000</i>
   <i name="SMASS">     -3.00000000</i>
   <i name="SCALEE">      1.00000000</i>
  </separator>
  <separator name="ionic md" >
   <i name="TEBEG">      0.00010000</i>
   <i name="TEEND">      0.00010000</i>
   <i type="int" name="NBLOCK">     1</i>
   <i type="int" name="KBLOCK">     5</i>
   <i type="int" name="NPACO">   256</i>
   <i name="APACO">     16.00000000</i>
  </separator>
  <separator name="symmetry" >
   <i type="int" name="ISYM">     2</i>
   <i name="SYMPREC">      0.00001000</i>
  </separator>
  <separator name="dos" >
   <i type="int" name="LORBIT">     0</i>
   <v name="RWIGS">     -1.00000000     -1.00000000</v>
   <i type="int" name="NEDOS">   301</i>
   <i name="EMIN">     10.00000000</i>
   <i name="EMAX">    -10.00000000</i>
   <i name="EFERMI">      0.00000000</i>
  </separator>
  <separator name="writing" >
   <i type="int" name="NWRITE">     2</i>
   <i type="logical" name="LWAVE"> F  </i>
   <i type="logical" name="LDOWNSAMPLE"> F  </i>
   <i type="logical" name="LCHARG"> F  </i>
   <i type="logical" name="LPARD"> F  </i>
   <i type="logical" name="LVTOT"> F  </i>
   <i type="logical" name="LVHAR"> F  </i>
   <i type="logical" name="LELF"> F  </i>
   <i type="logical" name="LOPTICS"> F  </i>
   <v name="STM">      0.00000000      0.00000000      0.00000000      0.00000000      0.00000000      0.00000000      0.00000000</v>
  </separator>
  <separator name="performance" >
   <i type="int" name="NPAR">    14</i>
   <i type="int" name="NSIM">     4</i>
   <i type="int" name="NBLK">    -1</i>
   <i type="logical" name="LPLANE"> T  </i>
   <i type="logical" name="LSCALAPACK"> T  </i>
   <i type="logical" name="LSCAAWARE"> T  </i>
   <i type="logical" name="LSCALU"> F  </i>
   <i type="logical" name="LASYNC"> F  </i>
   <i type="logical" name="LORBITALREAL"> F  </i>
  </separator>
  <separator name="miscellaneous" >
   <i type="int" name="IDIOT">     3</i>
   <i type="int" name="ISPECIAL">     0</i>
   <i type="logical" name="LMUSIC"> F  </i>
   <v name="POMASS">     55.84700000     54.93800000</v>
   <v name="DARWINR">      0.00000000      0.00000000</v>
   <v name="DARWINV">      1.00000000      1.00000000</v>
   <i type="logical" name="LCORR"> T  </i>
  </separator>
  <i type="logical" name="GGA_COMPAT"> T  </i>
  <i type="logical" name="LBERRY"> F  </i>
  <i type="int" name="ICORELEVEL">     0</i>
  <i type="logical" name="LDAU"> F  </i>
  <i type="int" name="I_CONSTRAINED_M">     0</i>
  <separator name="electronic exchange-correlation" >
   <i type="string" name="GGA">--</i>
   <i type="int" name="VOSKOWN">     0</i>
   <i type="logical" name="LHFCALC"> F  </i>
   <i type="string" name="PRECFOCK"></i>
   <i type="logical" name="LSYMGRAD"> F  </i>
   <i type="logical" name="LHFONE"> F  </i>
   <i type="logical" name="LRHFCALC"> F  </i>
   <i type="logical" name="LTHOMAS"> F  </i>
   <i type="logical" name="LMODELHF"> F  </i>
   <i name="ENCUT4O">     -1.00000000</i>
   <i type="int" name="EXXOEP">     0</i>
   <i type="int" name="FOURORBIT">     0</i>
   <i name="AEXX">      0.00000000</i>
   <i name="HFALPHA">      0.00000000</i>
   <i name="MCALPHA">      0.00000000</i>
   <i name="ALDAX">      1.00000000</i>
   <i name="AGGAX">      1.00000000</i>
   <i name="ALDAC">      1.00000000</i>
   <i name="AGGAC">      1.00000000</i>
   <i type="int" name="NKREDX">     1</i>
   <i type="int" name="NKREDY">     1</i>
   <i type="int" name="NKREDZ">     1</i>
   <i type="logical" name="SHIFTRED"> F  </i>
   <i type="logical" name="ODDONLY"> F  </i>
   <i type="logical" name="EVENONLY"> F  </i>
   <i type="int" name="LMAXFOCK">     0</i>
   <i type="int" name="NMAXFOCKAE">     0</i>
   <i type="logical" name="LFOCKAEDFT"> F  </i>
   <i name="HFSCREEN">      0.00000000</i>
   <i name="HFSCREENC">      0.00000000</i>
   <i type="int" name="NBANDSGWLOW">     0</i>
  </separator>
  <separator name="vdW DFT" >
   <i type="logical" name="LUSE_VDW"> F  </i>
   <i name="Zab_VDW">     -0.84910000</i>
   <i name="PARAM1">      0.12340000</i>
   <i name="PARAM2">      1.00000000</i>
   <i name="PARAM3">      0.00000000</i>
  </separator>
  <separator name="model GW" >
   <i type="int" name="MODEL_GW">     0</i>
   <i name="MODEL_EPS0">      7.68123389</i>
   <i name="MODEL_ALPHA">      1.00000000</i>
  </separator>
  <separator name="linear response parameters" >
   <i type="logical" name="LEPSILON"> F  </i>
   <i type="logical" name="LRPA"> F  </i>
   <i type="logical" name="LNABLA"> F  </i>
   <i type="logical" name="LVEL"> F  </i>
   <i type="int" name="KINTER">     0</i>
   <i name="CSHIFT">      0.10000000</i>
   <i name="OMEGAMAX">     -1.00000000</i>
   <i name="DEG_THRESHOLD">      0.00200000</i>
   <i name="RTIME">     -0.10000000</i>
   <i name="WPLASMAI">      0.00000000</i>
   <v name="DFIELD">      0.00000000      0.00000000      0.00000000</v>
   <v name="WPLASMA">      0.00000000      0.00000000      0.00000000      0.00000000      0.00000000      0.00000000      0.00000000      0.00000000      0.00000000</v>
  </separator>
  <separator name="orbital magnetization" >
   <i type="logical" name="NUCIND"> F  </i>
   <v name="MAGPOS">      0.00000000      0.00000000      0.00000000</v>
   <i type="logical" name="LNICSALL"> T  </i>
   <i type="logical" name="ORBITALMAG"> F  </i>
   <i type="logical" name="LMAGBLOCH"> F  </i>
   <i type="logical" name="LCHIMAG"> F  </i>
   <i type="logical" name="LGAUGE"> T  </i>
   <i type="int" name="MAGATOM">     0</i>
   <v name="MAGDIPOL">      0.00000000      0.00000000      0.00000000</v>
   <v name="AVECCONST">      0.00000000      0.00000000      0.00000000</v>
  </separator>
  <separator name="response functions" >
   <i type="logical" name="LADDER"> F  </i>
   <i type="logical" name="LRPAFORCE"> F  </i>
   <i type="logical" name="LFXC"> F  </i>
   <i type="logical" name="LHARTREE"> T  </i>
   <i type="int" name="IBSE">     0</i>
   <v type="int" name="KPOINT">    -1     0     0     0</v>
   <i type="logical" name="LTCTE"> F  </i>
   <i type="logical" name="LTETE"> F  </i>
   <i type="logical" name="LTRIPLET"> F  </i>
   <i type="logical" name="LFXCEPS"> F  </i>
   <i type="logical" name="LFXHEG"> F  </i>
   <i type="int" name="NATURALO">     2</i>
   <i type="logical" name="L2ORDER"> F  </i>
   <i type="logical" name="LMP2LT"> F  </i>
   <i type="logical" name="LUSEW"> F  </i>
   <i name="ENCUTGW">     -2.00000000</i>
   <i name="ENCUTGWSOFT">     -2.00000000</i>
   <i name="ENCUTLF">     -1.00000000</i>
   <i type="int" name="LMAXMP2">    -1</i>
   <i name="SCISSOR">      0.00000000</i>
   <i type="int" name="NOMEGA">     0</i>
   <i type="int" name="NOMEGAR">     0</i>
   <i type="int" name="NBANDSGW">    -1</i>
   <i type="int" name="NBANDSO">    -1</i>
   <i type="int" name="NBANDSV">    -1</i>
   <i type="int" name="NELM">   100</i>
   <i type="int" name="NELMHF">     1</i>
   <i type="int" name="DIM">     3</i>
   <i type="int" name="ANTIRES">     0</i>
   <i name="OMEGAMAX">    -30.00000000</i>
   <i name="OMEGAMIN">    -30.00000000</i>
   <i name="OMEGATL">   -200.00000000</i>
   <i type="int" name="OMEGAGRID">   140</i>
   <i name="CSHIFT">     -0.10000000</i>
   <i type="logical" name="SELFENERGY"> F  </i>
   <i type="logical" name="LSPECTRAL"> F  </i>
   <i type="logical" name="LSPECTRALGW"> F  </i>
   <i type="logical" name="LSINGLES"> F  </i>
   <i type="logical" name="LFERMIGW"> F  </i>
   <i type="logical" name="ODDONLYGW"> F  </i>
   <i type="logical" name="EVENONLYGW"> F  </i>
   <i type="int" name="NKREDLFX">     1</i>
   <i type="int" name="NKREDLFY">     1</i>
   <i type="int" name="NKREDLFZ">     1</i>
   <i type="int" name="MAXMEM">  2800</i>
   <i type="int" name="TELESCOPE">     0</i>
   <i type="int" name="TAUPAR">     1</i>
   <i type="int" name="OMEGAPAR">    -1</i>
   <i name="LAMBDA">      1.00000000</i>
  </separator>
  <separator name="External order field" >
   <i name="OFIELD_KAPPA">      0.00000000</i>
   <v name="OFIELD_K">      0.00000000      0.00000000      0.00000000</v>
   <i name="OFIELD_Q6_NEAR">      0.00000000</i>
   <i name="OFIELD_Q6_FAR">      0.00000000</i>
   <i name="OFIELD_A">      0.00000000</i>
  </separator>
 </parameters>
 <atominfo>
  <atoms>     288 </atoms>
  <types>       2 </types>
  <array name="atoms" >
   <dimension dim="1">ion</dimension>
   <field type="string">element</field>
   <field type="int">atomtype</field>
   <set>
    <rc><c>Fe</c><c>   1</c></rc>
    <rc><c>Fe</c><c>   1</c></rc>
    <rc><c>Fe</c><c>   1</c></rc>
    <rc><c>Fe</c><c>   1</c></rc>
    <rc><c>Fe</c><c>   1</c></rc>
    <rc><c>Fe</c><c>   1</c></rc>
    <rc><c>Fe</c><c>   1</c></rc>
    <rc><c>Fe</c><c>   1</c></rc>
    <rc><c>Fe</c><c>   1</c></rc>
    <rc><c>Fe</c><c>   1</c></rc>
    <rc><c>Fe</c><c>   1</c></rc>
    <rc><c>Fe</c><c>   1</c></rc>
    <rc><c>Fe</c><c>   1</c></rc>
    <rc><c>Fe</c><c>   1</c></rc>
    <rc><c>Fe</c><c>   1</c></rc>
    <rc><c>Fe</c><c>   1</c></rc>
    <rc><c>Fe</c><c>   1</c></rc>
    <rc><c>Fe</c><c>   1</c></rc>
    <rc><c>Fe</c><c>   1</c></rc>
    <rc><c>Fe</c><c>   1</c></rc>
    <rc><c>Fe</c><c>   1</c></rc>
    <rc><c>Fe</c><c>   1</c></rc>
    <rc><c>Fe</c><c>   1</c></rc>
    <rc><c>Fe</c><c>   1</c></rc>
    <rc><c>Fe</c><c>   1</c></rc>
    <rc><c>Fe</c><c>   1</c></rc>
    <rc><c>Fe</c><c>   1</c></rc>
    <rc><c>Fe</c><c>   1</c></rc>
    <rc><c>Fe</c><c>   1</c></rc>
    <rc><c>Fe</c><c>   1</c></rc>
    <rc><c>Fe</c><c>   1</c></rc>
    <rc><c>Fe</c><c>   1</c></rc>
    <rc><c>Fe</c><c>   1</c></rc>
    <rc><c>Fe</c><c>   1</c></rc>
    <rc><c>Fe</c><c>   1</c></rc>
    <rc><c>Fe</c><c>   1</c></rc>
    <rc><c>Fe</c><c>   1</c></rc>
    <rc><c>Fe</c><c>   1</c></rc>
    <rc><c>Fe</c><c>   1</c></rc>
    <rc><c>Fe</c><c>   1</c></rc>
    <rc><c>Fe</c><c>   1</c></rc>
    <rc><c>Fe</c><c>   1</c></rc>
    <rc><c>Fe</c><c>   1</c></rc>
    <rc><c>Fe</c><c>   1</c></rc>
    <rc><c>Fe</c><c>   1</c></rc>
    <rc><c>Fe</c><c>   1</c></rc>
    <rc><c>Fe</c><c>   1</c></rc>
    <rc><c>Fe</c><c>   1</c></rc>
    <rc><c>Fe</c><c>   1</c></rc>
    <rc><c>Fe</c><c>   1</c></rc>
    <rc><c>Fe</c><c>   1</c></rc>
    <rc><c>Fe</c><c>   1</c></rc>
    <rc><c>Fe</c><c>   1</c></rc>
    <rc><c>Fe</c><c>   1</c></rc>
    <rc><c>Fe</c><c>   1</c></rc>
    <rc><c>Fe</c><c>   1</c></rc>
    <rc><c>Fe</c><c>   1</c></rc>
    <rc><c>Fe</c><c>   1</c></rc>
    <rc><c>Fe</c><c>   1</c></rc>
    <rc><c>Fe</c><c>   1</c></rc>
    <rc><c>Fe</c><c>   1</c></rc>
    <rc><c>Fe</c><c>   1</c></rc>
    <rc><c>Fe</c><c>   1</c></rc>
    <rc><c>Fe</c><c>   1</c></rc>
    <rc><c>Fe</c><c>   1</c></rc>
    <rc><c>Fe</c><c>   1</c></rc>
    <rc><c>Fe</c><c>   1</c></rc>
    <rc><c>Fe</c><c>   1</c></rc>
    <rc><c>Fe</c><c>   1</c></rc>
    <rc><c>Fe</c><c>   1</c></rc>
    <rc><c>Fe</c><c>   1</c></rc>
    <rc><c>Fe</c><c>   1</c></rc>
    <rc><c>Fe</c><c>   1</c></rc>
    <rc><c>Fe</c><c>   1</c></rc>
    <rc><c>Fe</c><c>   1</c></rc>
    <rc><c>Fe</c><c>   1</c></rc>
    <rc><c>Fe</c><c>   1</c></rc>
    <rc><c>Fe</c><c>   1</c></rc>
    <rc><c>Fe</c><c>   1</c></rc>
    <rc><c>Fe</c><c>   1</c></rc>
    <rc><c>Fe</c><c>   1</c></rc>
    <rc><c>Fe</c><c>   1</c></rc>
    <rc><c>Fe</c><c>   1</c></rc>
    <rc><c>Fe</c><c>   1</c></rc>
    <rc><c>Fe</c><c>   1</c></rc>
    <rc><c>Fe</c><c>   1</c></rc>
    <rc><c>Fe</c><c>   1</c></rc>
    <rc><c>Fe</c><c>   1</c></rc>
    <rc><c>Fe</c><c>   1</c></rc>
    <rc><c>Fe</c><c>   1</c></rc>
    <rc><c>Fe</c><c>   1</c></rc>
    <rc><c>Fe</c><c>   1</c></rc>
    <rc><c>Fe</c><c>   1</c></rc>
    <rc><c>Fe</c><c>   1</c></rc>
    <rc><c>Fe</c><c>   1</c></rc>
    <rc><c>Fe</c><c>   1</c></rc>
    <rc><c>Fe</c><c>   1</c></rc>
    <rc><c>Fe</c><c>   1</c></rc>
    <rc><c>Fe</c><c>   1</c></rc>
    <rc><c>Fe</c><c>   1</c></rc>
    <rc><c>Fe</c><c>   1</c></rc>
    <rc><c>Fe</c><c>   1</c></rc>
    <rc><c>Fe</c><c>   1</c></rc>
    <rc><c>Fe</c><c>   1</c></rc>
    <rc><c>Fe</c><c>   1</c></rc>
    <rc><c>Fe</c><c>   1</c></rc>
    <rc><c>Fe</c><c>   1</c></rc>
    <rc><c>Fe</c><c>   1</c></rc>
    <rc><c>Fe</c><c>   1</c></rc>
    <rc><c>Fe</c><c>   1</c></rc>
    <rc><c>Fe</c><c>   1</c></rc>
    <rc><c>Fe</c><c>   1</c></rc>
    <rc><c>Fe</c><c>   1</c></rc>
    <rc><c>Fe</c><c>   1</c></rc>
    <rc><c>Fe</c><c>   1</c></rc>
    <rc><c>Fe</c><c>   1</c></rc>
    <rc><c>Fe</c><c>   1</c></rc>
    <rc><c>Fe</c><c>   1</c></rc>
    <rc><c>Fe</c><c>   1</c></rc>
    <rc><c>Fe</c><c>   1</c></rc>
    <rc><c>Fe</c><c>   1</c></rc>
    <rc><c>Fe</c><c>   1</c></rc>
    <rc><c>Fe</c><c>   1</c></rc>
    <rc><c>Fe</c><c>   1</c></rc>
    <rc><c>Fe</c><c>   1</c></rc>
    <rc><c>Fe</c><c>   1</c></rc>
    <rc><c>Fe</c><c>   1</c></rc>
    <rc><c>Fe</c><c>   1</c></rc>
    <rc><c>Fe</c><c>   1</c></rc>
    <rc><c>Fe</c><c>   1</c></rc>
    <rc><c>Fe</c><c>   1</c></rc>
    <rc><c>Fe</c><c>   1</c></rc>
    <rc><c>Fe</c><c>   1</c></rc>
    <rc><c>Fe</c><c>   1</c></rc>
    <rc><c>Fe</c><c>   1</c></rc>
    <rc><c>Fe</c><c>   1</c></rc>
    <rc><c>Fe</c><c>   1</c></rc>
    <rc><c>Fe</c><c>   1</c></rc>
    <rc><c>Fe</c><c>   1</c></rc>
    <rc><c>Fe</c><c>   1</c></rc>
    <rc><c>Fe</c><c>   1</c></rc>
    <rc><c>Fe</c><c>   1</c></rc>
    <rc><c>Fe</c><c>   1</c></rc>
    <rc><c>Fe</c><c>   1</c></rc>
    <rc><c>Fe</c><c>   1</c></rc>
    <rc><c>Fe</c><c>   1</c></rc>
    <rc><c>Fe</c><c>   1</c></rc>
    <rc><c>Fe</c><c>   1</c></rc>
    <rc><c>Fe</c><c>   1</c></rc>
    <rc><c>Fe</c><c>   1</c></rc>
    <rc><c>Fe</c><c>   1</c></rc>
    <rc><c>Fe</c><c>   1</c></rc>
    <rc><c>Fe</c><c>   1</c></rc>
    <rc><c>Fe</c><c>   1</c></rc>
    <rc><c>Fe</c><c>   1</c></rc>
    <rc><c>Fe</c><c>   1</c></rc>
    <rc><c>Fe</c><c>   1</c></rc>
    <rc><c>Fe</c><c>   1</c></rc>
    <rc><c>Fe</c><c>   1</c></rc>
    <rc><c>Fe</c><c>   1</c></rc>
    <rc><c>Fe</c><c>   1</c></rc>
    <rc><c>Fe</c><c>   1</c></rc>
    <rc><c>Fe</c><c>   1</c></rc>
    <rc><c>Fe</c><c>   1</c></rc>
    <rc><c>Fe</c><c>   1</c></rc>
    <rc><c>Fe</c><c>   1</c></rc>
    <rc><c>Fe</c><c>   1</c></rc>
    <rc><c>Fe</c><c>   1</c></rc>
    <rc><c>Fe</c><c>   1</c></rc>
    <rc><c>Fe</c><c>   1</c></rc>
    <rc><c>Fe</c><c>   1</c></rc>
    <rc><c>Fe</c><c>   1</c></rc>
    <rc><c>Fe</c><c>   1</c></rc>
    <rc><c>Fe</c><c>   1</c></rc>
    <rc><c>Fe</c><c>   1</c></rc>
    <rc><c>Fe</c><c>   1</c></rc>
    <rc><c>Fe</c><c>   1</c></rc>
    <rc><c>Fe</c><c>   1</c></rc>
    <rc><c>Fe</c><c>   1</c></rc>
    <rc><c>Fe</c><c>   1</c></rc>
    <rc><c>Fe</c><c>   1</c></rc>
    <rc><c>Fe</c><c>   1</c></rc>
    <rc><c>Fe</c><c>   1</c></rc>
    <rc><c>Fe</c><c>   1</c></rc>
    <rc><c>Fe</c><c>   1</c></rc>
    <rc><c>Fe</c><c>   1</c></rc>
    <rc><c>Fe</c><c>   1</c></rc>
    <rc><c>Fe</c><c>   1</c></rc>
    <rc><c>Fe</c><c>   1</c></rc>
    <rc><c>Fe</c><c>   1</c></rc>
    <rc><c>Fe</c><c>   1</c></rc>
    <rc><c>Fe</c><c>   1</c></rc>
    <rc><c>Fe</c><c>   1</c></rc>
    <rc><c>Fe</c><c>   1</c></rc>
    <rc><c>Fe</c><c>   1</c></rc>
    <rc><c>Fe</c><c>   1</c></rc>
    <rc><c>Fe</c><c>   1</c></rc>
    <rc><c>Fe</c><c>   1</c></rc>
    <rc><c>Fe</c><c>   1</c></rc>
    <rc><c>Fe</c><c>   1</c></rc>
    <rc><c>Fe</c><c>   1</c></rc>
    <rc><c>Fe</c><c>   1</c></rc>
    <rc><c>Fe</c><c>   1</c></rc>
    <rc><c>Fe</c><c>   1</c></rc>
    <rc><c>Fe</c><c>   1</c></rc>
    <rc><c>Fe</c><c>   1</c></rc>
    <rc><c>Fe</c><c>   1</c></rc>
    <rc><c>Fe</c><c>   1</c></rc>
    <rc><c>Fe</c><c>   1</c></rc>
    <rc><c>Fe</c><c>   1</c></rc>
    <rc><c>Fe</c><c>   1</c></rc>
    <rc><c>Fe</c><c>   1</c></rc>
    <rc><c>Fe</c><c>   1</c></rc>
    <rc><c>Fe</c><c>   1</c></rc>
    <rc><c>Fe</c><c>   1</c></rc>
    <rc><c>Fe</c><c>   1</c></rc>
    <rc><c>Fe</c><c>   1</c></rc>
    <rc><c>Fe</c><c>   1</c></rc>
    <rc><c>Fe</c><c>   1</c></rc>
    <rc><c>Fe</c><c>   1</c></rc>
    <rc><c>Fe</c><c>   1</c></rc>
    <rc><c>Fe</c><c>   1</c></rc>
    <rc><c>Fe</c><c>   1</c></rc>
    <rc><c>Fe</c><c>   1</c></rc>
    <rc><c>Fe</c><c>   1</c></rc>
    <rc><c>Fe</c><c>   1</c></rc>
    <rc><c>Fe</c><c>   1</c></rc>
    <rc><c>Fe</c><c>   1</c></rc>
    <rc><c>Fe</c><c>   1</c></rc>
    <rc><c>Fe</c><c>   1</c></rc>
    <rc><c>Fe</c><c>   1</c></rc>
    <rc><c>Fe</c><c>   1</c></rc>
    <rc><c>Fe</c><c>   1</c></rc>
    <rc><c>Fe</c><c>   1</c></rc>
    <rc><c>Fe</c><c>   1</c></rc>
    <rc><c>Fe</c><c>   1</c></rc>
    <rc><c>Fe</c><c>   1</c></rc>
    <rc><c>Fe</c><c>   1</c></rc>
    <rc><c>Fe</c><c>   1</c></rc>
    <rc><c>Fe</c><c>   1</c></rc>
    <rc><c>Fe</c><c>   1</c></rc>
    <rc><c>Fe</c><c>   1</c></rc>
    <rc><c>Fe</c><c>   1</c></rc>
    <rc><c>Fe</c><c>   1</c></rc>
    <rc><c>Fe</c><c>   1</c></rc>
    <rc><c>Fe</c><c>   1</c></rc>
    <rc><c>Fe</c><c>   1</c></rc>
    <rc><c>Fe</c><c>   1</c></rc>
    <rc><c>Fe</c><c>   1</c></rc>
    <rc><c>Fe</c><c>   1</c></rc>
    <rc><c>Fe</c><c>   1</c></rc>
    <rc><c>Fe</c><c>   1</c></rc>
    <rc><c>Fe</c><c>   1</c></rc>
    <rc><c>Fe</c><c>   1</c></rc>
    <rc><c>Fe</c><c>   1</c></rc>
    <rc><c>Fe</c><c>   1</c></rc>
    <rc><c>Fe</c><c>   1</c></rc>
    <rc><c>Fe</c><c>   1</c></rc>
    <rc><c>Fe</c><c>   1</c></rc>
    <rc><c>Fe</c><c>   1</c></rc>
    <rc><c>Fe</c><c>   1</c></rc>
    <rc><c>Fe</c><c>   1</c></rc>
    <rc><c>Fe</c><c>   1</c></rc>
    <rc><c>Fe</c><c>   1</c></rc>
    <rc><c>Fe</c><c>   1</c></rc>
    <rc><c>Fe</c><c>   1</c></rc>
    <rc><c>Fe</c><c>   1</c></rc>
    <rc><c>Fe</c><c>   1</c></rc>
    <rc><c>Fe</c><c>   1</c></rc>
    <rc><c>Fe</c><c>   1</c></rc>
    <rc><c>Fe</c><c>   1</c></rc>
    <rc><c>Fe</c><c>   1</c></rc>
    <rc><c>Fe</c><c>   1</c></rc>
    <rc><c>Fe</c><c>   1</c></rc>
    <rc><c>Mn</c><c>   2</c></rc>
    <rc><c>Mn</c><c>   2</c></rc>
    <rc><c>Mn</c><c>   2</c></rc>
    <rc><c>Mn</c><c>   2</c></rc>
    <rc><c>Mn</c><c>   2</c></rc>
    <rc><c>Mn</c><c>   2</c></rc>
    <rc><c>Mn</c><c>   2</c></rc>
    <rc><c>Mn</c><c>   2</c></rc>
    <rc><c>Mn</c><c>   2</c></rc>
    <rc><c>Mn</c><c>   2</c></rc>
    <rc><c>Mn</c><c>   2</c></rc>
    <rc><c>Mn</c><c>   2</c></rc>
    <rc><c>Mn</c><c>   2</c></rc>
    <rc><c>Mn</c><c>   2</c></rc>
   </set>
  </array>
  <array name="atomtypes" >
   <dimension dim="1">type</dimension>
   <field type="int">atomspertype</field>
   <field type="string">element</field>
   <field>mass</field>
   <field>valence</field>
   <field type="string">pseudopotential</field>
   <set>
    <rc><c> 274</c><c>Fe</c><c>     55.84700000</c><c>      8.00000000</c><c>  PAW_PBE Fe_GW 31Mar2010               </c></rc>
    <rc><c>  14</c><c>Mn</c><c>     54.93800000</c><c>      7.00000000</c><c>  PAW_PBE Mn_GW 31Mar2010               </c></rc>
   </set>
  </array>
 </atominfo>
 <structure name="initialpos" >
  <crystal>
   <varray name="basis" >
    <v>       9.72667804       0.00000000       0.00000000 </v>
    <v>       0.00000000       8.42355028       0.00000000 </v>
    <v>       0.00000000       0.00000000      45.00000000 </v>
   </varray>
   <i name="volume">   3686.99226691 </i>
   <varray name="rec_basis" >
    <v>       0.10281002       0.00000000       0.00000000 </v>
    <v>       0.00000000       0.11871479       0.00000000 </v>
    <v>       0.00000000       0.00000000       0.02222222 </v>
   </varray>
  </crystal>
  <varray name="positions" >
   <v>       0.06262090       0.03298937       0.12475836 </v>
   <v>       0.31434470       0.87279556       0.65459326 </v>
   <v>       0.18738473       0.11775977       0.78773735 </v>
   <v>       0.43876379       0.29043153       0.38932213 </v>
   <v>       0.31512161       0.71075687       0.83220945 </v>
   <v>       0.81580890       0.21228879       0.83344553 </v>
   <v>       0.18882029       0.96087197       0.83278669 </v>
   <v>       0.56354948       0.20677089       0.56547121 </v>
   <v>       0.06314567       0.03752628       0.74356101 </v>
   <v>       0.81196648       0.87108276       0.52127218 </v>
   <v>       0.19009335       0.28904020       0.74376530 </v>
   <v>       0.93535235       0.45392357       0.34528781 </v>
   <v>       0.93863905       0.28985460       0.38936187 </v>
   <v>       0.81483757       0.03660739       0.87500699 </v>
   <v>       0.18440980       0.78754298       0.61073019 </v>
   <v>       0.56373496       0.03967093       0.38940524 </v>
   <v>       0.94039952       0.96261013       0.83297664 </v>
   <v>       0.31486369       0.53678985       0.87554382 </v>
   <v>       0.68998196       0.28929447       0.74375838 </v>
   <v>       0.18727063       0.61640680       0.16715950 </v>
   <v>       0.81194577       0.20591380       0.47869233 </v>
   <v>       0.80962400       0.53724888       0.61069396 </v>
   <v>       0.31195569       0.87160628       0.43454994 </v>
   <v>       0.80994741       0.04112804       0.25673383 </v>
   <v>       0.68464129       0.95380328       0.34529567 </v>
   <v>       0.93453870       0.11655553       0.16770326 </v>
   <v>       0.06220712       0.87107371       0.52130169 </v>
   <v>       0.55957706       0.54034051       0.25629390 </v>
   <v>       0.68596725       0.79084589       0.87526913 </v>
   <v>       0.56181319       0.36679818       0.16718035 </v>
   <v>       0.43806158       0.78805396       0.74353006 </v>
   <v>       0.81220401       0.70615644       0.56536489 </v>
   <v>       0.56316738       0.86917472       0.78790461 </v>
   <v>       0.68664604       0.12105389       0.52122028 </v>
   <v>       0.81467661       0.37227656       0.65469079 </v>
   <v>       0.93968007       0.46181307       0.83318953 </v>
   <v>       0.06214636       0.20741395       0.69926583 </v>
   <v>       0.43693154       0.95719710       0.69909229 </v>
   <v>       0.31373025       0.20923410       0.83288662 </v>
   <v>       0.43894204       0.62277895       0.65452079 </v>
   <v>       0.30980499       0.53770875       0.61073210 </v>
   <v>       0.93789225       0.45709318       0.56542370 </v>
   <v>       0.68862256       0.78860106       0.74390390 </v>
   <v>       0.93594474       0.78965765       0.12493761 </v>
   <v>       0.68912260       0.78953422       0.38932656 </v>
   <v>       0.93996586       0.78836253       0.74387358 </v>
   <v>       0.06051399       0.20395488       0.34538264 </v>
   <v>       0.81386604       0.04004217       0.38940125 </v>
   <v>       0.43807488       0.11800051       0.78782479 </v>
   <v>       0.06312362       0.20678891       0.21221125 </v>
   <v>       0.06000755       0.36674221       0.16719444 </v>
   <v>       0.93431170       0.79132110       0.25639676 </v>
   <v>       0.56224007       0.20689300       0.69916187 </v>
   <v>       0.68700057       0.95759472       0.69925150 </v>
   <v>       0.81183074       0.86907176       0.78764826 </v>
   <v>       0.43744782       0.95663294       0.56494769 </v>
   <v>       0.81313503       0.36961617       0.78782219 </v>
   <v>       0.68417471       0.29061540       0.25635352 </v>
   <v>       0.18737948       0.45747029       0.56533904 </v>
   <v>       0.06107597       0.86723645       0.16729778 </v>
   <v>       0.18594737       0.28750535       0.61038184 </v>
   <v>       0.18837522       0.78997015       0.38948744 </v>
   <v>       0.31213518       0.20737802       0.69925218 </v>
   <v>       0.56322116       0.53838922       0.87524565 </v>
   <v>       0.06257409       0.70607503       0.56526424 </v>
   <v>       0.68852016       0.61843363       0.78782033 </v>
   <v>       0.31358422       0.54021213       0.38932377 </v>
   <v>       0.18732310       0.62126182       0.52127393 </v>
   <v>       0.56262551       0.87218714       0.43457284 </v>
   <v>       0.43740703       0.45761838       0.56528694 </v>
   <v>       0.43823541       0.28963888       0.74377420 </v>
   <v>       0.81430950       0.87549866       0.30063649 </v>
   <v>       0.81014793       0.70436330       0.34539037 </v>
   <v>       0.43854480       0.45916555       0.83274538 </v>
   <v>       0.68775091       0.95602989       0.47863015 </v>
   <v>       0.68704262       0.45755261       0.69927382 </v>
   <v>       0.56302116       0.87115128       0.52130202 </v>
   <v>       0.56466127       0.37272807       0.65449126 </v>
   <v>       0.81414975       0.87267546       0.65467987 </v>
   <v>       0.81264732       0.37304516       0.43460390 </v>
   <v>       0.80968327       0.54074816       0.25636931 </v>
   <v>       0.68993336       0.45998193       0.83298424 </v>
   <v>       0.18924901       0.78793050       0.12455718 </v>
   <v>       0.68803382       0.28982125       0.38926449 </v>
   <v>       0.31496268       0.37322491       0.65466345 </v>
   <v>       0.31046045       0.20459077       0.34537784 </v>
   <v>       0.81336451       0.53772389       0.74350993 </v>
   <v>       0.68779220       0.96049669       0.83269373 </v>
   <v>       0.56358535       0.87281607       0.65457804 </v>
   <v>       0.31272536       0.70710756       0.56539185 </v>
   <v>       0.31315747       0.53478305       0.12454643 </v>
   <v>       0.68763929       0.95725890       0.21220116 </v>
   <v>       0.31184180       0.20675577       0.56539906 </v>
   <v>       0.18723562       0.95600619       0.47859424 </v>
   <v>       0.68830847       0.95733530       0.56540714 </v>
   <v>       0.43557996       0.78827158       0.61064013 </v>
   <v>       0.68615910       0.61492553       0.16723191 </v>
   <v>       0.31487822       0.87449869       0.30059430 </v>
   <v>       0.31297655       0.70527806       0.47865891 </v>
   <v>       0.93473970       0.28771741       0.61067439 </v>
   <v>       0.44061190       0.62497803       0.30105639 </v>
   <v>       0.81097810       0.86685151       0.16741540 </v>
   <v>       0.56373863       0.20662994       0.21215064 </v>
   <v>       0.93585036       0.61523354       0.16722723 </v>
   <v>       0.94075940       0.78924050       0.87509692 </v>
   <v>       0.56164387       0.36757542       0.78766610 </v>
   <v>       0.06160886       0.37155447       0.52134537 </v>
   <v>       0.31064383       0.36394861       0.16772931 </v>
   <v>       0.69035904       0.12451949       0.30075505 </v>
   <v>       0.43958888       0.95895229       0.83273012 </v>
   <v>       0.18740409       0.28959819       0.12500649 </v>
   <v>       0.18445969       0.29129105       0.25642782 </v>
   <v>       0.31210566       0.37120441       0.43460564 </v>
   <v>       0.56255158       0.03316906       0.12481812 </v>
   <v>       0.43486692       0.28775369       0.61052439 </v>
   <v>       0.18571491       0.45483107       0.34542914 </v>
   <v>       0.43715526       0.28956532       0.12499147 </v>
   <v>       0.68464781       0.79135198       0.25633376 </v>
   <v>       0.43723489       0.12128845       0.52122149 </v>
   <v>       0.18876644       0.29227511       0.87519710 </v>
   <v>       0.18936084       0.12287143       0.65464094 </v>
   <v>       0.93946865       0.12402062       0.65478713 </v>
   <v>       0.81341397       0.54016375       0.38951544 </v>
   <v>       0.06364493       0.04016269       0.38928538 </v>
   <v>       0.18557775       0.11449341       0.16682590 </v>
   <v>       0.05956091       0.53765379       0.61069323 </v>
   <v>       0.93502256       0.29114645       0.25636849 </v>
   <v>       0.56016496       0.53822142       0.61066823 </v>
   <v>       0.93740053       0.95752299       0.56534535 </v>
   <v>       0.69051951       0.62487080       0.30062802 </v>
   <v>       0.93756402       0.62240749       0.43459860 </v>
   <v>       0.93627787       0.61851954       0.78765937 </v>
   <v>       0.56169919       0.70699237       0.69922024 </v>
   <v>       0.06243351       0.71216550       0.83297959 </v>
   <v>       0.93936571       0.12441706       0.30061695 </v>
   <v>       0.93502363       0.78743450       0.61075866 </v>
   <v>       0.43440255       0.79045245       0.25639951 </v>
   <v>       0.31272561       0.36861706       0.78781216 </v>
   <v>       0.43850320       0.45804970       0.21236577 </v>
   <v>       0.18766012       0.12030516       0.52123126 </v>
   <v>       0.81167015       0.70707270       0.69914766 </v>
   <v>       0.06039425       0.03705409       0.61048355 </v>
   <v>       0.56276411       0.20984617       0.83238557 </v>
   <v>       0.31161937       0.87120855       0.52124718 </v>
   <v>       0.68775444       0.29106657       0.12485881 </v>
   <v>       0.18812726       0.95798417       0.21236073 </v>
   <v>       0.68487322       0.28802024       0.61064549 </v>
   <v>       0.30952029       0.03785682       0.61073567 </v>
   <v>       0.93798885       0.11816814       0.78775816 </v>
   <v>       0.43768999       0.79224161       0.87525617 </v>
   <v>       0.81410232       0.03857812       0.74369792 </v>
   <v>       0.93710623       0.45775438       0.69927357 </v>
   <v>       0.18854260       0.62262723       0.65452655 </v>
   <v>       0.31219495       0.70740470       0.69929839 </v>
   <v>       0.93715765       0.29060161       0.12482958 </v>
   <v>       0.43741835       0.45566730       0.47865642 </v>
   <v>       0.06270943       0.70583815       0.47860119 </v>
   <v>       0.93677575       0.12335610       0.43486306 </v>
   <v>       0.43895492       0.12510918       0.30074134 </v>
   <v>       0.18784907       0.12144354       0.43444209 </v>
   <v>       0.56386071       0.03511039       0.87544869 </v>
   <v>       0.18726152       0.95747223       0.56539249 </v>
   <v>       0.68785837       0.79081636       0.12492545 </v>
   <v>       0.56321302       0.53261923       0.12488415 </v>
   <v>       0.31350004       0.03959811       0.38945549 </v>
   <v>       0.68639961       0.11678980       0.16750184 </v>
   <v>       0.81339529       0.20738779       0.21202002 </v>
   <v>       0.05994564       0.54111016       0.25642653 </v>
   <v>       0.56218504       0.70549019       0.47866480 </v>
   <v>       0.43515433       0.78782673       0.12458460 </v>
   <v>       0.56584039       0.37539202       0.30084268 </v>
   <v>       0.43564144       0.95418808       0.34537971 </v>
   <v>       0.18736244       0.95754052       0.69928572 </v>
   <v>       0.43354446       0.61716997       0.16723978 </v>
   <v>       0.93847848       0.45800000       0.21245024 </v>
   <v>       0.06254144       0.53270203       0.12496152 </v>
   <v>       0.81283994       0.37107998       0.52125844 </v>
   <v>       0.93929437       0.62459510       0.30063879 </v>
   <v>       0.31012327       0.04040151       0.25618390 </v>
   <v>       0.68456444       0.78815381       0.61070024 </v>
   <v>       0.18909410       0.45950561       0.83287690 </v>
   <v>       0.43504126       0.11504319       0.16692570 </v>
   <v>       0.31173244       0.37107045       0.52126733 </v>
   <v>       0.43631244       0.61722456       0.78786823 </v>
   <v>       0.05944965       0.04105368       0.25642754 </v>
   <v>       0.56249115       0.70710882       0.56551224 </v>
   <v>       0.93764118       0.28753706       0.74344710 </v>
   <v>       0.68614819       0.11748416       0.78767628 </v>
   <v>       0.18819712       0.45805616       0.21234730 </v>
   <v>       0.93879676       0.79048879       0.38933842 </v>
   <v>       0.68742744       0.29236627       0.87518238 </v>
   <v>       0.56086400       0.86705912       0.16728071 </v>
   <v>       0.43694432       0.45711027       0.69914287 </v>
   <v>       0.93597272       0.95428974       0.34534580 </v>
   <v>       0.68671178       0.62124493       0.52124961 </v>
   <v>       0.06362162       0.87213566       0.65459254 </v>
   <v>       0.06252400       0.86978858       0.78783153 </v>
   <v>       0.06405437       0.37250412       0.65459575 </v>
   <v>       0.68748912       0.45562105       0.47872683 </v>
   <v>       0.18445634       0.79099535       0.25645282 </v>
   <v>       0.43729697       0.12101026       0.43462088 </v>
   <v>       0.81238301       0.03288741       0.12470720 </v>
   <v>       0.93676733       0.62136339       0.52131408 </v>
   <v>       0.06270055       0.87148747       0.43446207 </v>
   <v>       0.81278623       0.53306659       0.12467531 </v>
   <v>       0.43560853       0.45471553       0.34577763 </v>
   <v>       0.81082002       0.20500784       0.34537887 </v>
   <v>       0.31114343       0.70464607       0.34520715 </v>
   <v>       0.68857828       0.12291347       0.65457884 </v>
   <v>       0.56610117       0.87478591       0.30084439 </v>
   <v>       0.06470556       0.53876159       0.74382883 </v>
   <v>       0.93894472       0.95743293       0.21215315 </v>
   <v>       0.81362987       0.70726578       0.21202566 </v>
   <v>       0.06402315       0.87486399       0.30071021 </v>
   <v>       0.19129247       0.12487606       0.30089179 </v>
   <v>       0.06043235       0.70464499       0.34532264 </v>
   <v>       0.81088288       0.03735509       0.61046632 </v>
   <v>       0.06227364       0.37178621       0.43441145 </v>
   <v>       0.56061511       0.20607925       0.34565357 </v>
   <v>       0.81435971       0.37513903       0.30066762 </v>
   <v>       0.55990468       0.04100460       0.25632696 </v>
   <v>       0.56379729       0.54040437       0.38934623 </v>
   <v>       0.06272987       0.20571994       0.47867120 </v>
   <v>       0.31318156       0.86754062       0.78771606 </v>
   <v>       0.93709247       0.95770637       0.69925055 </v>
   <v>       0.06421294       0.37511920       0.30094070 </v>
   <v>       0.68864025       0.62299903       0.65452962 </v>
   <v>       0.68714735       0.45717296       0.56539316 </v>
   <v>       0.43864536       0.95830405       0.21239724 </v>
   <v>       0.31244534       0.20585197       0.47863422 </v>
   <v>       0.43918342       0.12299008       0.65447295 </v>
   <v>       0.68787224       0.62185624       0.43440786 </v>
   <v>       0.81232482       0.20707040       0.69929869 </v>
   <v>       0.81224902       0.70600107       0.47865273 </v>
   <v>       0.81223543       0.87233324       0.43449379 </v>
   <v>       0.93740997       0.95548573       0.47868604 </v>
   <v>       0.56233658       0.20596764       0.47859831 </v>
   <v>       0.18741263       0.62247715       0.43457252 </v>
   <v>       0.31299514       0.03920241       0.74346896 </v>
   <v>       0.93906130       0.62382669       0.65460909 </v>
   <v>       0.56435522       0.70964522       0.83285401 </v>
   <v>       0.31453214       0.37444247       0.30075724 </v>
   <v>       0.56309665       0.70665019       0.21213248 </v>
   <v>       0.18726032       0.45558620       0.47862800 </v>
   <v>       0.31555403       0.03703604       0.87503105 </v>
   <v>       0.18683665       0.45747884       0.69916250 </v>
   <v>       0.56195799       0.37119164       0.52132781 </v>
   <v>       0.18848839       0.29016603       0.38956282 </v>
   <v>       0.43709269       0.62090699       0.43454797 </v>
   <v>       0.06415088       0.70713925       0.21221456 </v>
   <v>       0.56218367       0.37269079       0.43457879 </v>
   <v>       0.43689358       0.62124369       0.52129956 </v>
   <v>       0.81369792       0.71068469       0.83281776 </v>
   <v>       0.06328046       0.36863835       0.78773721 </v>
   <v>       0.43757712       0.29241117       0.87539895 </v>
   <v>       0.31251346       0.03310898       0.12480887 </v>
   <v>       0.68735853       0.12067732       0.43455270 </v>
   <v>       0.18554870       0.95525870       0.34545773 </v>
   <v>       0.06483353       0.21173554       0.83305126 </v>
   <v>       0.55994909       0.03819101       0.61072178 </v>
   <v>       0.68774247       0.45787376       0.21250770 </v>
   <v>       0.18868939       0.78828535       0.74362008 </v>
   <v>       0.18952455       0.62556832       0.30133663 </v>
   <v>       0.43870866       0.78984413       0.38948023 </v>
   <v>       0.43386210       0.29098617       0.25633081 </v>
   <v>       0.06558297       0.53835646       0.87504613 </v>
   <v>       0.56487608       0.03824464       0.74387737 </v>
   <v>       0.18766039       0.79207977       0.87534101 </v>
   <v>       0.93742386       0.45563569       0.47861438 </v>
   <v>       0.56390072       0.53945546       0.74345350 </v>
   <v>       0.81220485       0.20626399       0.56516684 </v>
   <v>       0.18787380       0.61782575       0.78772903 </v>
   <v>       0.06381671       0.54017590       0.38929503 </v>
   <v>       0.06226339       0.70713364       0.69921062 </v>
   <v>       0.30987238       0.54023540       0.25588243 </v>
   <v>       0.31349818       0.70574545       0.21260468 </v>
   <v>       0.31039810       0.86657840       0.16633317 </v>
   <v>       0.31371705       0.20788108       0.21255711 </v>
   <v>       0.68512573       0.45398189       0.34544913 </v>
   <v>       0.93608316       0.29154509       0.87486311 </v>
   <v>       0.43755939       0.95604468       0.47861932 </v>
   <v>       0.06514263       0.03411668       0.87486771 </v>
   <v>       0.56016865       0.70660729       0.34542415 </v>
   <v>       0.81069840       0.36710804       0.16698967 </v>
   <v>       0.81250807       0.53622207       0.87502236 </v>
   <v>       0.93703460       0.12093258       0.52122207 </v>
   <v>       0.06376582       0.20605767       0.56553594 </v>
   <v>       0.31366883       0.53780225       0.74380455 </v>
  </varray>
 </structure>
 <calculation>
  <scstep>
   <time name="dav">   54.09   54.10</time>
   <time name="total">   54.23   54.29</time>
   <energy>
    <i name="alphaZ">  16293.21160653 </i>
    <i name="ewald"> 743428.66208610 </i>
    <i name="hartreedc">-933913.09588206 </i>
    <i name="XCdc">  -6511.13700202 </i>
    <i name="pawpsdc"> 162273.92519768 </i>
    <i name="pawaedc">-159623.75899949 </i>
    <i name="eentropy">     -1.06682655 </i>
    <i name="bandstr">  38479.86412757 </i>
    <i name="atom"> 168671.76673737 </i>
    <i name="e_fr_energy">  29098.37104512 </i>
    <i name="e_wo_entrp">  29099.43787167 </i>
    <i name="e_0_energy">  29098.90445840 </i>
   </energy>
  </scstep>
  <scstep>
   <time name="dav">   53.65   53.67</time>
   <time name="total">   53.66   53.68</time>
   <energy>
    <i name="e_fr_energy">   1192.17181600 </i>
    <i name="e_wo_entrp">   1193.67220353 </i>
    <i name="e_0_energy">   1192.92200976 </i>
   </energy>
  </scstep>
  <scstep>
   <time name="dav">   70.23   70.26</time>
   <time name="total">   70.24   70.27</time>
   <energy>
    <i name="e_fr_energy">  -1950.48158228 </i>
    <i name="e_wo_entrp">  -1946.91741330 </i>
    <i name="e_0_energy">  -1948.69949779 </i>
   </energy>
  </scstep>
  <scstep>
   <time name="dav">   87.90   87.94</time>
   <time name="total">   87.91   87.95</time>
   <energy>
    <i name="e_fr_energy">  -2620.38927641 </i>
    <i name="e_wo_entrp">  -2616.89169560 </i>
    <i name="e_0_energy">  -2618.64048601 </i>
   </energy>
  </scstep>
  <scstep>
   <time name="dav">   84.46   84.50</time>
   <time name="total">   86.52   86.56</time>
   <energy>
    <i name="e_fr_energy">  -2740.12460588 </i>
    <i name="e_wo_entrp">  -2736.52963548 </i>
    <i name="e_0_energy">  -2738.32712068 </i>
   </energy>
  </scstep>
  <scstep>
   <time name="diag">    8.18    8.18</time>
   <time name="diis">   37.50   37.51</time>
   <time name="orth">    2.26    2.26</time>
   <time name="total">   50.24   50.25</time>
   <energy>
    <i name="e_fr_energy">  -5654.93353972 </i>
    <i name="e_wo_entrp">  -5651.61091839 </i>
    <i name="e_0_energy">  -5653.27222906 </i>
   </energy>
  </scstep>
  <scstep>
   <time name="diag">    8.26    8.26</time>
   <time name="diis">   24.97   24.98</time>
   <time name="orth">    2.27    2.27</time>
   <time name="total">   37.70   37.74</time>
[...]
       <r>     5.8488     0.0000  2772.0000 </r>
       <r>     5.8916     0.0000  2772.0000 </r>
       <r>     5.9344     0.0000  2772.0000 </r>
       <r>     5.9772     0.0000  2772.0000 </r>
       <r>     6.0199     0.0000  2772.0000 </r>
       <r>     6.0627     0.0000  2772.0000 </r>
       <r>     6.1055     0.0000  2772.0000 </r>
       <r>     6.1483     0.0000  2772.0000 </r>
       <r>     6.1910     0.0000  2772.0000 </r>
       <r>     6.2338     0.0000  2772.0000 </r>
       <r>     6.2766     0.0000  2772.0000 </r>
       <r>     6.3194     0.0000  2772.0000 </r>
       <r>     6.3621     0.0000  2772.0000 </r>
       <r>     6.4049     0.0000  2772.0000 </r>
       <r>     6.4477     0.0000  2772.0000 </r>
       <r>     6.4905     0.0000  2772.0000 </r>
       <r>     6.5333     0.0000  2772.0000 </r>
       <r>     6.5760     0.0000  2772.0000 </r>
       <r>     6.6188     0.0000  2772.0000 </r>
       <r>     6.6616     0.0000  2772.0000 </r>
       <r>     6.7044     0.0000  2772.0000 </r>
       <r>     6.7471     0.0000  2772.0000 </r>
       <r>     6.7899     0.0000  2772.0000 </r>
      </set>
     </set>
    </array>
   </total>
  </dos>
 </calculation>
 <structure name="finalpos" >
  <crystal>
   <varray name="basis" >
    <v>       9.72667804       0.00000000       0.00000000 </v>
    <v>       0.00000000       8.42355028       0.00000000 </v>
    <v>       0.00000000       0.00000000      45.00000000 </v>
   </varray>
   <i name="volume">   3686.99226691 </i>
   <varray name="rec_basis" >
    <v>       0.10281002       0.00000000       0.00000000 </v>
    <v>       0.00000000       0.11871479       0.00000000 </v>
    <v>       0.00000000       0.00000000       0.02222222 </v>
   </varray>
  </crystal>
  <varray name="positions" >
   <v>       0.06265841       0.03349076       0.12481306 </v>
   <v>       0.31378190       0.87326659       0.65473392 </v>
   <v>       0.18718397       0.11784419       0.78757381 </v>
   <v>       0.43890954       0.29050383       0.38943328 </v>
   <v>       0.31473562       0.71053944       0.83222251 </v>
   <v>       0.81589191       0.21188068       0.83326283 </v>
   <v>       0.18841763       0.96057046       0.83271648 </v>
   <v>       0.56331481       0.20682340       0.56545563 </v>
   <v>       0.06294724       0.03767271       0.74344040 </v>
   <v>       0.81196213       0.87095515       0.52135369 </v>
   <v>       0.18954757       0.28876287       0.74366478 </v>
   <v>       0.93561227       0.45392272       0.34530251 </v>
   <v>       0.93845448       0.28986650       0.38944408 </v>
   <v>       0.81483582       0.03679715       0.87495748 </v>
   <v>       0.18451012       0.78785845       0.61064089 </v>
   <v>       0.56381337       0.03958510       0.38952275 </v>
   <v>       0.94041971       0.96218849       0.83283876 </v>
   <v>       0.31469656       0.53733193       0.87555375 </v>
   <v>       0.69001854       0.28907540       0.74366491 </v>
   <v>       0.18676277       0.61627053       0.16691559 </v>
   <v>       0.81194971       0.20600168       0.47868373 </v>
   <v>       0.80989312       0.53724599       0.61067770 </v>
   <v>       0.31201285       0.87160144       0.43462030 </v>
   <v>       0.81031789       0.04104096       0.25676512 </v>
   <v>       0.68501720       0.95402982       0.34537086 </v>
   <v>       0.93485074       0.11620464       0.16746277 </v>
   <v>       0.06233725       0.87095500       0.52139523 </v>
   <v>       0.55951069       0.54061292       0.25628223 </v>
   <v>       0.68624357       0.79032288       0.87523634 </v>
   <v>       0.56142137       0.36672628       0.16698353 </v>
   <v>       0.43806885       0.78833862       0.74357655 </v>
   <v>       0.81224662       0.70599912       0.56531510 </v>
   <v>       0.56341298       0.86916027       0.78773492 </v>
   <v>       0.68656707       0.12131024       0.52131730 </v>
   <v>       0.81483542       0.37215681       0.65496322 </v>
   <v>       0.93945986       0.46157249       0.83307210 </v>
   <v>       0.06162138       0.20698110       0.69940087 </v>
   <v>       0.43683888       0.95753671       0.69931977 </v>
   <v>       0.31343669       0.20895846       0.83284513 </v>
   <v>       0.43891770       0.62282642       0.65461317 </v>
   <v>       0.30990014       0.53771651       0.61058934 </v>
   <v>       0.93789236       0.45691071       0.56538210 </v>
   <v>       0.68894031       0.78872499       0.74385856 </v>
   <v>       0.93613973       0.78944301       0.12504749 </v>
   <v>       0.68894370       0.78938996       0.38942772 </v>
   <v>       0.93979243       0.78849847       0.74372919 </v>
   <v>       0.06056039       0.20431785       0.34532268 </v>
   <v>       0.81370769       0.04012102       0.38952839 </v>
   <v>       0.43804254       0.11803953       0.78761656 </v>
   <v>       0.06290100       0.20636704       0.21205928 </v>
   <v>       0.06047231       0.36677558       0.16691415 </v>
   <v>       0.93482481       0.79143884       0.25647959 </v>
   <v>       0.56276148       0.20672087       0.69936279 </v>
   <v>       0.68783925       0.95778433       0.69942357 </v>
   <v>       0.81205366       0.86927250       0.78750438 </v>
   <v>       0.43729620       0.95661853       0.56497143 </v>
   <v>       0.81319613       0.36969947       0.78763414 </v>
   <v>       0.68424596       0.29044800       0.25634131 </v>
   <v>       0.18738049       0.45720546       0.56529184 </v>
   <v>       0.06058642       0.86760517       0.16712187 </v>
   <v>       0.18590777       0.28745060       0.61033693 </v>
   <v>       0.18828980       0.78988755       0.38960904 </v>
   <v>       0.31170758       0.20679347       0.69945851 </v>
   <v>       0.56325515       0.53892231       0.87523308 </v>
   <v>       0.06258569       0.70595961       0.56522308 </v>
   <v>       0.68866065       0.61876763       0.78768597 </v>
   <v>       0.31369443       0.54006443       0.38944315 </v>
   <v>       0.18736578       0.62129739       0.52136513 </v>
   <v>       0.56262563       0.87209556       0.43459646 </v>
   <v>       0.43730728       0.45733399       0.56522576 </v>
   <v>       0.43834242       0.28940770       0.74370735 </v>
   <v>       0.81470633       0.87560452       0.30072922 </v>
   <v>       0.81031148       0.70439353       0.34543277 </v>
   <v>       0.43855785       0.45915791       0.83274608 </v>
   <v>       0.68773265       0.95597119       0.47863924 </v>
   <v>       0.68791507       0.45698370       0.69944305 </v>
   <v>       0.56281977       0.87105896       0.52135932 </v>
   <v>       0.56495825       0.37241224       0.65463742 </v>
   <v>       0.81449072       0.87291207       0.65493973 </v>
   <v>       0.81250916       0.37291160       0.43462105 </v>
   <v>       0.80987031       0.54066897       0.25643554 </v>
   <v>       0.69026457       0.46011226       0.83288229 </v>
   <v>       0.18888101       0.78759072       0.12447560 </v>
   <v>       0.68806063       0.28983857       0.38940878 </v>
   <v>       0.31454747       0.37276531       0.65477516 </v>
   <v>       0.31041512       0.20487924       0.34542500 </v>
   <v>       0.81360746       0.53776146       0.74343848 </v>
   <v>       0.68823277       0.96007981       0.83257334 </v>
   <v>       0.56385631       0.87318553       0.65472042 </v>
   <v>       0.31267409       0.70689461       0.56534299 </v>
   <v>       0.31302741       0.53455288       0.12449880 </v>
   <v>       0.68740276       0.95734678       0.21199196 </v>
   <v>       0.31189393       0.20678013       0.56539441 </v>
   <v>       0.18719060       0.95588262       0.47861107 </v>
   <v>       0.68822162       0.95725736       0.56539830 </v>
   <v>       0.43554580       0.78856231       0.61052515 </v>
   <v>       0.68594737       0.61573339       0.16710280 </v>
   <v>       0.31438899       0.87464052       0.30056080 </v>
   <v>       0.31290351       0.70515389       0.47869891 </v>
   <v>       0.93494885       0.28769990       0.61068461 </v>
   <v>       0.44051256       0.62492576       0.30104596 </v>
   <v>       0.81103349       0.86716663       0.16726332 </v>
   <v>       0.56392325       0.20630499       0.21196567 </v>
   <v>       0.93617496       0.61608503       0.16703099 </v>
   <v>       0.94064052       0.78907882       0.87507057 </v>
   <v>       0.56212936       0.36787913       0.78746774 </v>
   <v>       0.06177483       0.37193166       0.52143220 </v>
   <v>       0.31062179       0.36406795       0.16738220 </v>
   <v>       0.69069349       0.12453811       0.30084712 </v>
   <v>       0.43951212       0.95863177       0.83265086 </v>
   <v>       0.18757367       0.28925131       0.12495887 </v>
   <v>       0.18446999       0.29098797       0.25656919 </v>
   <v>       0.31219379       0.37136849       0.43466944 </v>
   <v>       0.56243241       0.03375380       0.12481894 </v>
   <v>       0.43502436       0.28768324       0.61041709 </v>
   <v>       0.18557099       0.45460624       0.34548160 </v>
   <v>       0.43694933       0.28915201       0.12492046 </v>
   <v>       0.68464958       0.79138660       0.25630992 </v>
   <v>       0.43723422       0.12159433       0.52129646 </v>
   <v>       0.18885209       0.29200254       0.87517559 </v>
   <v>       0.18866438       0.12270395       0.65486087 </v>
   <v>       0.93935698       0.12373831       0.65508482 </v>
   <v>       0.81326855       0.54009146       0.38959225 </v>
   <v>       0.06340099       0.04027213       0.38940604 </v>
   <v>       0.18513422       0.11510997       0.16660501 </v>
   <v>       0.05964900       0.53760748       0.61063226 </v>
   <v>       0.93546562       0.29073422       0.25653297 </v>
   <v>       0.56031460       0.53811226       0.61055474 </v>
   <v>       0.93749425       0.95728868       0.56533786 </v>
   <v>       0.69052074       0.62484598       0.30073917 </v>
   <v>       0.93755333       0.62235576       0.43464099 </v>
   <v>       0.93633248       0.61903539       0.78752865 </v>
   <v>       0.56229365       0.70704914       0.69943097 </v>
   <v>       0.06238758       0.71199734       0.83288658 </v>
   <v>       0.93959707       0.12442098       0.30069864 </v>
   <v>       0.93524851       0.78749175       0.61076153 </v>
   <v>       0.43439777       0.79053121       0.25641960 </v>
   <v>       0.31256787       0.36862338       0.78762289 </v>
   <v>       0.43903143       0.45790960       0.21222844 </v>
   <v>       0.18771529       0.12058016       0.52133383 </v>
   <v>       0.81256687       0.70704906       0.69933535 </v>
   <v>       0.06050098       0.03725804       0.61051192 </v>
   <v>       0.56305991       0.20962166       0.83232266 </v>
   <v>       0.31168994       0.87106846       0.52131559 </v>
   <v>       0.68730857       0.29021685       0.12476166 </v>
   <v>       0.18763526       0.95792007       0.21231856 </v>
   <v>       0.68505097       0.28809423       0.61061492 </v>
   <v>       0.30969502       0.03807469       0.61065465 </v>
   <v>       0.93794328       0.11843417       0.78760503 </v>
   <v>       0.43769507       0.79167758       0.87526819 </v>
   <v>       0.81423783       0.03864634       0.74358584 </v>
   <v>       0.93705222       0.45743253       0.69941802 </v>
   <v>       0.18784114       0.62285850       0.65470339 </v>
   <v>       0.31154054       0.70772402       0.69951620 </v>
   <v>       0.93754890       0.28993584       0.12476908 </v>
   <v>       0.43739248       0.45558201       0.47869887 </v>
   <v>       0.06269501       0.70562676       0.47865537 </v>
   <v>       0.93677325       0.12316801       0.43488040 </v>
   <v>       0.43874389       0.12493483       0.30077900 </v>
   <v>       0.18779926       0.12154341       0.43450248 </v>
   <v>       0.56388215       0.03542502       0.87541142 </v>
   <v>       0.18725273       0.95737065       0.56540565 </v>
   <v>       0.68774126       0.79054838       0.12501830 </v>
   <v>       0.56298754       0.53245272       0.12487532 </v>
   <v>       0.31357031       0.03963681       0.38956581 </v>
   <v>       0.68622845       0.11644676       0.16732778 </v>
   <v>       0.81293881       0.20651038       0.21191910 </v>
   <v>       0.06036185       0.54100899       0.25652043 </v>
   <v>       0.56215322       0.70533084       0.47870383 </v>
   <v>       0.43542777       0.78758952       0.12449738 </v>
   <v>       0.56569305       0.37536549       0.30091766 </v>
   <v>       0.43585807       0.95444637       0.34546833 </v>
   <v>       0.18658292       0.95765181       0.69944928 </v>
   <v>       0.43413922       0.61693324       0.16701072 </v>
   <v>       0.93855835       0.45809101       0.21235682 </v>
   <v>       0.06264602       0.53256757       0.12495594 </v>
   <v>       0.81265811       0.37156161       0.52135210 </v>
   <v>       0.93925688       0.62458130       0.30073810 </v>
   <v>       0.31000002       0.04005460       0.25626737 </v>
   <v>       0.68483733       0.78830060       0.61064873 </v>
   <v>       0.18884180       0.45942604       0.83281199 </v>
   <v>       0.43566841       0.11564808       0.16673005 </v>
   <v>       0.31183969       0.37145139       0.52138053 </v>
   <v>       0.43674326       0.61773188       0.78769855 </v>
   <v>       0.05990306       0.04094641       0.25654880 </v>
   <v>       0.56234642       0.70682970       0.56544540 </v>
   <v>       0.93779422       0.28758226       0.74333946 </v>
   <v>       0.68665235       0.11773139       0.78749069 </v>
   <v>       0.18797043       0.45795958       0.21223135 </v>
   <v>       0.93853727       0.79041072       0.38945537 </v>
   <v>       0.68754864       0.29217812       0.87517320 </v>
   <v>       0.56141640       0.86745281       0.16714297 </v>
   <v>       0.43717189       0.45657027       0.69938409 </v>
   <v>       0.93601237       0.95462173       0.34530496 </v>
   <v>       0.68672706       0.62124484       0.52133598 </v>
   <v>       0.06317917       0.87245496       0.65490233 </v>
   <v>       0.06237249       0.86995149       0.78767810 </v>
   <v>       0.06338016       0.37213777       0.65482540 </v>
   <v>       0.68745632       0.45559125       0.47876048 </v>
   <v>       0.18463617       0.79118657       0.25652887 </v>
   <v>       0.43739135       0.12128419       0.43466929 </v>
   <v>       0.81231454       0.03366297       0.12478254 </v>
   <v>       0.93686550       0.62141570       0.52138373 </v>
   <v>       0.06262648       0.87161149       0.43452139 </v>
   <v>       0.81282381       0.53340112       0.12459114 </v>
   <v>       0.43575083       0.45475763       0.34583924 </v>
   <v>       0.81114805       0.20515327       0.34538632 </v>
   <v>       0.31129458       0.70460673       0.34530536 </v>
   <v>       0.68903959       0.12293393       0.65480726 </v>
   <v>       0.56587007       0.87476019       0.30087289 </v>
   <v>       0.06413969       0.53873309       0.74369660 </v>
   <v>       0.93880616       0.95731260       0.21196372 </v>
   <v>       0.81328358       0.70738963       0.21182309 </v>
   <v>       0.06373888       0.87527352       0.30072106 </v>
   <v>       0.19025924       0.12476191       0.30087526 </v>
   <v>       0.06028446       0.70463271       0.34534334 </v>
   <v>       0.81101129       0.03754587       0.61049539 </v>
   <v>       0.06229564       0.37183738       0.43446384 </v>
   <v>       0.56071079       0.20606708       0.34570786 </v>
   <v>       0.81478853       0.37472618       0.30078387 </v>
   <v>       0.55975828       0.04095662       0.25625494 </v>
   <v>       0.56380001       0.54038832       0.38946859 </v>
   <v>       0.06279257       0.20577154       0.47868387 </v>
   <v>       0.31300492       0.86790954       0.78753332 </v>
   <v>       0.93726894       0.95771899       0.69938751 </v>
   <v>       0.06387326       0.37452744       0.30098531 </v>
   <v>       0.68921053       0.62285805       0.65471843 </v>
   <v>       0.68711072       0.45696815       0.56533711 </v>
   <v>       0.43921374       0.95830813       0.21235076 </v>
   <v>       0.31236192       0.20583514       0.47864757 </v>
   <v>       0.43908136       0.12296882       0.65461576 </v>
   <v>       0.68770738       0.62181754       0.43443263 </v>
   <v>       0.81290784       0.20693910       0.69943218 </v>
   <v>       0.81227345       0.70575524       0.47869682 </v>
   <v>       0.81224805       0.87239334       0.43451472 </v>
   <v>       0.93748411       0.95532332       0.47868024 </v>
   <v>       0.56237505       0.20597718       0.47860436 </v>
   <v>       0.18742091       0.62236330       0.43463677 </v>
   <v>       0.31278822       0.03915406       0.74341010 </v>
   <v>       0.93889033       0.62367462       0.65489078 </v>
   <v>       0.56467896       0.70959431       0.83279429 </v>
   <v>       0.31399332       0.37428356       0.30081163 </v>
   <v>       0.56323440       0.70679240       0.21198151 </v>
   <v>       0.18728225       0.45557120       0.47866985 </v>
   <v>       0.31519098       0.03737350       0.87500981 </v>
   <v>       0.18604490       0.45708104       0.69938042 </v>
   <v>       0.56192376       0.37155047       0.52142743 </v>
   <v>       0.18833023       0.29013203       0.38963282 </v>
   <v>       0.43720371       0.62098492       0.43457736 </v>
   <v>       0.06393873       0.70743589       0.21206725 </v>
   <v>       0.56222489       0.37265583       0.43460581 </v>
   <v>       0.43692689       0.62122393       0.52139296 </v>
   <v>       0.81378090       0.71043647       0.83271481 </v>
   <v>       0.06302729       0.36878517       0.78756330 </v>
   <v>       0.43746524       0.29226141       0.87542811 </v>
   <v>       0.31252443       0.03408035       0.12465464 </v>
   <v>       0.68731333       0.12089505       0.43455494 </v>
   <v>       0.18545061       0.95562269       0.34542441 </v>
   <v>       0.06447774       0.21119474       0.83292772 </v>
   <v>       0.56000611       0.03840997       0.61064129 </v>
   <v>       0.68713106       0.45786823       0.21237570 </v>
   <v>       0.18833050       0.78852334       0.74354931 </v>
   <v>       0.18903080       0.62550309       0.30127013 </v>
   <v>       0.43896377       0.78968982       0.38960907 </v>
   <v>       0.43403983       0.29075919       0.25633746 </v>
   <v>       0.06561620       0.53897559       0.87502884 </v>
   <v>       0.56497691       0.03839272       0.74380474 </v>
   <v>       0.18761781       0.79183734       0.87533605 </v>
   <v>       0.93743263       0.45563519       0.47866642 </v>
   <v>       0.56417922       0.53918874       0.74348236 </v>
   <v>       0.81215738       0.20632618       0.56516442 </v>
   <v>       0.18752481       0.61829275       0.78758458 </v>
   <v>       0.06362768       0.53996194       0.38939239 </v>
   <v>       0.06159755       0.70744670       0.69938355 </v>
   <v>       0.30984423       0.54034453       0.25597847 </v>
   <v>       0.31359186       0.70590012       0.21259427 </v>
   <v>       0.31027569       0.86719342       0.16610073 </v>
   <v>       0.31385143       0.20736353       0.21241126 </v>
   <v>       0.68537134       0.45415126       0.34553574 </v>
   <v>       0.93632264       0.29138186       0.87487256 </v>
   <v>       0.43750393       0.95589730       0.47868138 </v>
   <v>       0.06518843       0.03427867       0.87482362 </v>
   <v>       0.56045357       0.70628835       0.34556243 </v>
   <v>       0.81070840       0.36689263       0.16668704 </v>
   <v>       0.81257764       0.53696390       0.87499592 </v>
   <v>       0.93710905       0.12114541       0.52130421 </v>
   <v>       0.06384420       0.20619967       0.56552203 </v>
   <v>       0.31345970       0.53785218       0.74377172 </v>
  </varray>
 </structure>
</modeling>
