unknown system                          
           1
     9.726678    0.000000    0.000000
     0.000000    8.423550    0.000000
     0.000000    0.000000   45.000000
   Fe   Mn
 274  14
Direct configuration=     1
   0.06262090  0.03298937  0.12475836
   0.31434470  0.87279556  0.65459326
   0.18738473  0.11775977  0.78773735
   0.43876379  0.29043153  0.38932213
   0.31512161  0.71075687  0.83220945
   0.81580890  0.21228879  0.83344553
   0.18882029  0.96087197  0.83278669
   0.56354948  0.20677089  0.56547121
   0.06314567  0.03752628  0.74356101
   0.81196648  0.87108276  0.52127218
   0.19009335  0.28904020  0.74376530
   0.93535235  0.45392357  0.34528781
   0.93863905  0.28985460  0.38936187
   0.81483757  0.03660739  0.87500699
   0.18440980  0.78754298  0.61073019
   0.56373496  0.03967093  0.38940524
   0.94039952  0.96261013  0.83297664
   0.31486369  0.53678985  0.87554382
   0.68998196  0.28929447  0.74375838
   0.18727063  0.61640680  0.16715950
   0.81194577  0.20591380  0.47869233
   0.80962400  0.53724888  0.61069396
   0.31195569  0.87160628  0.43454994
   0.80994741  0.04112804  0.25673383
   0.68464129  0.95380328  0.34529567
   0.93453870  0.11655553  0.16770326
   0.06220712  0.87107371  0.52130169
   0.55957706  0.54034051  0.25629390
   0.68596725  0.79084589  0.87526913
   0.56181319  0.36679818  0.16718035
   0.43806158  0.78805396  0.74353006
   0.81220401  0.70615644  0.56536489
   0.56316738  0.86917472  0.78790461
   0.68664604  0.12105389  0.52122028
   0.81467661  0.37227656  0.65469079
   0.93968007  0.46181307  0.83318953
   0.06214636  0.20741395  0.69926583
   0.43693154  0.95719710  0.69909229
   0.31373025  0.20923410  0.83288662
   0.43894204  0.62277895  0.65452079
   0.30980499  0.53770875  0.61073210
   0.93789225  0.45709318  0.56542370
   0.68862256  0.78860106  0.74390390
   0.93594474  0.78965765  0.12493761
   0.68912260  0.78953422  0.38932656
   0.93996586  0.78836253  0.74387358
   0.06051399  0.20395488  0.34538264
   0.81386604  0.04004217  0.38940125
   0.43807488  0.11800051  0.78782479
   0.06312362  0.20678891  0.21221125
   0.06000755  0.36674221  0.16719444
   0.93431170  0.79132110  0.25639676
   0.56224007  0.20689300  0.69916187
   0.68700057  0.95759472  0.69925150
   0.81183074  0.86907176  0.78764826
   0.43744782  0.95663294  0.56494769
   0.81313503  0.36961617  0.78782219
   0.68417471  0.29061540  0.25635352
   0.18737948  0.45747029  0.56533904
   0.06107597  0.86723645  0.16729778
   0.18594737  0.28750535  0.61038184
   0.18837522  0.78997015  0.38948744
   0.31213518  0.20737802  0.69925218
   0.56322116  0.53838922  0.87524565
   0.06257409  0.70607503  0.56526424
   0.68852016  0.61843363  0.78782033
   0.31358422  0.54021213  0.38932377
   0.18732310  0.62126182  0.52127393
   0.56262551  0.87218714  0.43457284
   0.43740703  0.45761838  0.56528694
   0.43823541  0.28963888  0.74377420
   0.81430950  0.87549866  0.30063649
   0.81014793  0.70436330  0.34539037
   0.43854480  0.45916555  0.83274538
   0.68775091  0.95602989  0.47863015
   0.68704262  0.45755261  0.69927382
   0.56302116  0.87115128  0.52130202
   0.56466127  0.37272807  0.65449126
   0.81414975  0.87267546  0.65467987
   0.81264732  0.37304516  0.43460390
   0.80968327  0.54074816  0.25636931
   0.68993336  0.45998193  0.83298424
   0.18924901  0.78793050  0.12455718
   0.68803382  0.28982125  0.38926449
   0.31496268  0.37322491  0.65466345
   0.31046045  0.20459077  0.34537784
   0.81336451  0.53772389  0.74350993
   0.68779220  0.96049669  0.83269373
   0.56358535  0.87281607  0.65457804
   0.31272536  0.70710756  0.56539185
   0.31315747  0.53478305  0.12454643
   0.68763929  0.95725890  0.21220116
   0.31184180  0.20675577  0.56539906
   0.18723562  0.95600619  0.47859424
   0.68830847  0.95733530  0.56540714
   0.43557996  0.78827158  0.61064013
   0.68615910  0.61492553  0.16723191
   0.31487822  0.87449869  0.30059430
   0.31297655  0.70527806  0.47865891
   0.93473970  0.28771741  0.61067439
   0.44061190  0.62497803  0.30105639
   0.81097810  0.86685151  0.16741540
   0.56373863  0.20662994  0.21215064
   0.93585036  0.61523354  0.16722723
   0.94075940  0.78924050  0.87509692
   0.56164387  0.36757542  0.78766610
   0.06160886  0.37155447  0.52134537
   0.31064383  0.36394861  0.16772931
   0.69035904  0.12451949  0.30075505
   0.43958888  0.95895229  0.83273012
   0.18740409  0.28959819  0.12500649
   0.18445969  0.29129105  0.25642782
   0.31210566  0.37120441  0.43460564
   0.56255158  0.03316906  0.12481812
   0.43486692  0.28775369  0.61052439
   0.18571491  0.45483107  0.34542914
   0.43715526  0.28956532  0.12499147
   0.68464781  0.79135198  0.25633376
   0.43723489  0.12128845  0.52122149
   0.18876644  0.29227511  0.87519710
   0.18936084  0.12287143  0.65464094
   0.93946865  0.12402062  0.65478713
   0.81341397  0.54016375  0.38951544
   0.06364493  0.04016269  0.38928538
   0.18557775  0.11449341  0.16682590
   0.05956091  0.53765379  0.61069323
   0.93502256  0.29114645  0.25636849
   0.56016496  0.53822142  0.61066823
   0.93740053  0.95752299  0.56534535
   0.69051951  0.62487080  0.30062802
   0.93756402  0.62240749  0.43459860
   0.93627787  0.61851954  0.78765937
   0.56169919  0.70699237  0.69922024
   0.06243351  0.71216550  0.83297959
   0.93936571  0.12441706  0.30061695
   0.93502363  0.78743450  0.61075866
   0.43440255  0.79045245  0.25639951
   0.31272561  0.36861706  0.78781216
   0.43850320  0.45804970  0.21236577
   0.18766012  0.12030516  0.52123126
   0.81167015  0.70707270  0.69914766
   0.06039425  0.03705409  0.61048355
   0.56276411  0.20984617  0.83238557
   0.31161937  0.87120855  0.52124718
   0.68775444  0.29106657  0.12485881
   0.18812726  0.95798417  0.21236073
   0.68487322  0.28802024  0.61064549
   0.30952029  0.03785682  0.61073567
   0.93798885  0.11816814  0.78775816
   0.43768999  0.79224161  0.87525617
   0.81410232  0.03857812  0.74369792
   0.93710623  0.45775438  0.69927357
   0.18854260  0.62262723  0.65452655
   0.31219495  0.70740470  0.69929839
   0.93715765  0.29060161  0.12482958
   0.43741835  0.45566730  0.47865642
   0.06270943  0.70583815  0.47860119
   0.93677575  0.12335610  0.43486306
   0.43895492  0.12510918  0.30074134
   0.18784907  0.12144354  0.43444209
   0.56386071  0.03511039  0.87544869
   0.18726152  0.95747223  0.56539249
   0.68785837  0.79081636  0.12492545
   0.56321302  0.53261923  0.12488415
   0.31350004  0.03959811  0.38945549
   0.68639961  0.11678980  0.16750184
   0.81339529  0.20738779  0.21202002
   0.05994564  0.54111016  0.25642653
   0.56218504  0.70549019  0.47866480
   0.43515433  0.78782673  0.12458460
   0.56584039  0.37539202  0.30084268
   0.43564144  0.95418808  0.34537971
   0.18736244  0.95754052  0.69928572
   0.43354446  0.61716997  0.16723978
   0.93847848  0.45800000  0.21245024
   0.06254144  0.53270203  0.12496152
   0.81283994  0.37107998  0.52125844
   0.93929437  0.62459510  0.30063879
   0.31012327  0.04040151  0.25618390
   0.68456444  0.78815381  0.61070024
   0.18909410  0.45950561  0.83287690
   0.43504126  0.11504319  0.16692570
   0.31173244  0.37107045  0.52126733
   0.43631244  0.61722456  0.78786823
   0.05944965  0.04105368  0.25642754
   0.56249115  0.70710882  0.56551224
   0.93764118  0.28753706  0.74344710
   0.68614819  0.11748416  0.78767628
   0.18819712  0.45805616  0.21234730
   0.93879676  0.79048879  0.38933842
   0.68742744  0.29236627  0.87518238
   0.56086400  0.86705912  0.16728071
   0.43694432  0.45711027  0.69914287
   0.93597272  0.95428974  0.34534580
   0.68671178  0.62124493  0.52124961
   0.06362162  0.87213566  0.65459254
   0.06252400  0.86978858  0.78783153
   0.06405437  0.37250412  0.65459575
   0.68748912  0.45562105  0.47872683
   0.18445634  0.79099535  0.25645282
   0.43729697  0.12101026  0.43462088
   0.81238301  0.03288741  0.12470720
   0.93676733  0.62136339  0.52131408
   0.06270055  0.87148747  0.43446207
   0.81278623  0.53306659  0.12467531
   0.43560853  0.45471553  0.34577763
   0.81082002  0.20500784  0.34537887
   0.31114343  0.70464607  0.34520715
   0.68857828  0.12291347  0.65457884
   0.56610117  0.87478591  0.30084439
   0.06470556  0.53876159  0.74382883
   0.93894472  0.95743293  0.21215315
   0.81362987  0.70726578  0.21202566
   0.06402315  0.87486399  0.30071021
   0.19129247  0.12487606  0.30089179
   0.06043235  0.70464499  0.34532264
   0.81088288  0.03735509  0.61046632
   0.06227364  0.37178621  0.43441145
   0.56061511  0.20607925  0.34565357
   0.81435971  0.37513903  0.30066762
   0.55990468  0.04100460  0.25632696
   0.56379729  0.54040437  0.38934623
   0.06272987  0.20571994  0.47867120
   0.31318156  0.86754062  0.78771606
   0.93709247  0.95770637  0.69925055
   0.06421294  0.37511920  0.30094070
   0.68864025  0.62299903  0.65452962
   0.68714735  0.45717296  0.56539316
   0.43864536  0.95830405  0.21239724
   0.31244534  0.20585197  0.47863422
   0.43918342  0.12299008  0.65447295
   0.68787224  0.62185624  0.43440786
   0.81232482  0.20707040  0.69929869
   0.81224902  0.70600107  0.47865273
   0.81223543  0.87233324  0.43449379
   0.93740997  0.95548573  0.47868604
   0.56233658  0.20596764  0.47859831
   0.18741263  0.62247715  0.43457252
   0.31299514  0.03920241  0.74346896
   0.93906130  0.62382669  0.65460909
   0.56435522  0.70964522  0.83285401
   0.31453214  0.37444247  0.30075724
   0.56309665  0.70665019  0.21213248
   0.18726032  0.45558620  0.47862800
   0.31555403  0.03703604  0.87503105
   0.18683665  0.45747884  0.69916250
   0.56195799  0.37119164  0.52132781
   0.18848839  0.29016603  0.38956282
   0.43709269  0.62090699  0.43454797
   0.06415088  0.70713925  0.21221456
   0.56218367  0.37269079  0.43457879
   0.43689358  0.62124369  0.52129956
   0.81369792  0.71068469  0.83281776
   0.06328046  0.36863835  0.78773721
   0.43757712  0.29241117  0.87539895
   0.31251346  0.03310898  0.12480887
   0.68735853  0.12067732  0.43455270
   0.18554870  0.95525870  0.34545773
   0.06483353  0.21173554  0.83305126
   0.55994909  0.03819101  0.61072178
   0.68774247  0.45787376  0.21250770
   0.18868939  0.78828535  0.74362008
   0.18952455  0.62556832  0.30133663
   0.43870866  0.78984413  0.38948023
   0.43386210  0.29098617  0.25633081
   0.06558297  0.53835646  0.87504613
   0.56487608  0.03824464  0.74387737
   0.18766039  0.79207977  0.87534101
   0.93742386  0.45563569  0.47861438
   0.56390072  0.53945546  0.74345350
   0.81220485  0.20626399  0.56516684
   0.18787380  0.61782575  0.78772903
   0.06381671  0.54017590  0.38929503
   0.06226339  0.70713364  0.69921062
   0.30987238  0.54023540  0.25588243
   0.31349818  0.70574545  0.21260468
   0.31039810  0.86657840  0.16633317
   0.31371705  0.20788108  0.21255711
   0.68512573  0.45398189  0.34544913
   0.93608316  0.29154509  0.87486311
   0.43755939  0.95604468  0.47861932
   0.06514263  0.03411668  0.87486771
   0.56016865  0.70660729  0.34542415
   0.81069840  0.36710804  0.16698967
   0.81250807  0.53622207  0.87502236
   0.93703460  0.12093258  0.52122207
   0.06376582  0.20605767  0.56553594
   0.31366883  0.53780225  0.74380455
Direct configuration=     2
   0.06267936  0.03377078  0.12484362
   0.31346759  0.87352965  0.65481248
   0.18707185  0.11789134  0.78748248
   0.43899094  0.29054421  0.38949536
   0.31452005  0.71041802  0.83222981
   0.81593827  0.21165276  0.83316080
   0.18819275  0.96040208  0.83267727
   0.56318376  0.20685272  0.56544692
   0.06283642  0.03775449  0.74337304
   0.81195971  0.87088389  0.52139921
   0.18924277  0.28860798  0.74360864
   0.93575742  0.45392225  0.34531071
   0.93835141  0.28987315  0.38948999
   0.81483483  0.03690312  0.87492983
   0.18456615  0.78803462  0.61059102
   0.56385716  0.03953717  0.38958838
   0.94043099  0.96195303  0.83276175
   0.31460322  0.53763467  0.87555930
   0.69003897  0.28895306  0.74361270
   0.18647914  0.61619443  0.16677938
   0.81195191  0.20605076  0.47867892
   0.81004342  0.53724438  0.61066861
   0.31204478  0.87159874  0.43465959
   0.81052478  0.04099233  0.25678259
   0.68522714  0.95415633  0.34541285
   0.93502501  0.11600868  0.16732846
   0.06240993  0.87088870  0.52144746
   0.55947362  0.54076505  0.25627571
   0.68639788  0.79003080  0.87521803
   0.56120255  0.36668612  0.16687360
   0.43807292  0.78849759  0.74360251
   0.81227041  0.70591126  0.56528729
   0.56355014  0.86915220  0.78764016
   0.68652298  0.12145340  0.52137147
   0.81492412  0.37208993  0.65511537
   0.93933687  0.46143814  0.83300651
   0.06132820  0.20673937  0.69947628
   0.43678714  0.95772638  0.69944681
   0.31327274  0.20880451  0.83282197
   0.43890411  0.62285293  0.65466477
   0.30995329  0.53772085  0.61050961
   0.93789242  0.45680881  0.56535887
   0.68911777  0.78879420  0.74383323
   0.93624863  0.78932314  0.12510885
   0.68884378  0.78930940  0.38948422
   0.93969558  0.78857439  0.74364855
   0.06058630  0.20452055  0.34528919
   0.81361925  0.04016506  0.38959939
   0.43802448  0.11806132  0.78750028
   0.06277668  0.20613143  0.21197441
   0.06073187  0.36679422  0.16675762
   0.93511136  0.79150459  0.25652585
   0.56305266  0.20662474  0.69947499
   0.68830763  0.95789022  0.69951967
   0.81217816  0.86938461  0.78742403
   0.43721153  0.95661049  0.56498469
   0.81323026  0.36974599  0.78752911
   0.68428575  0.29035451  0.25633450
   0.18738105  0.45705756  0.56526548
   0.06031302  0.86781109  0.16702363
   0.18588565  0.28742003  0.61031185
   0.18824209  0.78984142  0.38967696
   0.31146878  0.20646702  0.69957374
   0.56327413  0.53922003  0.87522605
   0.06259217  0.70589515  0.56520009
   0.68873911  0.61895416  0.78761094
   0.31375598  0.53998195  0.38950982
   0.18738962  0.62131725  0.52141607
   0.56262570  0.87204441  0.43460966
   0.43725157  0.45717517  0.56519159
   0.43840218  0.28927859  0.74367001
   0.81492795  0.87566364  0.30078100
   0.81040282  0.70441042  0.34545645
   0.43856515  0.45915364  0.83274647
   0.68772246  0.95593840  0.47864431
   0.68840231  0.45666598  0.69953756
   0.56270730  0.87100740  0.52139132
   0.56512410  0.37223586  0.65471905
   0.81468114  0.87304422  0.65508486
   0.81243200  0.37283701  0.43463063
   0.80997476  0.54062475  0.25647253
   0.69044953  0.46018505  0.83282536
   0.18867549  0.78740097  0.12443003
   0.68807560  0.28984825  0.38948936
   0.31431559  0.37250863  0.65483754
   0.31038980  0.20504034  0.34545134
   0.81374314  0.53778244  0.74339858
   0.68847881  0.95984700  0.83250611
   0.56400763  0.87339186  0.65479993
   0.31264546  0.70677569  0.56531569
   0.31295478  0.53442434  0.12447221
   0.68727067  0.95739586  0.21187513
   0.31192303  0.20679374  0.56539182
   0.18716546  0.95581361  0.47862047
   0.68817311  0.95721384  0.56539336
   0.43552672  0.78872468  0.61046093
   0.68582912  0.61618456  0.16703070
   0.31411576  0.87471973  0.30054209
   0.31286272  0.70508454  0.47872124
   0.93506566  0.28769012  0.61069032
   0.44045708  0.62489657  0.30104013
   0.81106442  0.86734262  0.16717839
   0.56402636  0.20612352  0.21186237
   0.93635624  0.61656057  0.16692140
   0.94057412  0.78898852  0.87505586
   0.56240049  0.36804874  0.78735695
   0.06186752  0.37214231  0.52148068
   0.31060948  0.36413460  0.16718834
   0.69088027  0.12454851  0.30089854
   0.43946926  0.95845277  0.83260659
   0.18766838  0.28905758  0.12493227
   0.18447574  0.29081871  0.25664814
   0.31224301  0.37146013  0.43470507
   0.56236586  0.03408036  0.12481940
   0.43511229  0.28764389  0.61035717
   0.18549062  0.45448068  0.34551090
   0.43683433  0.28892119  0.12488080
   0.68465057  0.79140594  0.25629661
   0.43723385  0.12176516  0.52133832
   0.18889993  0.29185031  0.87516357
   0.18827543  0.12261042  0.65498370
   0.93929461  0.12358065  0.65525107
   0.81318734  0.54005108  0.38963514
   0.06326476  0.04033324  0.38947343
   0.18488653  0.11545429  0.16648165
   0.05969820  0.53758161  0.61059821
   0.93571306  0.29050400  0.25662483
   0.56039817  0.53805130  0.61049135
   0.93754658  0.95715783  0.56533368
   0.69052143  0.62483212  0.30080125
   0.93754736  0.62232687  0.43466466
   0.93636298  0.61932347  0.78745565
   0.56262563  0.70708084  0.69954865
   0.06236193  0.71190343  0.83283463
   0.93972627  0.12442316  0.30074425
   0.93537410  0.78752372  0.61076313
   0.43439511  0.79057519  0.25643082
   0.31247978  0.36862692  0.78751719
   0.43932643  0.45783136  0.21215174
   0.18774610  0.12073374  0.52139111
   0.81306766  0.70703586  0.69944017
   0.06056059  0.03737193  0.61052777
   0.56322510  0.20949628  0.83228753
   0.31172935  0.87099022  0.52135379
   0.68705957  0.28974230  0.12470740
   0.18736049  0.95788427  0.21229501
   0.68515024  0.28813554  0.61059785
   0.30979260  0.03819636  0.61060940
   0.93791783  0.11858273  0.78751951
   0.43769791  0.79136258  0.87527489
   0.81431351  0.03868444  0.74352324
   0.93702206  0.45725278  0.69949868
   0.18744940  0.62298765  0.65480216
   0.31117507  0.70790235  0.69963784
   0.93776740  0.28956403  0.12473529
   0.43737803  0.45553438  0.47872258
   0.06268695  0.70550870  0.47868562
   0.93677186  0.12306297  0.43489009
   0.43862604  0.12483746  0.30080003
   0.18777144  0.12159918  0.43453621
   0.56389412  0.03560073  0.87539060
   0.18724782  0.95731392  0.56541299
   0.68767586  0.79039873  0.12507015
   0.56286161  0.53235973  0.12487038
   0.31360956  0.03965843  0.38962742
   0.68613286  0.11625519  0.16723057
   0.81268388  0.20602038  0.21186274
   0.06059429  0.54095249  0.25657287
   0.56213545  0.70524185  0.47872563
   0.43558048  0.78745705  0.12444867
   0.56561077  0.37535067  0.30095953
   0.43597905  0.95459062  0.34551783
   0.18614759  0.95771397  0.69954062
   0.43447138  0.61680103  0.16688279
   0.93860295  0.45814184  0.21230465
   0.06270442  0.53249247  0.12495282
   0.81255656  0.37183059  0.52140442
   0.93923594  0.62457359  0.30079356
   0.30993119  0.03986087  0.25631398
   0.68498974  0.78838257  0.61061997
   0.18870090  0.45938160  0.83277575
   0.43601865  0.11598589  0.16662079
   0.31189958  0.37166414  0.52144375
   0.43698386  0.61801520  0.78760379
   0.06015628  0.04088650  0.25661651
   0.56226559  0.70667382  0.56540808
   0.93787969  0.28760751  0.74327934
   0.68693392  0.11786947  0.78738705
   0.18784383  0.45790565  0.21216659
   0.93839236  0.79036712  0.38952069
   0.68761634  0.29207305  0.87516807
   0.56172490  0.86767267  0.16706605
   0.43729898  0.45626870  0.69951880
   0.93603451  0.95480713  0.34528215
   0.68673560  0.62124479  0.52138422
   0.06293206  0.87263329  0.65507535
   0.06228787  0.87004247  0.78759241
   0.06300363  0.37193318  0.65495366
   0.68743800  0.45557461  0.47877927
   0.18473660  0.79129337  0.25657133
   0.43744406  0.12143718  0.43469632
   0.81227630  0.03409610  0.12482461
   0.93692033  0.62144492  0.52142262
   0.06258511  0.87168075  0.43455452
   0.81284480  0.53358794  0.12454413
   0.43583030  0.45478113  0.34587366
   0.81133124  0.20523449  0.34539049
   0.31137899  0.70458476  0.34536020
   0.68929722  0.12294535  0.65493483
   0.56574101  0.87474582  0.30088880
   0.06382366  0.53871717  0.74362276
   0.93872878  0.95724539  0.21185792
   0.81309019  0.70745881  0.21170996
   0.06358012  0.87550223  0.30072712
   0.18968221  0.12469816  0.30086603
   0.06020188  0.70462585  0.34535489
   0.81108300  0.03765241  0.61051163
   0.06230793  0.37186596  0.43449309
   0.56076422  0.20606028  0.34573818
   0.81502802  0.37449562  0.30084880
   0.55967653  0.04092982  0.25621472
   0.56380153  0.54037935  0.38953693
   0.06282759  0.20580036  0.47869095
   0.31290627  0.86811557  0.78743126
   0.93736750  0.95772603  0.69946399
   0.06368356  0.37419696  0.30101023
   0.68952902  0.62277931  0.65482388
   0.68709027  0.45685377  0.56530580
   0.43953117  0.95831041  0.21232480
   0.31231533  0.20582574  0.47865502
   0.43902436  0.12295695  0.65469552
   0.68761531  0.62179593  0.43444646
   0.81323343  0.20686577  0.69950673
   0.81228710  0.70561796  0.47872144
   0.81225510  0.87242690  0.43452640
   0.93752551  0.95523261  0.47867701
   0.56239653  0.20598251  0.47860774
   0.18742554  0.62229972  0.43467265
   0.31267266  0.03912707  0.74337722
   0.93879485  0.62358969  0.65504809
   0.56485976  0.70956588  0.83276094
   0.31369240  0.37419482  0.30084200
   0.56331134  0.70687181  0.21189720
   0.18729449  0.45556283  0.47869322
   0.31498822  0.03756196  0.87499796
   0.18560273  0.45685888  0.69950212
   0.56190464  0.37175086  0.52148307
   0.18824190  0.29011304  0.38967192
   0.43726570  0.62102844  0.43459377
   0.06382025  0.70760156  0.21198499
   0.56224791  0.37263630  0.43462090
   0.43694549  0.62121290  0.52144513
   0.81382724  0.71029784  0.83265731
   0.06288591  0.36886716  0.78746617
   0.43740276  0.29217777  0.87544440
   0.31253056  0.03462283  0.12456851
   0.68728808  0.12101664  0.43455620
   0.18539583  0.95582597  0.34540580
   0.06427905  0.21089273  0.83285872
   0.56003796  0.03853225  0.61059633
   0.68678960  0.45786514  0.21230198
   0.18813007  0.78865626  0.74350979
   0.18875506  0.62546667  0.30123299
   0.43910624  0.78960364  0.38968102
   0.43413908  0.29063243  0.25634117
   0.06563476  0.53932135  0.87501918
   0.56503323  0.03847541  0.74376418
   0.18759403  0.79170195  0.87533328
   0.93743754  0.45563491  0.47869549
   0.56433476  0.53903979  0.74349847
   0.81213087  0.20636092  0.56516307
   0.18732992  0.61855355  0.78750391
   0.06352211  0.53984245  0.38944677
   0.06122570  0.70762154  0.69948013
   0.30982850  0.54040548  0.25603210
   0.31364418  0.70598649  0.21258846
   0.31020732  0.86753690  0.16597093
   0.31392647  0.20707449  0.21232981
   0.68550850  0.45424584  0.34558411
   0.93645639  0.29129071  0.87487784
   0.43747296  0.95581499  0.47871604
   0.06521401  0.03436913  0.87479900
   0.56061270  0.70611022  0.34563966
   0.81071399  0.36677233  0.16651803
   0.81261649  0.53737820  0.87498116
   0.93715062  0.12126427  0.52135009
   0.06388797  0.20627897  0.56551426
   0.31334291  0.53788006  0.74375339
Direct configuration=     3
   0.06267465  0.03370785  0.12483675
   0.31353822  0.87347053  0.65479483
   0.18709705  0.11788074  0.78750301
   0.43897264  0.29053514  0.38948141
   0.31456850  0.71044530  0.83222817
   0.81592785  0.21170398  0.83318373
   0.18824329  0.96043992  0.83268608
   0.56321321  0.20684613  0.56544888
   0.06286133  0.03773611  0.74338818
   0.81196025  0.87089991  0.52138898
   0.18931127  0.28864279  0.74362126
   0.93572480  0.45392236  0.34530887
   0.93837457  0.28987165  0.38947967
   0.81483505  0.03687930  0.87493604
   0.18455356  0.78799503  0.61060222
   0.56384732  0.03954794  0.38957363
   0.94042846  0.96200594  0.83277905
   0.31462419  0.53756663  0.87555805
   0.69003438  0.28898056  0.74362443
   0.18654288  0.61621153  0.16680999
   0.81195142  0.20603973  0.47868000
   0.81000964  0.53724474  0.61067066
   0.31203760  0.87159935  0.43465076
   0.81047829  0.04100326  0.25677866
   0.68517996  0.95412790  0.34540342
   0.93498584  0.11605272  0.16735865
   0.06239360  0.87090360  0.52143572
   0.55948195  0.54073086  0.25627717
   0.68636320  0.79009644  0.87522215
   0.56125173  0.36669515  0.16689831
   0.43807200  0.78846187  0.74359668
   0.81226506  0.70593100  0.56529354
   0.56351931  0.86915402  0.78766146
   0.68653289  0.12142123  0.52135930
   0.81490418  0.37210496  0.65508118
   0.93936451  0.46146833  0.83302125
   0.06139408  0.20679369  0.69945933
   0.43679876  0.95768375  0.69941826
   0.31330959  0.20883911  0.83282717
   0.43890717  0.62284697  0.65465317
   0.30994134  0.53771988  0.61052753
   0.93789240  0.45683171  0.56536409
   0.68907789  0.78877865  0.74383892
   0.93622415  0.78935008  0.12509506
   0.68886624  0.78932750  0.38947152
   0.93971735  0.78855733  0.74366667
   0.06058047  0.20447500  0.34529671
   0.81363913  0.04015517  0.38958344
   0.43802854  0.11805643  0.78752641
   0.06280462  0.20618438  0.21199348
   0.06067354  0.36679003  0.16679280
   0.93504697  0.79148982  0.25651545
   0.56298723  0.20664634  0.69944977
   0.68820237  0.95786643  0.69949808
   0.81215018  0.86935941  0.78744209
   0.43723055  0.95661230  0.56498171
   0.81322259  0.36973553  0.78755271
   0.68427681  0.29037552  0.25633603
   0.18738092  0.45709080  0.56527140
   0.06037446  0.86776481  0.16704571
   0.18589062  0.28742690  0.61031748
   0.18825281  0.78985179  0.38966170
   0.31152245  0.20654038  0.69954785
   0.56326987  0.53915312  0.87522763
   0.06259072  0.70590964  0.56520526
   0.68872147  0.61891224  0.78762780
   0.31374215  0.54000049  0.38949484
   0.18738427  0.62131279  0.52140462
   0.56262569  0.87205591  0.43460669
   0.43726409  0.45721086  0.56519927
   0.43838875  0.28930761  0.74367840
   0.81487814  0.87565035  0.30076937
   0.81038229  0.70440662  0.34545113
   0.43856351  0.45915460  0.83274638
   0.68772475  0.95594577  0.47864317
   0.68829281  0.45673738  0.69951632
   0.56273258  0.87101899  0.52138413
   0.56508683  0.37227549  0.65470071
   0.81463835  0.87301452  0.65505225
   0.81244934  0.37285377  0.43462848
   0.80995129  0.54063469  0.25646422
   0.69040797  0.46016869  0.83283815
   0.18872168  0.78744361  0.12444027
   0.68807223  0.28984607  0.38947125
   0.31436770  0.37256631  0.65482352
   0.31039549  0.20500413  0.34544542
   0.81371265  0.53777772  0.74340755
   0.68842352  0.95989932  0.83252122
   0.56397363  0.87334549  0.65478206
   0.31265189  0.70680242  0.56532183
   0.31297110  0.53445323  0.12447818
   0.68730035  0.95738483  0.21190138
   0.31191649  0.20679068  0.56539240
   0.18717111  0.95582912  0.47861835
   0.68818402  0.95722362  0.56539447
   0.43553101  0.78868819  0.61047536
   0.68585569  0.61608317  0.16704691
   0.31417716  0.87470193  0.30054630
   0.31287189  0.70510012  0.47871622
   0.93503941  0.28769232  0.61068904
   0.44046955  0.62490313  0.30104144
   0.81105747  0.86730307  0.16719748
   0.56400319  0.20616430  0.21188558
   0.93631550  0.61645370  0.16694603
   0.94058904  0.78900882  0.87505917
   0.56233956  0.36801063  0.78738185
   0.06184669  0.37209497  0.52146979
   0.31061225  0.36411963  0.16723191
   0.69083830  0.12454617  0.30088699
   0.43947889  0.95849300  0.83261654
   0.18764710  0.28910112  0.12493825
   0.18447444  0.29085674  0.25663040
   0.31223195  0.37143954  0.43469706
   0.56238082  0.03400698  0.12481929
   0.43509253  0.28765273  0.61037063
   0.18550868  0.45450890  0.34550431
   0.43686017  0.28897306  0.12488972
   0.68465035  0.79140159  0.25629960
   0.43723393  0.12172677  0.52132891
   0.18888918  0.29188452  0.87516627
   0.18836284  0.12263144  0.65495610
   0.93930863  0.12361608  0.65521371
   0.81320559  0.54006016  0.38962550
   0.06329537  0.04031951  0.38945829
   0.18494219  0.11537691  0.16650937
   0.05968715  0.53758742  0.61060586
   0.93565745  0.29055574  0.25660419
   0.56037938  0.53806500  0.61050560
   0.93753482  0.95718724  0.56533462
   0.69052127  0.62483524  0.30078730
   0.93754870  0.62233336  0.43465934
   0.93635612  0.61925873  0.78747205
   0.56255103  0.70707371  0.69952221
   0.06236769  0.71192453  0.83284630
   0.93969724  0.12442267  0.30073400
   0.93534588  0.78751654  0.61076277
   0.43439571  0.79056530  0.25642830
   0.31249957  0.36862612  0.78754094
   0.43926013  0.45784894  0.21216898
   0.18773918  0.12069923  0.52137824
   0.81295512  0.70703883  0.69941662
   0.06054720  0.03734634  0.61052421
   0.56318798  0.20952446  0.83229542
   0.31172050  0.87100781  0.52134521
   0.68711553  0.28984895  0.12471959
   0.18742224  0.95789232  0.21230030
   0.68512793  0.28812626  0.61060169
   0.30977067  0.03816901  0.61061957
   0.93792355  0.11854935  0.78753873
   0.43769727  0.79143337  0.87527339
   0.81429650  0.03867588  0.74353731
   0.93702884  0.45729318  0.69948055
   0.18753744  0.62295862  0.65477996
   0.31125720  0.70786228  0.69961051
   0.93771830  0.28964758  0.12474288
   0.43738128  0.45554508  0.47871725
   0.06268876  0.70553523  0.47867882
   0.93677217  0.12308658  0.43488791
   0.43865253  0.12485934  0.30079530
   0.18777769  0.12158665  0.43452863
   0.56389143  0.03556124  0.87539528
   0.18724892  0.95732667  0.56541134
   0.68769056  0.79043236  0.12505850
   0.56288991  0.53238063  0.12487149
   0.31360074  0.03965357  0.38961357
   0.68615435  0.11629824  0.16725241
   0.81274117  0.20613050  0.21187541
   0.06054205  0.54096519  0.25656108
   0.56213944  0.70526184  0.47872073
   0.43554616  0.78748682  0.12445962
   0.56562926  0.37535400  0.30095012
   0.43595186  0.95455820  0.34550671
   0.18624542  0.95770000  0.69952009
   0.43439673  0.61683074  0.16691154
   0.93859293  0.45813042  0.21231637
   0.06269129  0.53250935  0.12495352
   0.81257938  0.37177014  0.52139266
   0.93924064  0.62457532  0.30078110
   0.30994666  0.03990441  0.25630350
   0.68495549  0.78836415  0.61062643
   0.18873256  0.45939158  0.83278389
   0.43593994  0.11590997  0.16664535
   0.31188612  0.37161633  0.52142954
   0.43692979  0.61795153  0.78762508
   0.06009937  0.04089996  0.25660130
   0.56228376  0.70670885  0.56541646
   0.93786048  0.28760183  0.74329285
   0.68687064  0.11783844  0.78741034
   0.18787228  0.45791777  0.21218114
   0.93842492  0.79037692  0.38950601
   0.68760112  0.29209666  0.87516922
   0.56165557  0.86762326  0.16708334
   0.43727042  0.45633647  0.69948852
   0.93602954  0.95476547  0.34528728
   0.68673368  0.62124480  0.52137338
   0.06298760  0.87259321  0.65503646
   0.06230689  0.87002203  0.78761166
   0.06308825  0.37197915  0.65492483
   0.68744212  0.45557835  0.47877505
   0.18471403  0.79126937  0.25656179
   0.43743222  0.12140280  0.43469025
   0.81228489  0.03399876  0.12481516
   0.93690801  0.62143835  0.52141388
   0.06259441  0.87166519  0.43454707
   0.81284008  0.53354596  0.12455470
   0.43581244  0.45477585  0.34586592