       N       E                     dE             d eps       ncg     rms          rms(c)
DAV:   1     0.303682083789E+05    0.30368E+05   -0.91666E+05 27770   0.213E+03
DAV:   2     0.151717511928E+04   -0.28851E+05   -0.28257E+05 27600   0.616E+02
DAV:   3    -0.190005402835E+04   -0.34172E+04   -0.29706E+04 38510   0.298E+02
DAV:   4    -0.261115805876E+04   -0.71110E+03   -0.64762E+03 50700   0.103E+02
DAV:   5    -0.274081270971E+04   -0.12965E+03   -0.12128E+03 48280   0.422E+01    0.206E+02
RMM:   6    -0.704969160013E+04   -0.43089E+04   -0.16771E+04 48349   0.287E+02    0.850E+02
RMM:   7    -0.758435829908E+04   -0.53467E+03   -0.10782E+04 49446   0.144E+02    0.683E+02
RMM:   8    -0.696180279821E+04    0.62256E+03   -0.18560E+04 39082   0.398E+02    0.116E+03
RMM:   9    -0.944076412084E+04   -0.24790E+04   -0.11856E+04 44696   0.258E+02    0.125E+03
RMM:  10    -0.105371814705E+05   -0.10964E+04   -0.10736E+04 45349   0.297E+02    0.141E+03
RMM:  11    -0.141735129071E+05   -0.36363E+04   -0.14950E+04 48273   0.249E+02    0.113E+03
RMM:  12    -0.135678306736E+05    0.60568E+03   -0.13381E+04 45323   0.285E+02    0.108E+03
RMM:  13    -0.113753484460E+05    0.21925E+04   -0.77903E+03 46800   0.173E+02    0.952E+02
RMM:  14    -0.765666418655E+04    0.37187E+04   -0.71155E+03 47586   0.171E+02    0.730E+02
RMM:  15    -0.639057224204E+04    0.12661E+04   -0.40767E+03 46439   0.856E+01    0.596E+02
RMM:  16    -0.729466255281E+04   -0.90409E+03   -0.56008E+03 41057   0.140E+02    0.544E+02
RMM:  17    -0.232129301912E+04    0.49734E+04   -0.42854E+03 29464   0.131E+02    0.317E+02
RMM:  18    -0.254559354493E+04   -0.22430E+03   -0.41410E+03 48260   0.101E+02    0.300E+02
RMM:  19    -0.264051187866E+04   -0.94918E+02   -0.29967E+03 49763   0.886E+01    0.282E+02
RMM:  20    -0.233205676290E+04    0.30846E+03   -0.24188E+03 48445   0.700E+01    0.192E+02
RMM:  21    -0.244086413498E+04   -0.10881E+03   -0.15965E+03 49652   0.639E+01    0.164E+02
RMM:  22    -0.258408938104E+04   -0.14323E+03   -0.14578E+03 50453   0.463E+01    0.166E+02
RMM:  23    -0.266337781309E+04   -0.79288E+02   -0.73259E+02 49243   0.440E+01    0.147E+02
RMM:  24    -0.275434284288E+04   -0.90965E+02   -0.84490E+02 49555   0.364E+01    0.170E+02
RMM:  25    -0.269011662304E+04    0.64226E+02   -0.57935E+02 48900   0.343E+01    0.148E+02
RMM:  26    -0.269891934488E+04   -0.88027E+01   -0.64692E+02 49747   0.219E+01    0.146E+02
RMM:  27    -0.268754609731E+04    0.11373E+02   -0.51763E+02 46965   0.215E+01    0.150E+02
RMM:  28    -0.272372382316E+04   -0.36178E+02   -0.47605E+02 49863   0.150E+01    0.157E+02
RMM:  29    -0.279470577351E+04   -0.70982E+02   -0.33591E+02 46868   0.141E+01    0.172E+02
RMM:  30    -0.275097900076E+04    0.43727E+02   -0.46849E+02 45813   0.170E+01    0.192E+02
RMM:  31    -0.270146011324E+04    0.49519E+02   -0.52026E+02 48669   0.117E+01    0.194E+02
RMM:  32    -0.265976602677E+04    0.41694E+02   -0.45977E+02 46127   0.108E+01    0.194E+02
RMM:  33    -0.268717250460E+04   -0.27406E+02   -0.44040E+02 47997   0.823E+00    0.203E+02
RMM:  34    -0.272855650178E+04   -0.41384E+02   -0.43525E+02 47685   0.682E+00    0.214E+02
RMM:  35    -0.279984036767E+04   -0.71284E+02   -0.50500E+02 42963   0.832E+00    0.229E+02
RMM:  36    -0.284703985137E+04   -0.47199E+02   -0.51691E+02 45799   0.699E+00    0.243E+02
RMM:  37    -0.289209693359E+04   -0.45057E+02   -0.42420E+02 46017   0.588E+00    0.255E+02
RMM:  38    -0.296685749876E+04   -0.74761E+02   -0.30469E+02 38695   0.581E+00    0.268E+02
RMM:  39    -0.301371827087E+04   -0.46861E+02   -0.18705E+02 40114   0.462E+00    0.277E+02
RMM:  40    -0.303436260093E+04   -0.20644E+02   -0.10214E+02 42434   0.294E+00    0.283E+02
RMM:  41    -0.304237671524E+04   -0.80141E+01   -0.51896E+01 36113   0.288E+00    0.285E+02
RMM:  42    -0.299569589117E+04    0.46681E+02   -0.27687E+01 34288   0.442E+00    0.282E+02
RMM:  43    -0.293123838086E+04    0.64458E+02   -0.19345E+01 40471   0.294E+00    0.277E+02
RMM:  44    -0.294912394967E+04   -0.17886E+02   -0.12088E+01 43827   0.100E+00    0.278E+02
RMM:  45    -0.302601849391E+04   -0.76895E+02   -0.72583E+00 32976   0.174E+00    0.284E+02
RMM:  46    -0.302253278685E+04    0.34857E+01   -0.45174E+00 42585   0.509E-01    0.285E+02
RMM:  47    -0.313214352016E+04   -0.10961E+03   -0.97322E+00 35308   0.264E+00    0.292E+02
RMM:  48    -0.312505316390E+04    0.70904E+01   -0.64289E+00 42503   0.741E-01    0.294E+02
RMM:  49    -0.313915229892E+04   -0.14099E+02   -0.37814E+00 39490   0.638E-01    0.296E+02
RMM:  50    -0.311027433566E+04    0.28878E+02   -0.18853E+00 30594   0.157E+00    0.295E+02
RMM:  51    -0.348358931918E+04   -0.37331E+03   -0.52531E+02 36665   0.274E+01    0.300E+02
RMM:  52    -0.314357081721E+04    0.34002E+03   -0.39513E+02 44810   0.127E+01    0.278E+02
RMM:  53    -0.315319074780E+04   -0.96199E+01   -0.20676E+02 44761   0.715E+00    0.283E+02
RMM:  54    -0.311862182075E+04    0.34569E+02   -0.77513E+01 35259   0.606E+00    0.278E+02
RMM:  55    -0.308397925592E+04    0.34643E+02   -0.46522E+01 37599   0.559E+00    0.276E+02
RMM:  56    -0.324952636778E+04   -0.16555E+03   -0.44551E+02 33530   0.312E+01    0.244E+02
RMM:  57    -0.330358495345E+04   -0.54059E+02   -0.37045E+02 40731   0.199E+01    0.241E+02
RMM:  58    -0.361851076812E+04   -0.31493E+03   -0.34270E+02 37135   0.209E+01    0.297E+02
RMM:  59    -0.425351413816E+04   -0.63500E+03   -0.61353E+02 43471   0.223E+01    0.322E+02
RMM:  60    -0.459796558964E+04   -0.34445E+03   -0.46365E+02 43544   0.192E+01    0.334E+02
RMM:  61    -0.501455810089E+04   -0.41659E+03   -0.46730E+02 43163   0.229E+01    0.361E+02
RMM:  62    -0.504492973548E+04   -0.30372E+02   -0.28057E+02 46185   0.107E+01    0.365E+02
RMM:  63    -0.503547877605E+04    0.94510E+01   -0.18477E+02 45274   0.833E+00    0.369E+02
RMM:  64    -0.499511005951E+04    0.40369E+02   -0.14667E+02 46336   0.663E+00    0.371E+02
RMM:  65    -0.495828547121E+04    0.36825E+02   -0.12737E+02 45027   0.639E+00    0.375E+02
RMM:  66    -0.492069918738E+04    0.37586E+02   -0.18449E+02 41275   0.102E+01    0.377E+02
RMM:  67    -0.498499905214E+04   -0.64300E+02   -0.14382E+02 44964   0.634E+00    0.383E+02
RMM:  68    -0.518909090588E+04   -0.20409E+03   -0.22257E+02 45017   0.821E+00    0.393E+02
RMM:  69    -0.547832177438E+04   -0.28923E+03   -0.21090E+02 44925   0.962E+00    0.403E+02
RMM:  70    -0.562692661667E+04   -0.14860E+03   -0.16147E+02 45237   0.827E+00    0.409E+02
RMM:  71    -0.578698317221E+04   -0.16006E+03   -0.54408E+02 37669   0.278E+01    0.438E+02
RMM:  72    -0.539620010631E+04    0.39078E+03   -0.15540E+02 33466   0.177E+01    0.424E+02
RMM:  73    -0.526032132263E+04    0.13588E+03   -0.18424E+02 43584   0.924E+00    0.428E+02
RMM:  74    -0.512879847576E+04    0.13152E+03   -0.13930E+02 43177   0.651E+00    0.426E+02
RMM:  75    -0.494595594013E+04    0.18284E+03   -0.14123E+02 43110   0.698E+00    0.430E+02
RMM:  76    -0.581525692595E+04   -0.86930E+03   -0.94210E+02 34582   0.485E+01    0.447E+02
RMM:  77    -0.483055590025E+04    0.98470E+03   -0.29528E+02 33976   0.272E+01    0.405E+02
RMM:  78    -0.430196932239E+04    0.52859E+03   -0.30399E+02 32535   0.220E+01    0.372E+02
RMM:  79    -0.409966583012E+04    0.20230E+03   -0.31400E+02 31858   0.247E+01    0.360E+02
RMM:  80    -0.389490457923E+04    0.20476E+03   -0.18739E+02 33821   0.185E+01    0.345E+02
RMM:  81    -0.403954941297E+04   -0.14464E+03   -0.16761E+03 33458   0.604E+01    0.367E+02
RMM:  82    -0.274524072032E+04    0.12943E+04   -0.40663E+02 27600   0.449E+01    0.238E+02
RMM:  83    -0.266556006530E+04    0.79681E+02   -0.32033E+02 32016   0.266E+01    0.211E+02
RMM:  84    -0.281591827238E+04   -0.15036E+03   -0.13356E+02 28303   0.218E+01    0.250E+02
RMM:  85    -0.297521024739E+04   -0.15929E+03   -0.14329E+02 33261   0.166E+01    0.270E+02
RMM:  86    -0.279896078723E+04    0.17625E+03   -0.18738E+02 28910   0.252E+01    0.226E+02
RMM:  87    -0.262989738380E+04    0.16906E+03   -0.78385E+01 27806   0.196E+01    0.194E+02
RMM:  88    -0.275149137723E+04   -0.12159E+03   -0.62955E+01 34564   0.959E+00    0.227E+02
RMM:  89    -0.280830943245E+04   -0.56818E+02   -0.13150E+01 29860   0.635E+00    0.235E+02
RMM:  90    -0.281884075495E+04   -0.10531E+02   -0.12575E+01 40108   0.267E+00    0.236E+02
RMM:  91    -0.344516338857E+04   -0.62632E+03   -0.27290E+03 39244   0.865E+01    0.330E+02
RMM:  92    -0.291199889601E+04    0.53316E+03   -0.15253E+03 42088   0.510E+01    0.203E+02
RMM:  93    -0.299267044262E+04   -0.80672E+02   -0.10252E+03 39035   0.373E+01    0.211E+02
RMM:  94    -0.302081874880E+04   -0.28148E+02   -0.90670E+02 42398   0.326E+01    0.199E+02
RMM:  95    -0.300526310893E+04    0.15556E+02   -0.75928E+02 44752   0.266E+01    0.188E+02
RMM:  96    -0.314207019674E+04   -0.13681E+03   -0.11121E+03 44051   0.389E+01    0.221E+02
RMM:  97    -0.325640163197E+04   -0.11433E+03   -0.89275E+02 43058   0.267E+01    0.217E+02
RMM:  98    -0.333993598018E+04   -0.83534E+02   -0.89937E+02 48344   0.168E+01    0.227E+02
RMM:  99    -0.342064896857E+04   -0.80713E+02   -0.77173E+02 44984   0.152E+01    0.241E+02
RMM: 100    -0.345340352304E+04   -0.32755E+02   -0.68696E+02 46155   0.132E+01
   1 F= -.34534035E+04 E0= -.34517675E+04  d E =-.345340E+04
       N       E                     dE             d eps       ncg     rms          rms(c)
DAV:   1    -0.378935979776E+04   -0.36871E+03   -0.18677E+04 36860   0.201E+02    0.511E+02
RMM:   2    -0.101397939916E+06   -0.97609E+05   -0.48812E+05 50964   0.292E+03    0.103E+04
RMM:   3    -0.140674587595E+06   -0.39277E+05   -0.57058E+05 47847   0.324E+03    0.109E+04
RMM:   4    -0.178281087371E+06   -0.37606E+05   -0.55435E+05 48593   0.371E+03    0.146E+04
RMM:   5    -0.238295606500E+06   -0.60015E+05   -0.57685E+05 46639   0.422E+03    0.136E+04
RMM:   6    -0.276901728590E+06   -0.38606E+05   -0.50800E+05 42490   0.386E+03    0.133E+04
RMM:   7    -0.320844172419E+06   -0.43942E+05   -0.47218E+05 38808   0.362E+03    0.131E+04
RMM:   8    -0.339110917524E+06   -0.18267E+05   -0.27015E+05 36642   0.359E+03    0.129E+04
RMM:   9    -0.346295796907E+06   -0.71849E+04   -0.18839E+05 36744   0.393E+03    0.136E+04
RMM:  10    -0.333384733607E+06    0.12911E+05   -0.17461E+05 36631   0.404E+03    0.140E+04
RMM:  11    -0.342321283637E+06   -0.89366E+04   -0.20422E+05 35600   0.409E+03    0.145E+04
RMM:  12    -0.327759720845E+06    0.14562E+05    0.88147E+03 34747   0.404E+03    0.138E+04
RMM:  13    -0.343624379082E+06   -0.15865E+05   -0.17587E+05 36841   0.448E+03    0.145E+04
RMM:  14    -0.343030454047E+06    0.59393E+03   -0.16396E+05 36636   0.453E+03    0.142E+04
RMM:  15    -0.329914670149E+06    0.13116E+05   -0.47036E+04 35630   0.451E+03    0.139E+04
RMM:  16    -0.336522182242E+06   -0.66075E+04   -0.21071E+05 38214   0.471E+03    0.140E+04
RMM:  17    -0.340421921916E+06   -0.38997E+04   -0.24688E+05 36864   0.467E+03    0.141E+04
RMM:  18    -0.324670355101E+06    0.15752E+05   -0.58149E+04 35985   0.453E+03    0.133E+04
RMM:  19    -0.332522385656E+06   -0.78520E+04   -0.23390E+05 38434   0.479E+03    0.138E+04
RMM:  20    -0.336581600942E+06   -0.40592E+04   -0.29888E+05 37195   0.475E+03    0.139E+04
RMM:  21    -0.328014085826E+06    0.85675E+04   -0.14714E+05 36015   0.461E+03    0.134E+04
RMM:  22    -0.316901497371E+06    0.11113E+05   -0.27364E+05 37716   0.454E+03    0.135E+04
RMM:  23    -0.279230244031E+06    0.37671E+05   -0.34786E+05 35255   0.386E+03    0.140E+04
RMM:  24    -0.261660658428E+06    0.17570E+05    0.20201E+04 29660   0.328E+03    0.127E+04
RMM:  25    -0.267874382574E+06   -0.62137E+04   -0.16443E+05 33369   0.358E+03    0.138E+04
RMM:  26    -0.246256758319E+06    0.21618E+05   -0.23093E+05 32318   0.305E+03    0.144E+04
RMM:  27    -0.223423508277E+06    0.22833E+05    0.61772E+04 29162   0.275E+03    0.132E+04
RMM:  28    -0.213957334021E+06    0.94662E+04    0.67764E+04 29507   0.314E+03    0.133E+04
RMM:  29    -0.231388384016E+06   -0.17431E+05   -0.15412E+05 32332   0.334E+03    0.149E+04
RMM:  30    -0.147032378427E+06    0.84356E+05   -0.28128E+05 35609   0.190E+03    0.138E+04
RMM:  31    -0.133753925490E+06    0.13278E+05   -0.51621E+04 29989   0.107E+03    0.116E+04
RMM:  32    -0.476377533174E+05    0.86116E+05   -0.28388E+04 42011   0.493E+02    0.998E+03
RMM:  33    -0.687160466902E+04    0.40766E+05   -0.37290E+04 46994   0.292E+02    0.816E+03
RMM:  34    -0.565212207826E+03    0.63064E+04   -0.26878E+04 46491   0.258E+02    0.625E+03
RMM:  35     0.229016574884E+05    0.23467E+05   -0.50595E+04 50367   0.343E+02    0.535E+03
RMM:  36     0.237404759382E+05    0.83882E+03   -0.63958E+04 50620   0.364E+02    0.467E+03
RMM:  37     0.190076449686E+05   -0.47328E+04   -0.66867E+04 50593   0.375E+02    0.399E+03
RMM:  38     0.156495366243E+05   -0.33581E+04   -0.65766E+04 50519   0.364E+02    0.335E+03
RMM:  39     0.104122238831E+05   -0.52373E+04   -0.54430E+04 50532   0.317E+02    0.264E+03
RMM:  40     0.744509894629E+04   -0.29671E+04   -0.48677E+04 50435   0.296E+02    0.235E+03
RMM:  41     0.351414809314E+04   -0.39310E+04   -0.48244E+04 50742   0.314E+02    0.208E+03
RMM:  42    -0.485608791185E+03   -0.39998E+04   -0.37416E+04 49530   0.322E+02    0.259E+03
RMM:  43    -0.553403651999E+04   -0.50484E+04   -0.32172E+04 47447   0.395E+02    0.283E+03
RMM:  44    -0.615396478202E+04   -0.61993E+03   -0.15441E+04 47919   0.310E+02    0.265E+03
RMM:  45    -0.766874178625E+04   -0.15148E+04   -0.15744E+04 50296   0.258E+02    0.204E+03
RMM:  46    -0.286285013551E+04    0.48059E+04   -0.11955E+04 36897   0.248E+02    0.569E+02
RMM:  47    -0.314791114652E+05   -0.28616E+05   -0.19586E+05 51569   0.113E+03    0.618E+03
RMM:  48    -0.270822180594E+05    0.43969E+04   -0.10957E+05 50635   0.825E+02    0.486E+03
RMM:  49    -0.331878332900E+05   -0.61056E+04   -0.88246E+04 50683   0.624E+02    0.469E+03
RMM:  50    -0.327157995465E+05    0.47203E+03   -0.73632E+04 50574   0.522E+02    0.465E+03
RMM:  51    -0.336810364089E+05   -0.96524E+03   -0.39248E+04 50453   0.417E+02    0.410E+03
RMM:  52    -0.183743940755E+05    0.15307E+05   -0.12454E+04 44930   0.201E+02    0.237E+03
RMM:  53     0.462127398062E+03    0.18837E+05   -0.48976E+04 50102   0.411E+02    0.197E+03
RMM:  54     0.776980530789E+03    0.31485E+03   -0.29369E+04 48661   0.351E+02    0.214E+03
RMM:  55    -0.860062464168E+03   -0.16370E+04   -0.43342E+04 44093   0.491E+02    0.230E+03
RMM:  56    -0.514421544591E+04   -0.42842E+04   -0.47262E+04 44844   0.562E+02    0.326E+03
RMM:  57    -0.112699721980E+05   -0.61258E+04   -0.64169E+04 45090   0.664E+02    0.335E+03
RMM:  58    -0.160804938371E+05   -0.48105E+04   -0.64991E+04 47342   0.516E+02    0.341E+03
RMM:  59    -0.175021571604E+05   -0.14217E+04   -0.26466E+04 47286   0.444E+02    0.405E+03
RMM:  60    -0.210821319568E+05   -0.35800E+04   -0.25466E+04 48175   0.425E+02    0.376E+03
RMM:  61    -0.133011161165E+05    0.77810E+04   -0.15990E+04 47753   0.277E+02    0.220E+03
RMM:  62    -0.527235144222E+04    0.80288E+04   -0.13772E+04 48581   0.224E+02    0.120E+03
RMM:  63    -0.115193780311E+03    0.51572E+04   -0.23088E+04 49338   0.264E+02    0.936E+02
RMM:  64    -0.570640813224E+02    0.58130E+02   -0.27723E+04 45740   0.295E+02    0.162E+03
RMM:  65    -0.271168672815E+04   -0.26546E+04   -0.37039E+04 45375   0.363E+02    0.225E+03
RMM:  66    -0.679683321793E+04   -0.40851E+04   -0.31294E+04 45405   0.416E+02    0.308E+03
RMM:  67    -0.102679023608E+05   -0.34711E+04   -0.33978E+04 45298   0.472E+02    0.304E+03
RMM:  68    -0.126223255367E+05   -0.23544E+04   -0.35078E+04 44541   0.429E+02    0.308E+03
RMM:  69    -0.144402170843E+05   -0.18179E+04   -0.30046E+04 45248   0.367E+02    0.263E+03
RMM:  70    -0.141909348472E+05    0.24928E+03   -0.21190E+04 48420   0.258E+02    0.215E+03
RMM:  71    -0.109514413226E+05    0.32395E+04   -0.10785E+04 50271   0.184E+02    0.152E+03
RMM:  72    -0.649651488553E+04    0.44549E+04   -0.76189E+03 45657   0.149E+02    0.887E+02
RMM:  73    -0.318253269073E+04    0.33140E+04   -0.26766E+03 27716   0.112E+02    0.376E+02
RMM:  74    -0.265082818403E+04    0.53170E+03   -0.41852E+03 40613   0.808E+01    0.320E+02
RMM:  75    -0.261263277104E+04    0.38195E+02   -0.27345E+03 39793   0.679E+01    0.278E+02
RMM:  76    -0.207912143238E+04    0.53351E+03   -0.31029E+03 40390   0.815E+01    0.225E+02
RMM:  77    -0.319753964898E+04   -0.11184E+04   -0.38802E+03 44468   0.103E+02    0.316E+02
RMM:  78    -0.265772263428E+04    0.53982E+03   -0.36844E+03 45458   0.765E+01    0.242E+02
RMM:  79    -0.269446920033E+04   -0.36747E+02   -0.23506E+03 47150   0.726E+01    0.221E+02
RMM:  80    -0.287275390530E+04   -0.17828E+03   -0.22300E+03 47238   0.542E+01    0.226E+02
RMM:  81    -0.285953812428E+04    0.13216E+02   -0.15375E+03 47072   0.493E+01    0.194E+02
RMM:  82    -0.310916295915E+04   -0.24962E+03   -0.17714E+03 48766   0.507E+01    0.216E+02
RMM:  83    -0.310220672306E+04    0.69562E+01   -0.11080E+03 41111   0.418E+01    0.209E+02
RMM:  84    -0.310776301705E+04   -0.55563E+01   -0.11465E+03 47634   0.326E+01    0.220E+02
RMM:  85    -0.298373354644E+04    0.12403E+03   -0.98459E+02 43400   0.284E+01    0.219E+02
RMM:  86    -0.281268931079E+04    0.17104E+03   -0.93740E+02 44507   0.218E+01    0.217E+02
RMM:  87    -0.294428241826E+04   -0.13159E+03   -0.84263E+02 36886   0.285E+01    0.250E+02
RMM:  88    -0.298370544631E+04   -0.39423E+02   -0.86223E+02 32909   0.395E+01    0.266E+02
RMM:  89    -0.251033299069E+04    0.47337E+03   -0.51498E+02 33600   0.325E+01    0.195E+02
RMM:  90    -0.238408389945E+04    0.12625E+03   -0.44523E+02 31983   0.324E+01    0.148E+02
RMM:  91    -0.252544239150E+04   -0.14136E+03   -0.50961E+02 33361   0.346E+01    0.181E+02
RMM:  92    -0.327704946758E+04   -0.75161E+03   -0.16395E+03 45265   0.439E+01    0.259E+02
RMM:  93    -0.301272751066E+04    0.26432E+03   -0.84982E+02 39038   0.346E+01    0.224E+02
RMM:  94    -0.312410443634E+04   -0.11138E+03   -0.91494E+02 42888   0.292E+01    0.229E+02
RMM:  95    -0.325344201934E+04   -0.12934E+03   -0.80524E+02 42583   0.283E+01    0.238E+02
RMM:  96    -0.325413495656E+04   -0.69294E+00   -0.48817E+02 40989   0.225E+01    0.258E+02
RMM:  97    -0.303040254506E+04    0.22373E+03   -0.75197E+02 39010   0.341E+01    0.245E+02
RMM:  98    -0.272360363479E+04    0.30680E+03   -0.24438E+02 30842   0.271E+01    0.217E+02
RMM:  99    -0.278901890862E+04   -0.65415E+02   -0.26253E+02 31274   0.245E+01    0.236E+02
RMM: 100    -0.249476017522E+04    0.29426E+03   -0.17930E+02 32917   0.192E+01
   2 F= -.24947602E+04 E0= -.24924140E+04  d E =0.958643E+03
       N       E                     dE             d eps       ncg     rms          rms(c)
DAV:   1    -0.249407827944E+04    0.29494E+03   -0.29325E+02 53560   0.612E+01    0.186E+02
RMM:   2    -0.542913364352E+05   -0.51797E+05   -0.10268E+05 51124   0.940E+02    0.318E+03
RMM:   3    -0.565974118632E+05   -0.23061E+04   -0.88005E+04 50193   0.743E+02    0.335E+03
RMM:   4    -0.640329708052E+05   -0.74356E+04   -0.10387E+05 50540   0.724E+02    0.411E+03
RMM:   5    -0.752510415993E+05   -0.11218E+05   -0.12655E+05 50567   0.784E+02    0.442E+03
RMM:   6    -0.881596468820E+05   -0.12909E+05   -0.14356E+05 50529   0.864E+02    0.470E+03
RMM:   7    -0.100501922395E+06   -0.12342E+05   -0.15823E+05 50520   0.880E+02    0.454E+03
RMM:   8    -0.103106464340E+06   -0.26045E+04   -0.13685E+05 50509   0.764E+02    0.445E+03
RMM:   9    -0.992119538546E+05    0.38945E+04   -0.94543E+04 50405   0.577E+02    0.376E+03
RMM:  10    -0.795963635721E+05    0.19616E+05   -0.46768E+04 49470   0.346E+02    0.304E+03
RMM:  11    -0.500721805945E+05    0.29524E+05   -0.20672E+04 48821   0.184E+02    0.214E+03
RMM:  12    -0.103055480120E+05    0.39767E+05   -0.26482E+04 50013   0.313E+02    0.195E+03
RMM:  13    -0.758099172278E+04    0.27246E+04   -0.12721E+04 49624   0.319E+02    0.208E+03
RMM:  14    -0.919884373378E+04   -0.16179E+04   -0.13802E+04 50735   0.221E+02    0.150E+03
RMM:  15    -0.399325042186E+04    0.52056E+04   -0.12915E+04 42123   0.205E+02    0.978E+02
RMM:  16    -0.466211056603E+04   -0.66886E+03   -0.11867E+04 41445   0.258E+02    0.861E+02
RMM:  17    -0.820342381842E+03    0.38418E+04   -0.56780E+03 50391   0.136E+02    0.446E+02
RMM:  18     0.437607482814E+03    0.12579E+04   -0.56915E+03 50580   0.118E+02    0.418E+02
RMM:  19     0.109228215209E+04    0.65467E+03   -0.53651E+03 51946   0.103E+02    0.323E+02
RMM:  20     0.482821553796E+03   -0.60946E+03   -0.40512E+03 52043   0.117E+02    0.287E+02
RMM:  21    -0.260332592036E+03   -0.74315E+03   -0.44888E+03 52624   0.912E+01    0.238E+02
RMM:  22    -0.104261409745E+04   -0.78228E+03   -0.21715E+03 51177   0.817E+01    0.259E+02
RMM:  23    -0.116439361477E+04   -0.12178E+03   -0.25666E+03 51662   0.571E+01    0.203E+02
RMM:  24    -0.156904599144E+04   -0.40465E+03   -0.15806E+03 51799   0.536E+01    0.223E+02
RMM:  25    -0.176548543157E+04   -0.19644E+03   -0.21076E+03 50604   0.540E+01    0.211E+02
RMM:  26    -0.171337161060E+04    0.52114E+02   -0.12147E+03 49959   0.511E+01    0.141E+02
RMM:  27    -0.192669398552E+04   -0.21332E+03   -0.15545E+03 51143   0.337E+01    0.164E+02
RMM:  28    -0.205469628424E+04   -0.12800E+03   -0.13683E+03 48631   0.357E+01    0.161E+02
RMM:  29    -0.213721071035E+04   -0.82514E+02   -0.11296E+03 47043   0.284E+01    0.125E+02
RMM:  30    -0.222021003433E+04   -0.82999E+02   -0.12784E+03 47309   0.278E+01    0.104E+02
RMM:  31    -0.226068338749E+04   -0.40473E+02   -0.73554E+02 41862   0.256E+01    0.994E+01
RMM:  32    -0.233955758751E+04   -0.78874E+02   -0.73432E+02 43129   0.216E+01    0.119E+02
RMM:  33    -0.235737781204E+04   -0.17820E+02   -0.46207E+02 40913   0.163E+01    0.112E+02
RMM:  34    -0.237100992757E+04   -0.13632E+02   -0.23304E+02 39803   0.121E+01    0.119E+02
RMM:  35    -0.237378466618E+04   -0.27747E+01   -0.11607E+02 37043   0.981E+00    0.115E+02
RMM:  36    -0.237556451636E+04   -0.17799E+01   -0.87921E+01 45826   0.430E+00    0.112E+02
RMM:  37    -0.237645185319E+04   -0.88734E+00   -0.36594E+01 45676   0.225E+00    0.110E+02
RMM:  38    -0.237302756999E+04    0.34243E+01   -0.11586E+01 33339   0.363E+00    0.108E+02
RMM:  39    -0.236466192492E+04    0.83656E+01   -0.10479E+01 34828   0.340E+00    0.102E+02
RMM:  40    -0.235865073981E+04    0.60112E+01   -0.74105E+00 33525   0.307E+00    0.975E+01
RMM:  41    -0.236161769740E+04   -0.29670E+01   -0.11957E+01 33471   0.444E+00    0.102E+02
RMM:  42    -0.236524418062E+04   -0.36265E+01   -0.12988E+01 42471   0.251E+00    0.105E+02
RMM:  43    -0.238043356460E+04   -0.15189E+02   -0.95155E+00 35487   0.322E+00    0.119E+02
RMM:  44    -0.238066666576E+04   -0.23310E+00   -0.77935E+00 29789   0.512E+00    0.116E+02
RMM:  45    -0.240172337336E+04   -0.21057E+02   -0.11602E+01 29438   0.654E+00    0.132E+02
RMM:  46    -0.241494123181E+04   -0.13218E+02   -0.20475E+01 29449   0.798E+00    0.138E+02
RMM:  47    -0.248637835830E+04   -0.71437E+02   -0.28234E+02 35390   0.215E+01    0.119E+02
RMM:  48    -0.246906398120E+04    0.17314E+02   -0.25063E+02 34709   0.176E+01    0.111E+02
RMM:  49    -0.241474332833E+04    0.54321E+02   -0.17237E+02 40289   0.135E+01    0.936E+01
RMM:  50    -0.243907649731E+04   -0.24333E+02   -0.14288E+02 39111   0.131E+01    0.103E+02
RMM:  51    -0.246854876601E+04   -0.29472E+02   -0.11922E+02 37111   0.112E+01    0.106E+02
RMM:  52    -0.253349203391E+04   -0.64943E+02   -0.15377E+02 39056   0.110E+01    0.119E+02
RMM:  53    -0.249407916596E+04    0.39413E+02   -0.59285E+01 34679   0.844E+00    0.123E+02
RMM:  54    -0.245332767575E+04    0.40751E+02   -0.57917E+01 31597   0.110E+01    0.116E+02
RMM:  55    -0.240476122417E+04    0.48566E+02   -0.44546E+01 32601   0.960E+00    0.100E+02
RMM:  56    -0.237065420156E+04    0.34107E+02   -0.27772E+01 30793   0.843E+00    0.855E+01
RMM:  57    -0.246356581028E+04   -0.92912E+02   -0.17672E+02 32977   0.184E+01    0.144E+02
RMM:  58    -0.235525294466E+04    0.10831E+03   -0.76212E+01 28118   0.174E+01    0.823E+01
RMM:  59    -0.236730040761E+04   -0.12047E+02   -0.67964E+01 31067   0.127E+01    0.859E+01
RMM:  60    -0.236619747953E+04    0.11029E+01   -0.47355E+01 31190   0.110E+01    0.852E+01
RMM:  61    -0.236462846473E+04    0.15690E+01   -0.23055E+01 29021   0.923E+00    0.863E+01
RMM:  62    -0.246955297902E+04   -0.10492E+03   -0.98241E+01 29886   0.185E+01    0.128E+02
RMM:  63    -0.244699868709E+04    0.22554E+02   -0.10439E+02 37745   0.105E+01    0.124E+02
RMM:  64    -0.244615333386E+04    0.84535E+00   -0.67340E+01 42936   0.552E+00    0.131E+02
RMM:  65    -0.245407684572E+04   -0.79235E+01   -0.42279E+01 43350   0.326E+00    0.140E+02
RMM:  66    -0.245935591024E+04   -0.52791E+01   -0.30347E+01 44380   0.234E+00    0.147E+02
RMM:  67    -0.240289729187E+04    0.56459E+02   -0.52912E+01 28873   0.138E+01    0.118E+02
RMM:  68    -0.244654432030E+04   -0.43647E+02   -0.40640E+01 27602   0.155E+01    0.144E+02
RMM:  69    -0.243391071584E+04    0.12634E+02   -0.25567E+01 28393   0.106E+01    0.136E+02
RMM:  70    -0.242702373276E+04    0.68870E+01   -0.19659E+01 28131   0.920E+00    0.136E+02
RMM:  71    -0.242374046195E+04    0.32833E+01   -0.16541E+01 29172   0.778E+00    0.137E+02
RMM:  72    -0.237983627977E+04    0.43904E+02   -0.32838E+01 29798   0.997E+00    0.105E+02
RMM:  73    -0.236522642963E+04    0.14610E+02   -0.27566E+01 27601   0.116E+01    0.923E+01
RMM:  74    -0.235713081653E+04    0.80956E+01   -0.14487E+01 29158   0.702E+00    0.853E+01
RMM:  75    -0.235563182094E+04    0.14990E+01   -0.76692E+00 30850   0.441E+00    0.869E+01
RMM:  76    -0.236095682899E+04   -0.53250E+01   -0.54913E+00 33947   0.323E+00    0.934E+01
RMM:  77    -0.234918986071E+04    0.11767E+02   -0.77558E+01 29659   0.155E+01    0.785E+01
RMM:  78    -0.233475557193E+04    0.14434E+02   -0.39094E+01 27613   0.142E+01    0.607E+01
RMM:  79    -0.232831842255E+04    0.64371E+01   -0.18458E+01 27770   0.970E+00    0.508E+01
RMM:  80    -0.232837593492E+04   -0.57512E-01   -0.10086E+01 28131   0.701E+00    0.499E+01
RMM:  81    -0.233419967184E+04   -0.58237E+01   -0.79891E+00 28587   0.587E+00    0.587E+01
RMM:  82    -0.235518609254E+04   -0.20986E+02   -0.66885E+01 28969   0.156E+01    0.802E+01
RMM:  83    -0.232851809034E+04    0.26668E+02   -0.26648E+01 27600   0.134E+01    0.482E+01
RMM:  84    -0.232276194443E+04    0.57561E+01   -0.87223E+00 29311   0.576E+00    0.381E+01
RMM:  85    -0.232447473059E+04   -0.17128E+01   -0.99647E+00 31159   0.489E+00    0.407E+01
RMM:  86    -0.232326774340E+04    0.12070E+01   -0.76918E+00 31271   0.437E+00    0.375E+01
RMM:  87    -0.236657918786E+04   -0.43311E+02   -0.59176E+01 30567   0.125E+01    0.888E+01
RMM:  88    -0.232645383335E+04    0.40125E+02   -0.23006E+01 27600   0.116E+01    0.415E+01
RMM:  89    -0.232254618268E+04    0.39077E+01   -0.10273E+01 29099   0.628E+00    0.333E+01
RMM:  90    -0.232061185731E+04    0.19343E+01   -0.59642E+00 30121   0.415E+00    0.278E+01
RMM:  91    -0.231994892094E+04    0.66294E+00   -0.38888E+00 29924   0.344E+00    0.254E+01
RMM:  92    -0.233308982421E+04   -0.13141E+02   -0.25517E+01 29004   0.942E+00    0.531E+01
RMM:  93    -0.232050039807E+04    0.12589E+02   -0.10163E+01 27600   0.853E+00    0.264E+01
RMM:  94    -0.231952538108E+04    0.97502E+00   -0.42049E+00 29980   0.363E+00    0.227E+01
RMM:  95    -0.231943764638E+04    0.87735E-01   -0.39452E+00 31678   0.310E+00    0.213E+01
RMM:  96    -0.231864241645E+04    0.79523E+00   -0.15773E+00 28596   0.264E+00    0.189E+01
RMM:  97    -0.232756212329E+04   -0.89197E+01   -0.15494E+01 27946   0.785E+00    0.433E+01
RMM:  98    -0.231871342541E+04    0.88487E+01   -0.55578E+00 27600   0.658E+00    0.191E+01
RMM:  99    -0.231812463828E+04    0.58879E+00   -0.17233E+00 28070   0.283E+00    0.164E+01
RMM: 100    -0.231818830124E+04   -0.63663E-01   -0.10260E+00 28519   0.203E+00
   3 F= -.23181883E+04 E0= -.23153873E+04  d E =0.113522E+04
       N       E                     dE             d eps       ncg     rms          rms(c)
DAV:   1    -0.232026434886E+04   -0.21397E+01   -0.41014E+02 27710   0.221E+01    0.167E+01
RMM:   2    -0.498331000389E+04   -0.26630E+04   -0.11645E+03 43169   0.714E+01    0.306E+02
RMM:   3    -0.247503462505E+04    0.25083E+04   -0.23184E+02 27640   0.377E+01    0.151E+02
RMM:   4    -0.244043719667E+04    0.34597E+02   -0.55230E+01 28470   0.146E+01    0.143E+02
RMM:   5    -0.240781220620E+04    0.32625E+02   -0.46149E+01 33641   0.969E+00    0.118E+02
RMM:   6    -0.234567901444E+04    0.62133E+02   -0.34995E+01 38815   0.592E+00    0.652E+01
RMM:   7    -0.234474538639E+04    0.93363E+00   -0.88672E+00 28029   0.574E+00    0.658E+01
RMM:   8    -0.233989872794E+04    0.48467E+01   -0.21551E+01 32095   0.694E+00    0.577E+01
RMM:   9    -0.233086791311E+04    0.90308E+01   -0.10954E+01 27735   0.660E+00    0.445E+01
RMM:  10    -0.232591987539E+04    0.49480E+01   -0.74729E+00 28660   0.534E+00    0.335E+01
RMM:  11    -0.232318229330E+04    0.27376E+01   -0.41937E+00 28270   0.422E+00    0.257E+01
RMM:  12    -0.232170342068E+04    0.14789E+01   -0.24344E+00 28977   0.289E+00    0.190E+01
RMM:  13    -0.232152706541E+04    0.17636E+00   -0.25851E+00 32863   0.204E+00    0.173E+01
RMM:  14    -0.232128936764E+04    0.23770E+00   -0.17666E+00 36496   0.132E+00    0.157E+01
RMM:  15    -0.232142720741E+04   -0.13784E+00   -0.90490E-01 36767   0.968E-01    0.163E+01
RMM:  16    -0.232156046469E+04   -0.13326E+00   -0.31963E-01 33074   0.733E-01    0.169E+01
RMM:  17    -0.232146643612E+04    0.94029E-01   -0.18952E-01 30789   0.703E-01    0.164E+01
RMM:  18    -0.232111750263E+04    0.34893E+00   -0.23766E-01 34742   0.641E-01    0.145E+01
RMM:  19    -0.232089361094E+04    0.22389E+00   -0.13598E-01 29223   0.709E-01    0.132E+01
RMM:  20    -0.232066949813E+04    0.22411E+00   -0.21307E-01 29154   0.841E-01    0.117E+01
RMM:  21    -0.232051740025E+04    0.15210E+00   -0.13581E-01 28807   0.699E-01    0.107E+01
RMM:  22    -0.232064538340E+04   -0.12798E+00   -0.10557E-01 30475   0.529E-01    0.116E+01
RMM:  23    -0.232089824103E+04   -0.25286E+00   -0.10223E-01 33484   0.438E-01    0.135E+01
RMM:  24    -0.232116542587E+04   -0.26718E+00   -0.54754E-02 28620   0.469E-01    0.151E+01
RMM:  25    -0.232114453347E+04    0.20892E-01   -0.88875E-02 29000   0.569E-01    0.149E+01
RMM:  26    -0.232056780093E+04    0.57673E+00   -0.13513E-01 35012   0.481E-01    0.108E+01
RMM:  27    -0.232023892837E+04    0.32887E+00   -0.49539E-02 31545   0.337E-01    0.766E+00
RMM:  28    -0.232015578761E+04    0.83141E-01   -0.45550E-02 41798   0.184E-01    0.657E+00
RMM:  29    -0.232004557967E+04    0.11021E+00   -0.19691E-02 31010   0.228E-01    0.473E+00
RMM:  30    -0.232008178301E+04   -0.36203E-01   -0.20792E-02 28426   0.300E-01    0.537E+00
RMM:  31    -0.232011617341E+04   -0.34390E-01   -0.28231E-02 31500   0.263E-01    0.590E+00
RMM:  32    -0.232005823244E+04    0.57941E-01   -0.21953E-02 33024   0.215E-01    0.489E+00
RMM:  33    -0.231998897780E+04    0.69255E-01   -0.12328E-02 30782   0.183E-01    0.348E+00
RMM:  34    -0.231996565555E+04    0.23322E-01   -0.17152E-02 32827   0.188E-01    0.289E+00
RMM:  35    -0.231996356654E+04    0.20890E-02   -0.18571E-02 34400   0.183E-01    0.288E+00
RMM:  36    -0.231996480099E+04   -0.12345E-02   -0.11072E-02 34765   0.129E-01    0.290E+00
RMM:  37    -0.231995655363E+04    0.82474E-02   -0.98798E-03 41722   0.869E-02    0.259E+00
RMM:  38    -0.231994070070E+04    0.15853E-01   -0.53893E-03 34182   0.878E-02    0.190E+00
RMM:  39    -0.231993832494E+04    0.23758E-02   -0.32534E-03 31444   0.875E-02    0.176E+00
RMM:  40    -0.231993598823E+04    0.23367E-02   -0.57552E-03 36345   0.908E-02    0.159E+00
RMM:  41    -0.231992722743E+04    0.87608E-02   -0.33649E-03 31980   0.834E-02    0.938E-01
RMM:  42    -0.231992490439E+04    0.23230E-02   -0.35786E-03 41167   0.540E-02    0.663E-01
RMM:  43    -0.231992309026E+04    0.18141E-02   -0.21628E-03 37793   0.457E-02    0.340E-01
RMM:  44    -0.231992374205E+04   -0.65179E-03   -0.18108E-03 34298   0.514E-02    0.467E-01
RMM:  45    -0.231992338278E+04    0.35927E-03   -0.12839E-03 42207   0.274E-02    0.354E-01
RMM:  46    -0.231992318598E+04    0.19680E-03   -0.42783E-04 33074   0.270E-02    0.298E-01
RMM:  47    -0.231992279867E+04    0.38732E-03   -0.24793E-04 29971   0.271E-02    0.124E-01
RMM:  48    -0.231992281149E+04   -0.12829E-04   -0.22449E-04 32273   0.194E-02    0.130E-01
RMM:  49    -0.231992283195E+04   -0.20455E-04   -0.93870E-05 25948   0.175E-02    0.138E-01
RMM:  50    -0.231992281263E+04    0.19318E-04   -0.43290E-05 20256   0.141E-02    0.121E-01
RMM:  51    -0.231992278726E+04    0.25369E-04   -0.38797E-05 19859   0.122E-02    0.953E-02
RMM:  52    -0.231992276347E+04    0.23793E-04   -0.35942E-05 19212   0.137E-02    0.560E-02
RMM:  53    -0.231992275759E+04    0.58785E-05   -0.18446E-05 16713   0.981E-03
   4 F= -.23199228E+04 E0= -.23171263E+04  d E =0.113348E+04
