unknown system                          
            1
     9.726678    0.000000    0.000000
     0.000000    8.423550    0.000000
     0.000000    0.000000   45.000000
   Fe   Mn
 273  15
Direct configuration=     1
   0.18770358  0.79211034  0.61079967
   0.18744512  0.11314296  0.16689713
   0.93738558  0.61306177  0.16686219
   0.06204192  0.37514826  0.65509410
   0.68739922  0.96471670  0.83322274
   0.68689373  0.62286508  0.52155151
   0.31250653  0.54565581  0.74402044
   0.06266003  0.37306378  0.52161445
   0.06225293  0.70194960  0.34502462
   0.68760188  0.46454136  0.83308392
   0.43736250  0.96076453  0.69966087
   0.43763919  0.63144858  0.78824825
   0.93710615  0.28619592  0.38919953
   0.06250452  0.54939692  0.87550510
   0.43745271  0.11273885  0.16698782
   0.06264971  0.88134245  0.78839231
   0.68756173  0.79929056  0.87538909
   0.43753312  0.29244975  0.61088323
   0.93753727  0.79927353  0.87539761
   0.56246657  0.36276817  0.16689836
   0.06270761  0.71090848  0.69970749
   0.18762341  0.62545377  0.65482460
   0.56236176  0.71115142  0.69961347
   0.56256784  0.86275008  0.16688842
   0.81253757  0.04969797  0.87547325
   0.93751349  0.62551827  0.65489281
   0.18771260  0.46079458  0.69964369
   0.68770096  0.45534680  0.47832040
   0.31257409  0.36261983  0.16690080
   0.18701282  0.95541100  0.47841288
   0.31269644  0.20790241  0.56571168
   0.18763292  0.95228238  0.34523682
   0.68759096  0.29945580  0.87543875
   0.68784400  0.95530114  0.47853408
   0.68718987  0.12614392  0.65503009
   0.43726132  0.95753868  0.56559890
   0.31278302  0.87060489  0.43433162
   0.56265029  0.87608272  0.65498479
   0.81252835  0.71457591  0.83309386
   0.18806033  0.77793939  0.12443887
   0.43746242  0.79617519  0.74392259
   0.56273826  0.37058061  0.43425079
   0.93766026  0.13122885  0.78825177
   0.31263021  0.54946179  0.87543223
   0.31243017  0.37534876  0.65495584
   0.81220444  0.70493012  0.47838704
   0.93717227  0.79155740  0.61082676
   0.18751868  0.27850597  0.12464812
   0.81282222  0.52792698  0.12446577
   0.43737075  0.29607387  0.74391875
   0.18772326  0.79921467  0.87543735
   0.81245513  0.71114659  0.69959142
   0.18711513  0.45517912  0.47843765
   0.81269603  0.86290770  0.16686354
   0.93732858  0.78629174  0.38922872
   0.31248770  0.52842088  0.12446291
   0.81263056  0.19646944  0.21173941
   0.06202209  0.52785343  0.12445921
   0.43739790  0.45724232  0.56534662
   0.93754102  0.45476450  0.47849361
   0.68737968  0.29207514  0.61089568
   0.56270490  0.69581330  0.21167622
   0.06223626  0.54173213  0.61071277
   0.18734486  0.95759045  0.56564507
   0.81253687  0.21145498  0.69980126
   0.81218682  0.70166691  0.34500750
   0.93789578  0.62095319  0.43431241
   0.81227511  0.87067564  0.43446691
   0.06242879  0.36322130  0.16689382
   0.56201439  0.87249885  0.52151170
   0.43763509  0.62306406  0.52143495
   0.06216228  0.86688134  0.30042575
   0.18748837  0.29945334  0.87541124
   0.18780981  0.11732162  0.30038395
   0.56277230  0.03662031  0.38920329
   0.81255335  0.37077078  0.43426419
   0.31287569  0.54207279  0.61085743
   0.93739393  0.29125970  0.61073539
   0.43769753  0.44633704  0.21168270
   0.68776046  0.79174111  0.61071822
   0.18780263  0.94617043  0.21170599
   0.68803759  0.96120560  0.69965598
   0.56260469  0.71484557  0.83304235
   0.81251675  0.36649646  0.30034084
   0.81226336  0.37337702  0.52156394
   0.68731634  0.95194504  0.34514341
   0.18773563  0.44661246  0.21166226
   0.81255576  0.38147744  0.78841807
   0.56265953  0.86693175  0.30037304
   0.43737831  0.27816384  0.12464339
   0.43753613  0.46119016  0.69974729
   0.81247739  0.36308558  0.16688640
   0.81223018  0.70657095  0.56567211
   0.81259546  0.53593270  0.38920035
   0.43772467  0.29964668  0.87543121
   0.31250690  0.20493817  0.47844829
   0.68731488  0.77799059  0.12453162
   0.43740898  0.77804359  0.12447829
   0.68756864  0.28631459  0.38920588
   0.56261893  0.54940748  0.87548158
   0.68719324  0.44608676  0.21163251
   0.56244019  0.88152302  0.78836532
   0.43745253  0.94626493  0.21170834
   0.68706096  0.28181856  0.25612246
   0.31268803  0.38189725  0.78845987
   0.31243453  0.20258244  0.34501928
   0.31243132  0.70509476  0.47844199
   0.18760839  0.78173025  0.25593425
   0.31254699  0.36730668  0.30041010
   0.93760852  0.44644022  0.21174674
   0.06263035  0.04959145  0.87546443
   0.56223392  0.53169225  0.25607558
   0.56222449  0.87099641  0.43422403
   0.43731273  0.61301864  0.16674932
   0.18720796  0.45249670  0.34503625
   0.56277676  0.19631535  0.21173289
   0.93765333  0.95159294  0.34499093
   0.43748547  0.62592525  0.65495673
   0.68758969  0.11295243  0.16687077
   0.81254527  0.54939309  0.87546889
   0.81254642  0.54667278  0.74394612
   0.06294658  0.20744704  0.56575397
   0.93739684  0.61634571  0.30028492
   0.06223044  0.19644982  0.21172133
   0.18735881  0.12080623  0.43414455
   0.68731591  0.13155430  0.78826130
   0.31236040  0.70238512  0.34502295
   0.06252655  0.20224635  0.34514028
   0.81246062  0.21429706  0.83316144
   0.43754645  0.78681620  0.38915959
   0.31216433  0.37057224  0.43429618
   0.56282589  0.70215190  0.34504301
   0.81269971  0.03645892  0.38924854
   0.68778332  0.27818120  0.12461540
   0.68742598  0.78221228  0.25603251
   0.06280008  0.20501259  0.47855088
   0.06233046  0.03144139  0.25604447
   0.43761557  0.45241630  0.34508122
   0.68737738  0.94629773  0.21177607
   0.06226874  0.37073353  0.43423737
   0.56238066  0.20493088  0.47846917
   0.81262498  0.02796967  0.12457331
   0.31248277  0.19638552  0.21171832
   0.93762513  0.11643023  0.30031584
   0.56291252  0.52767779  0.12448066
   0.31215150  0.87257955  0.52149514
   0.31253568  0.21461845  0.83318013
   0.43774505  0.61707290  0.30021620
   0.93744142  0.95491728  0.47847441
   0.93753357  0.12101854  0.43450602
   0.93721497  0.95680953  0.56570652
   0.81261284  0.53174738  0.25606043
   0.93745240  0.77859161  0.12456193
   0.18803847  0.62266538  0.52154706
   0.56256180  0.03207035  0.25611236
   0.18781026  0.96467174  0.83325058
   0.56235588  0.20218012  0.34501297
   0.56300190  0.70722392  0.56575161
   0.56283445  0.37574909  0.65496015
   0.06255647  0.21425847  0.83306924
   0.18750455  0.45778674  0.56580086
   0.56259934  0.54196894  0.61069998
   0.18756904  0.79600994  0.74394897
   0.81224327  0.20496513  0.47857401
   0.43748023  0.96453550  0.83313360
   0.68704108  0.12296481  0.52154424
   0.93738406  0.46140113  0.69973540
   0.93732789  0.45695391  0.56560846
   0.43772314  0.95535532  0.47850819
   0.18745076  0.63137734  0.78826852
   0.43785227  0.28573586  0.38921761
   0.68763079  0.61661005  0.30037536
   0.56265425  0.37284762  0.52146203
   0.56249512  0.20721320  0.56582375
   0.68721327  0.11690837  0.30050988
   0.93765530  0.62273673  0.52159554
   0.81246315  0.88126148  0.78829791
   0.56279347  0.53615090  0.38919781
   0.06256634  0.70531531  0.47858435
   0.81250483  0.04613987  0.74388127
   0.81218883  0.20699355  0.56567036
   0.06226773  0.86320811  0.16683071
   0.31221047  0.37286194  0.52146182
   0.81242886  0.86662508  0.30038227
   0.31282098  0.70755265  0.56575826
   0.06244816  0.53170933  0.25599018
   0.93751701  0.29651625  0.74400542
   0.56263925  0.04650280  0.74400232
   0.81249788  0.03164375  0.25609507
   0.56256376  0.38173401  0.78839078
   0.06262999  0.36673642  0.30039523
   0.68765070  0.78632709  0.38918816
   0.18786086  0.28169107  0.25612101
   0.43752696  0.12307653  0.52158648
   0.56283626  0.70529780  0.47838906
   0.18785111  0.61318964  0.16674305
   0.68722493  0.62548032  0.65482977
   0.68726769  0.79617842  0.74393515
   0.43746730  0.79215352  0.61081068
   0.31265612  0.86711298  0.30043730
   0.18756765  0.12517992  0.65487980
   0.31249906  0.04628526  0.74393387
   0.31272702  0.02877205  0.12459101
   0.81241794  0.20194537  0.34509598
   0.31249550  0.53163864  0.25603581
   0.31240482  0.03172930  0.25607135
   0.06251396  0.02809703  0.12457708
   0.93766314  0.63133116  0.78822322
   0.93724912  0.12591547  0.65487572
   0.31276778  0.88162448  0.78832219
   0.06252862  0.54621770  0.74388047
   0.06222683  0.03591817  0.38922927
   0.81235794  0.04128112  0.61061602
   0.06253203  0.38119873  0.78833486
   0.31244833  0.04947202  0.87542802
   0.68757053  0.95722048  0.56567508
   0.81229600  0.87596458  0.65495827
   0.68764658  0.45698913  0.56565675
   0.06239563  0.69621762  0.21167262
   0.68765418  0.63146628  0.78827458
   0.18783378  0.12263188  0.52162635
   0.43736889  0.12117079  0.43442061
   0.06321315  0.87270994  0.52150144
   0.18777272  0.29615826  0.74397420
   0.93751839  0.27900987  0.12455510
   0.93744983  0.46424506  0.83319223
   0.06248720  0.04616226  0.74402735
   0.31292486  0.21097492  0.69973682
   0.68738169  0.61285388  0.16676998
   0.81230331  0.69630260  0.21164972
   0.43690421  0.62127389  0.43422653
   0.93752714  0.29953281  0.87539664
   0.93744357  0.11305816  0.16683525
   0.31271216  0.04150087  0.61064883
   0.68711815  0.29648715  0.74396869
   0.31266113  0.53617399  0.38925747
   0.43747303  0.78159222  0.25601566
   0.18785848  0.13153761  0.78835860
   0.18733743  0.61703095  0.30034542
   0.18744541  0.96087752  0.69968851
   0.31244798  0.86258492  0.16682791
   0.56241797  0.54574894  0.74387320
   0.06228716  0.87569439  0.65501289
   0.43704351  0.95192856  0.34499399
   0.06253417  0.71464102  0.83309453
   0.56235601  0.36696390  0.30038313
   0.56253145  0.21464662  0.83307866
   0.18775400  0.62044067  0.43432631
   0.43744991  0.11695754  0.30037122
   0.43749453  0.79922326  0.87539379
   0.93728741  0.45177064  0.34508531
   0.93739124  0.96444464  0.83317359
   0.43743977  0.46464471  0.83307335
   0.43748492  0.28184021  0.25606112
   0.93727920  0.96128397  0.69962681
   0.81240368  0.37597155  0.65500643
   0.31263740  0.71066964  0.69961716
   0.43760387  0.13164735  0.78833020
   0.56229629  0.02810824  0.12464063
   0.18766193  0.29185848  0.61087975
   0.56236411  0.04202816  0.61086632
   0.68740919  0.45260342  0.34488459
   0.81227242  0.54115377  0.61084617
   0.56275173  0.04954713  0.87541444
   0.18720846  0.28605063  0.38913930
   0.06235431  0.53656534  0.38923025
   0.93739577  0.28164680  0.25602683
   0.68751028  0.46142898  0.69966173
   0.31245407  0.71476010  0.83307844
   0.18756676  0.46450171  0.83310184
   0.68710387  0.62068006  0.43418005
   0.43759538  0.12538123  0.65486684
   0.06262629  0.87018795  0.43408727
   0.93746530  0.79616943  0.74404925
   0.06240527  0.21090533  0.69971651
   0.43744537  0.45532659  0.47857215
   0.06192589  0.70744142  0.56565373
   0.68715086  0.12173404  0.43402434
   0.18739581  0.78572430  0.38912240
   0.81238766  0.87243911  0.52153187
   0.06276362  0.04151840  0.61091272
   0.31221932  0.87577125  0.65488503
   0.93750897  0.78175854  0.25611149
   0.93754358  0.12346163  0.52152540
   0.31246367  0.69564993  0.21181530
   0.31267215  0.03651614  0.38910355
   0.93761680  0.94688166  0.21181664
   0.56256789  0.21096030  0.69961656
Direct configuration=     2
   0.18706670  0.78994448  0.61061407
   0.18719637  0.11371298  0.16553451
   0.94046796  0.61504154  0.16473817
   0.06268325  0.37663066  0.65400296
   0.68978847  0.96669452  0.83340396
   0.68820917  0.62161369  0.52152797
   0.31634414  0.54940831  0.73888573
   0.06074614  0.37526650  0.52237182
   0.05680040  0.70074387  0.34532236
   0.68923510  0.46294743  0.83329571
   0.43748172  0.95671003  0.69993919
   0.43780073  0.63274283  0.78542144
   0.93248421  0.28848991  0.38994847
   0.06123700  0.54916062  0.87856970
   0.43472141  0.11452428  0.16598255
   0.06078231  0.88043179  0.78709019
   0.68906171  0.79996425  0.87850676
   0.43665014  0.29364985  0.61069291
   0.93584071  0.80019618  0.87839556
   0.55844315  0.36256968  0.16559346
   0.06570643  0.71043631  0.69912841
   0.18738681  0.62563475  0.65409764
   0.56075476  0.71117109  0.70065876
   0.56076482  0.86431755  0.16597833
   0.81262566  0.04727218  0.87816120
   0.94035828  0.62637857  0.65445671
   0.18979514  0.46312382  0.69944842
   0.68905557  0.45460893  0.47859455
   0.31320826  0.36086542  0.16588275
   0.18649670  0.95435933  0.47885118
   0.31199263  0.20774829  0.56630069
   0.18366102  0.95007842  0.34509678
   0.68661461  0.29839224  0.87831895
   0.68880359  0.95560840  0.47839276
   0.68899669  0.12541129  0.65474505
   0.43613632  0.95729369  0.56597462
   0.31377948  0.87158798  0.43429027
   0.56181227  0.87564163  0.65486043
   0.81300057  0.71632638  0.83328060
   0.18542638  0.77795250  0.12431724
   0.43730727  0.79116224  0.73848269
   0.56629422  0.37080532  0.43502389
   0.93839502  0.13307378  0.78820325
   0.31182225  0.54764089  0.87882564
   0.31098565  0.37753322  0.65438934
   0.81177070  0.70514007  0.47836265
   0.94016886  0.79264741  0.61080078
   0.18726134  0.27810006  0.12404378
   0.81480436  0.52830944  0.12383680
   0.43828846  0.30026234  0.73955424
   0.18580263  0.79899369  0.87881325
   0.81031279  0.71060852  0.69967816
   0.18596894  0.45558589  0.47925683
   0.81819925  0.86384848  0.16547812
   0.93653621  0.78468284  0.38961118
   0.31148866  0.52672749  0.12419879
   0.81162656  0.19343997  0.21101820
   0.06063895  0.52856992  0.12439578
   0.43644065  0.45725607  0.56607257
   0.93454485  0.45533808  0.47899632
   0.68816398  0.29105563  0.61049338
   0.55621784  0.69464173  0.21134678
   0.06440805  0.54086298  0.61052417
   0.18653249  0.95608410  0.56649079
   0.81143662  0.21521961  0.69878200
   0.81363283  0.70093470  0.34499484
   0.93396290  0.62110230  0.43465101
   0.81158594  0.87150886  0.43531101
   0.06313943  0.36420895  0.16474068
   0.56190861  0.87426142  0.52152297
   0.43706760  0.62344771  0.52176495
   0.05798000  0.86623945  0.30313339
   0.18698631  0.29954614  0.87825362
   0.18736734  0.11681182  0.29987160
   0.56608393  0.03618374  0.39021545
   0.81189785  0.37098133  0.43470255
   0.31092017  0.54297922  0.61080025
   0.93970421  0.29056274  0.61036141
   0.43614984  0.44583957  0.21203866
   0.68743145  0.79251417  0.61068989
   0.19159647  0.94818045  0.20984952
   0.68498745  0.95727554  0.69873610
   0.56440877  0.71577649  0.83334056
   0.81146352  0.36717823  0.30124180
   0.81315319  0.37367891  0.52184033
   0.69036117  0.95026050  0.34516113
   0.19566970  0.44505924  0.21045798
   0.81487289  0.37940872  0.78619162
   0.56581658  0.86712330  0.30105773
   0.43697023  0.27824096  0.12380604
   0.43696179  0.46426982  0.70034767
   0.81498326  0.36306652  0.16525611
   0.81499107  0.70615105  0.56593586
   0.81315552  0.53521481  0.38985281
   0.43801934  0.29880337  0.87846214
   0.31504114  0.20548651  0.47892380
   0.68920826  0.77851153  0.12344531
   0.43724821  0.77825673  0.12365364
   0.69025788  0.28747683  0.39006662
   0.56427413  0.55013883  0.87879015
   0.68310753  0.44292224  0.21146152
   0.56312314  0.88203225  0.78607615
   0.43560494  0.94569925  0.21158186
   0.68298953  0.28280396  0.25990325
   0.31147313  0.37965350  0.78599208
   0.31235780  0.19991870  0.34450018
   0.31347561  0.70433430  0.47921074
   0.19766999  0.78314069  0.25886681
   0.31235431  0.36572182  0.29895153
   0.93534816  0.44459410  0.20985277
   0.06100566  0.05010129  0.87814306
   0.56064430  0.52653483  0.25941119
   0.56644106  0.87239510  0.43489637
   0.43327956  0.61184282  0.16647680
   0.18071291  0.45674800  0.34475417
   0.55865519  0.19774920  0.21154114
   0.93442402  0.94774335  0.34490462
   0.43467367  0.62576788  0.65465933
   0.68918695  0.11243981  0.16557743
   0.81314374  0.55171717  0.87858085
   0.80726502  0.54414704  0.73926557
   0.06132141  0.20841931  0.56671876
   0.93384780  0.61743275  0.30307397
   0.06421159  0.19494644  0.21055425
   0.18550028  0.11923424  0.43459064
   0.68669481  0.13225849  0.78725137
   0.31046232  0.70406981  0.34488748
   0.05659769  0.20200836  0.34495737
   0.81390199  0.21139453  0.83272922
   0.44023954  0.78770307  0.39005778
   0.31449752  0.37029798  0.43543094
   0.56810337  0.70210786  0.34525346
   0.81239652  0.03639556  0.39008447
   0.68764138  0.27850370  0.12358891
   0.68277181  0.78235892  0.26019151
   0.05968545  0.20626735  0.47878429
   0.06385081  0.03974716  0.25945478
   0.44334020  0.45472670  0.34494695
   0.68752313  0.94829493  0.21127981
   0.05710569  0.37116986  0.43481264
   0.56435195  0.20479341  0.47876958
   0.81430264  0.02781752  0.12376680
   0.31588690  0.19839704  0.21207792
   0.93545463  0.11390183  0.30161901
   0.56313653  0.52582185  0.12342082
   0.31360402  0.87209417  0.52230189
   0.31164789  0.21422619  0.83299293
   0.44019162  0.61936876  0.30014199
   0.93355058  0.95440890  0.47827850
   0.93336589  0.11993855  0.43490566
   0.93903614  0.95816756  0.56650440
   0.80471855  0.52745969  0.26055869
   0.93843689  0.77823688  0.12443151
   0.18698577  0.62249350  0.52248669
   0.55993911  0.03534962  0.25955840
   0.18448296  0.96729640  0.83266617
   0.56824349  0.20112176  0.34528681
   0.56187422  0.70751462  0.56618158
   0.56181463  0.37622520  0.65463502
   0.06111943  0.21308915  0.83264385
   0.18528601  0.45961428  0.56652414
   0.56022194  0.54145681  0.61052768
   0.19680759  0.78771568  0.73922472
   0.81072642  0.20554531  0.47863018
   0.43927280  0.96728859  0.83294308
   0.68720176  0.12400447  0.52159782
   0.93679899  0.46128807  0.69978799
   0.93951535  0.45574857  0.56605849
   0.44110414  0.95592373  0.47917214
   0.18671376  0.63207462  0.78605679
   0.44363568  0.28362990  0.39013965
   0.68992062  0.61775546  0.30133122
   0.56334115  0.37203916  0.52147786
   0.56261315  0.20707141  0.56622877
   0.68811041  0.11554032  0.30098174
   0.93803394  0.61988796  0.52203586
   0.81431792  0.88042290  0.78712785
   0.56853802  0.53740368  0.38979464
   0.05921100  0.70409719  0.47907294
   0.80851842  0.04648749  0.74163558
   0.81432370  0.20843203  0.56625064
   0.06124589  0.86184552  0.16515343
   0.31253444  0.37365386  0.52183420
   0.81189844  0.86583277  0.30275643
   0.30989386  0.70783695  0.56646183
   0.06581549  0.52337577  0.25950657
   0.93440828  0.30943299  0.74039477
   0.55695825  0.04425206  0.74002843
   0.80810299  0.03465915  0.25981413
   0.56274571  0.38004549  0.78613615
   0.06062596  0.36516085  0.30135921
   0.68909676  0.78578025  0.38951594
   0.19571022  0.27786727  0.25950387
   0.43884949  0.12183551  0.52204899
   0.56540570  0.70555551  0.47852258
   0.18676806  0.61602323  0.16549822
   0.68721769  0.62604906  0.65481125
   0.67924648  0.78596831  0.73909442
   0.43506556  0.79023969  0.61053999
   0.31404986  0.86977237  0.30063098
   0.18594075  0.12489899  0.65414858
   0.31862714  0.04403374  0.74035825
   0.31221964  0.03067013  0.12417017
   0.81161832  0.20245193  0.34551537
   0.32017814  0.52429243  0.25882770
   0.31800970  0.04092023  0.25948530
   0.06116846  0.02792680  0.12438425
   0.93721202  0.63176471  0.78616724
   0.93835472  0.12535213  0.65395386
   0.31192263  0.88293216  0.78584441
   0.06392674  0.54603120  0.73989854
   0.05822964  0.03296196  0.39009666
   0.81482936  0.04332868  0.61048608
   0.06135038  0.37765654  0.78635978
   0.31235729  0.05168848  0.87865449
   0.68798137  0.95869106  0.56602253
   0.81420722  0.87697094  0.65470106
   0.68884676  0.45512515  0.56601363
   0.06520695  0.69809657  0.20850463
   0.68840395  0.63306558  0.78591075
   0.18809276  0.12287931  0.52244874
   0.44127025  0.12025284  0.43496119
   0.06229460  0.87084848  0.52221957
   0.19238994  0.30284450  0.74035370
   0.93848887  0.27835755  0.12391013
   0.93839643  0.46247529  0.83312781
   0.06685011  0.04653165  0.74206577
   0.31391376  0.21276147  0.69973558
   0.68913161  0.61171543  0.16515090
   0.81049304  0.69850043  0.20978305
   0.44101561  0.62062712  0.43484812
   0.93866826  0.29944733  0.87804653
   0.93890448  0.11060825  0.16542591
   0.31100670  0.04072629  0.61043807
   0.68430453  0.30691385  0.73956378
   0.31310716  0.54069117  0.38972121
   0.43925515  0.78375077  0.25914647
   0.18798296  0.13303828  0.78692292
   0.18556125  0.61828480  0.30196808
   0.19100539  0.95603123  0.69858281
   0.30990830  0.85984304  0.16610501
   0.56209861  0.54808217  0.73873284
   0.06285560  0.87508833  0.65419610
   0.44069702  0.95070339  0.34480828
   0.06057899  0.71522720  0.83309791
   0.56531100  0.36576679  0.29989220
   0.56347412  0.21279387  0.83310308
   0.18515593  0.62105868  0.43460267
   0.43916762  0.11698353  0.29936558
   0.43971450  0.79921703  0.87874120
   0.93471000  0.45528995  0.34563743
   0.93650566  0.96767580  0.83283151
   0.43848710  0.46246009  0.83334739
   0.43622845  0.28198453  0.25896239
   0.93644154  0.95858475  0.69691723
   0.81438321  0.37493779  0.65466098
   0.31370271  0.70986065  0.70025305
   0.43726951  0.13162395  0.78604327
   0.56256974  0.02982667  0.12358311
   0.18558241  0.29347291  0.61077365
   0.56210904  0.04287245  0.61060722
   0.69117497  0.45442823  0.34552269
   0.81414462  0.53941547  0.61068677
   0.56432516  0.05021094  0.87829709
   0.18300171  0.28500269  0.38955362
   0.05565055  0.53980913  0.38923828
   0.93539599  0.27916280  0.25986404
   0.68659747  0.46208253  0.70060608
   0.31199221  0.71500826  0.83294537
   0.18413985  0.46180051  0.83334227
   0.68965029  0.62060060  0.43471510
   0.43619102  0.12527189  0.65444920
   0.05805249  0.87094123  0.43430546
   0.93662935  0.78436997  0.74089597
   0.06210349  0.21608259  0.69843326
   0.44072072  0.45466946  0.47899286
   0.06362397  0.70546172  0.56638290
   0.68910872  0.12060765  0.43447087
   0.18342368  0.78665843  0.38947083
   0.81184247  0.87276283  0.52144872
   0.06189795  0.04261246  0.61086368
   0.31104065  0.87361824  0.65469101
   0.93055699  0.78614382  0.25996226
   0.93569415  0.12522373  0.52208510
   0.31895801  0.69312740  0.21080747
   0.31415439  0.03182037  0.39028235
   0.93467050  0.95244300  0.20980563
   0.56286085  0.21202348  0.70018560
Direct configuration=     3
   0.18710954  0.79009019  0.61062656
   0.18721310  0.11367463  0.16562618
   0.94026059  0.61490835  0.16488106
   0.06264010  0.37653094  0.65407636
   0.68962773  0.96656146  0.83339176
   0.68812067  0.62169788  0.52152955
   0.31608596  0.54915586  0.73923117
   0.06087490  0.37511831  0.52232086
   0.05716722  0.70082498  0.34530233
   0.68912523  0.46305466  0.83328146
   0.43747370  0.95698280  0.69992047
   0.43778986  0.63265576  0.78561162
   0.93279515  0.28833558  0.38989809
   0.06132227  0.54917652  0.87836353
   0.43490516  0.11440416  0.16605018
   0.06090794  0.88049305  0.78717779
   0.68896080  0.79991893  0.87829701
   0.43670954  0.29356912  0.61070571
   0.93595485  0.80013411  0.87819387
   0.55871383  0.36258303  0.16568124
   0.06550468  0.71046807  0.69916737
   0.18740273  0.62562258  0.65414655
   0.56086287  0.71116977  0.70058844
   0.56088612  0.86421210  0.16603955
   0.81261974  0.04743538  0.87798036
   0.94016690  0.62632069  0.65448605
   0.18965504  0.46296712  0.69946156
   0.68896444  0.45465858  0.47857610
   0.31316559  0.36098345  0.16595124
   0.18653142  0.95443008  0.47882169
   0.31203998  0.20775866  0.56626106
   0.18392823  0.95022669  0.34510620
   0.68668030  0.29846379  0.87812518
   0.68873903  0.95558773  0.47840226
   0.68887513  0.12546058  0.65476422
   0.43621201  0.95731017  0.56594934
   0.31371244  0.87152184  0.43429306
   0.56186865  0.87567131  0.65486880
   0.81296880  0.71620861  0.83326804
   0.18560358  0.77795162  0.12432542
   0.43731771  0.79149949  0.73884866
   0.56605499  0.37079020  0.43497188
   0.93834559  0.13294966  0.78820651
   0.31187661  0.54776340  0.87859734
   0.31108283  0.37738626  0.65442745
   0.81179988  0.70512595  0.47836429
   0.93996726  0.79257408  0.61080253
   0.18727866  0.27812737  0.12408444
   0.81467101  0.52828371  0.12387912
   0.43822672  0.29998056  0.73984787
   0.18593184  0.79900856  0.87858614
   0.81045692  0.71064472  0.69967232
   0.18604605  0.45555853  0.47920172
   0.81782902  0.86378519  0.16557133
   0.93658952  0.78479108  0.38958545
   0.31155587  0.52684141  0.12421656
   0.81169411  0.19364378  0.21106672
   0.06073201  0.52852172  0.12440005
   0.43650505  0.45725514  0.56602374
   0.93474642  0.45529950  0.47896250
   0.68811122  0.29112422  0.61052045
   0.55665426  0.69472054  0.21136895
   0.06426194  0.54092145  0.61053685
   0.18658715  0.95618544  0.56643389
   0.81151064  0.21496634  0.69885057
   0.81353555  0.70098396  0.34499569
   0.93422749  0.62109227  0.43462823
   0.81163230  0.87145280  0.43525422
   0.06309162  0.36414251  0.16488554
   0.56191573  0.87414284  0.52152221
   0.43710578  0.62342190  0.52174275
   0.05826137  0.86628264  0.30295123
   0.18702008  0.29953989  0.87806240
   0.18739711  0.11684612  0.29990606
   0.56586114  0.03621311  0.39014736
   0.81194195  0.37096716  0.43467306
   0.31105173  0.54291824  0.61080410
   0.93954878  0.29060963  0.61038657
   0.43625396  0.44587304  0.21201471
   0.68745358  0.79246216  0.61069179
   0.19134124  0.94804523  0.20997441
   0.68519265  0.95753993  0.69879798
   0.56428740  0.71571386  0.83332050
   0.81153437  0.36713236  0.30118119
   0.81309333  0.37365860  0.52182174
   0.69015633  0.95037383  0.34515994
   0.19513593  0.44516374  0.21053900
   0.81471701  0.37954789  0.78634140
   0.56560418  0.86711041  0.30101167
   0.43699768  0.27823577  0.12386237
   0.43700042  0.46406264  0.70030728
   0.81481468  0.36306780  0.16536579
   0.81480533  0.70617930  0.56591811
   0.81311784  0.53526311  0.38980892
   0.43799951  0.29886010  0.87825823
   0.31487065  0.20544962  0.47889181
   0.68908089  0.77847649  0.12351839
   0.43725902  0.77824239  0.12370912
   0.69007696  0.28739864  0.39000872
   0.56416277  0.55008963  0.87856756
   0.68338240  0.44313514  0.21147303
   0.56307720  0.88199799  0.78623016
   0.43572923  0.94573730  0.21159037
   0.68326344  0.28273767  0.25964889
   0.31155486  0.37980445  0.78615810
   0.31236296  0.20009791  0.34453510
   0.31340535  0.70438546  0.47915902
   0.19699309  0.78304580  0.25866952
   0.31236728  0.36582844  0.29904966
   0.93550023  0.44471830  0.20998019
   0.06111496  0.05006699  0.87796285
   0.56075124  0.52688180  0.25918679
   0.56615739  0.87230100  0.43485114
   0.43355090  0.61192192  0.16649514
   0.18114987  0.45646199  0.34477315
   0.55893247  0.19765273  0.21155404
   0.93464127  0.94800233  0.34491042
   0.43486284  0.62577847  0.65467934
   0.68907950  0.11247430  0.16566444
   0.81310348  0.55156081  0.87837150
   0.80762033  0.54431696  0.73958046
   0.06143074  0.20835390  0.56665385
   0.93408656  0.61735962  0.30288633
   0.06407830  0.19504758  0.21063277
   0.18562532  0.11933999  0.43456063
   0.68673659  0.13221111  0.78731931
   0.31059002  0.70395647  0.34489659
   0.05699656  0.20202437  0.34496967
   0.81380502  0.21158980  0.83275829
   0.44005836  0.78764341  0.38999735
   0.31434055  0.37031643  0.43535459
   0.56774833  0.70211083  0.34523930
   0.81241692  0.03639982  0.39002824
   0.68765093  0.27848200  0.12365797
   0.68308492  0.78234905  0.25991171
   0.05989499  0.20618293  0.47876859
   0.06374853  0.03918839  0.25922535
   0.44295507  0.45457127  0.34495598
   0.68751332  0.94816056  0.21131320
   0.05745304  0.37114050  0.43477394
   0.56421933  0.20480266  0.47874937
   0.81418978  0.02782775  0.12382106
   0.31565789  0.19826171  0.21205373
   0.93560065  0.11407193  0.30153133
   0.56312146  0.52594671  0.12349212
   0.31350630  0.87212683  0.52224761
   0.31170762  0.21425258  0.83300553
   0.44002702  0.61921431  0.30014698
   0.93381234  0.95444310  0.47829168
   0.93364627  0.12001121  0.43487877
   0.93891362  0.95807620  0.56645073
   0.80524964  0.52774815  0.26025606
   0.93837065  0.77826075  0.12444028
   0.18705659  0.62250506  0.52242348
   0.56011556  0.03512901  0.25932656
   0.18470681  0.96711983  0.83270549
   0.56784740  0.20119296  0.34526839
   0.56195009  0.70749506  0.56615265
   0.56188324  0.37619317  0.65465690
   0.06121610  0.21316782  0.83267247
   0.18543527  0.45949133  0.56647548
   0.56038188  0.54149127  0.61053927
   0.19618606  0.78827368  0.73954254
   0.81082847  0.20550628  0.47862640
   0.43915221  0.96710338  0.83295590
   0.68719095  0.12393453  0.52159421
   0.93683835  0.46129567  0.69978445
   0.93936819  0.45582966  0.56602821
   0.44087668  0.95588549  0.47912748
   0.18676334  0.63202771  0.78620559
   0.44324660  0.28377158  0.39007762
   0.68976657  0.61767840  0.30126692
   0.56329494  0.37209355  0.52147679
   0.56260521  0.20708095  0.56620152
   0.68805006  0.11563236  0.30094999
   0.93800847  0.62007961  0.52200624
   0.81419314  0.88047932  0.78720657
   0.56815155  0.53731940  0.38975449
   0.05943673  0.70417914  0.47904007
   0.80878661  0.04646410  0.74178666
   0.81418008  0.20833526  0.56621160
   0.06131463  0.86193719  0.16526627
   0.31251265  0.37360058  0.52180915
   0.81193412  0.86588608  0.30259671
   0.31009079  0.70781782  0.56641450
   0.06558895  0.52393641  0.25927000
   0.93461742  0.30856401  0.74063768
   0.55734045  0.04440348  0.74029578
   0.80839866  0.03445629  0.25956393
   0.56273347  0.38015909  0.78628783
   0.06076078  0.36526684  0.30129436
   0.68899948  0.78581704  0.38949389
   0.19518215  0.27812452  0.25927629
   0.43876051  0.12191900  0.52201788
   0.56523284  0.70553817  0.47851360
   0.18684092  0.61583260  0.16558196
   0.68721818  0.62601080  0.65481250
   0.67978612  0.78665521  0.73942008
   0.43522714  0.79036845  0.61055820
   0.31395610  0.86959346  0.30061795
   0.18605020  0.12491789  0.65419777
   0.31821487  0.04418522  0.74059880
   0.31225378  0.03054244  0.12419849
   0.81167212  0.20241785  0.34548716
   0.31966129  0.52478665  0.25863987
   0.31763263  0.04030190  0.25925562