 288 288   0   0
  0.1280206E+02  0.9726678E-09  0.8423550E-09  0.4500000E-08  0.2500000E-15
  1.000000000000000E-004
  CAR 
 unknown system                          
      6.79373096     -6.02602265  301      4.31667860      1.00000000
     -6.026  0.0000E+00  0.0000E+00
     -5.983  0.0000E+00  0.0000E+00
     -5.941  0.0000E+00  0.0000E+00
     -5.898  0.0000E+00  0.0000E+00
     -5.855  0.0000E+00  0.0000E+00
     -5.812  0.0000E+00  0.0000E+00
     -5.770  0.0000E+00  0.0000E+00
     -5.727  0.0000E+00  0.0000E+00
     -5.684  0.0000E+00  0.0000E+00
     -5.641  0.0000E+00  0.0000E+00
     -5.599  0.0000E+00  0.0000E+00
     -5.556  0.0000E+00  0.0000E+00
     -5.513  0.0000E+00  0.0000E+00
     -5.470  0.0000E+00  0.0000E+00
     -5.428  0.0000E+00  0.0000E+00
     -5.385  0.1624E-15  0.6939E-17
     -5.342  0.3930E-14  0.1749E-15
     -5.300  0.8460E-13  0.3790E-14
     -5.257  0.1543E-11  0.6972E-13
     -5.214  0.2397E-10  0.1094E-11
     -5.171  0.3172E-09  0.1465E-10
     -5.129  0.3576E-08  0.1675E-09
     -5.086  0.3436E-07  0.1636E-08
     -5.043  0.2815E-06  0.1366E-07
     -5.000  0.1967E-05  0.9773E-07
     -4.958  0.1174E-04  0.5994E-06
     -4.915  0.5992E-04  0.3160E-05
     -4.872  0.2621E-03  0.1436E-04
     -4.830  0.9860E-03  0.5650E-04
     -4.787  0.3204E-02  0.1934E-03
     -4.744  0.9058E-02  0.5805E-03
     -4.701  0.2247E-01  0.1541E-02
     -4.659  0.4950E-01  0.3656E-02
     -4.616  0.9803E-01  0.7845E-02
     -4.573  0.1768E+00  0.1540E-01
     -4.530  0.2934E+00  0.2794E-01
     -4.488  0.4519E+00  0.4725E-01
     -4.445  0.6494E+00  0.7500E-01
     -4.402  0.8750E+00  0.1124E+00
     -4.359  0.1110E+01  0.1598E+00
     -4.317  0.1332E+01  0.2167E+00
     -4.274  0.1519E+01  0.2817E+00
     -4.231  0.1658E+01  0.3525E+00
     -4.189  0.1750E+01  0.4273E+00
     -4.146  0.1812E+01  0.5047E+00
     -4.103  0.1875E+01  0.5849E+00
     -4.060  0.1970E+01  0.6690E+00
     -4.018  0.2121E+01  0.7597E+00
     -3.975  0.2332E+01  0.8593E+00
     -3.932  0.2584E+01  0.9698E+00
     -3.889  0.2838E+01  0.1091E+01
     -3.847  0.3046E+01  0.1221E+01
     -3.804  0.3174E+01  0.1357E+01
     -3.761  0.3206E+01  0.1494E+01
     -3.718  0.3161E+01  0.1629E+01
     -3.676  0.3086E+01  0.1761E+01
     -3.633  0.3037E+01  0.1891E+01
     -3.590  0.3063E+01  0.2021E+01
     -3.548  0.3186E+01  0.2158E+01
     -3.505  0.3393E+01  0.2303E+01
     -3.462  0.3646E+01  0.2458E+01
     -3.419  0.3892E+01  0.2625E+01
     -3.377  0.4083E+01  0.2799E+01
     -3.334  0.4191E+01  0.2978E+01
     -3.291  0.4216E+01  0.3158E+01
     -3.248  0.4186E+01  0.3337E+01
     -3.206  0.4147E+01  0.3515E+01
     -3.163  0.4149E+01  0.3692E+01
     -3.120  0.4232E+01  0.3873E+01
     -3.077  0.4404E+01  0.4061E+01
     -3.035  0.4645E+01  0.4259E+01
     -2.992  0.4908E+01  0.4469E+01
     -2.949  0.5142E+01  0.4689E+01
     -2.907  0.5304E+01  0.4916E+01
     -2.864  0.5378E+01  0.5145E+01
     -2.821  0.5383E+01  0.5375E+01
     -2.778  0.5371E+01  0.5605E+01
     -2.736  0.5396E+01  0.5835E+01
     -2.693  0.5481E+01  0.6070E+01
     -2.650  0.5594E+01  0.6309E+01
     -2.607  0.5670E+01  0.6551E+01
     -2.565  0.5656E+01  0.6793E+01
     -2.522  0.5563E+01  0.7030E+01
     -2.479  0.5478E+01  0.7265E+01
     -2.436  0.5525E+01  0.7501E+01
     -2.394  0.5798E+01  0.7748E+01
     -2.351  0.6295E+01  0.8017E+01
     -2.308  0.6897E+01  0.8312E+01
     -2.266  0.7405E+01  0.8629E+01
     -2.223  0.7633E+01  0.8955E+01
     -2.180  0.7518E+01  0.9276E+01
     -2.137  0.7169E+01  0.9582E+01
     -2.095  0.6819E+01  0.9874E+01
     -2.052  0.6702E+01  0.1016E+02
     -2.009  0.6934E+01  0.1046E+02
     -1.966  0.7463E+01  0.1078E+02
     -1.924  0.8106E+01  0.1112E+02
     -1.881  0.8639E+01  0.1149E+02
     -1.838  0.8908E+01  0.1187E+02
     -1.796  0.8898E+01  0.1225E+02
     -1.753  0.8739E+01  0.1263E+02
     -1.710  0.8610E+01  0.1299E+02
     -1.667  0.8633E+01  0.1336E+02
     -1.625  0.8821E+01  0.1374E+02
     -1.582  0.9105E+01  0.1413E+02
     -1.539  0.9402E+01  0.1453E+02
     -1.496  0.9673E+01  0.1494E+02
     -1.454  0.9920E+01  0.1537E+02
     -1.411  0.1015E+02  0.1580E+02
     -1.368  0.1036E+02  0.1624E+02
     -1.325  0.1051E+02  0.1669E+02
     -1.283  0.1067E+02  0.1715E+02
     -1.240  0.1096E+02  0.1762E+02
     -1.197  0.1155E+02  0.1811E+02
     -1.155  0.1249E+02  0.1864E+02
     -1.112  0.1365E+02  0.1923E+02
     -1.069  0.1471E+02  0.1986E+02
     -1.026  0.1536E+02  0.2051E+02
     -0.984  0.1555E+02  0.2118E+02
     -0.941  0.1551E+02  0.2184E+02
     -0.898  0.1567E+02  0.2251E+02
     -0.855  0.1638E+02  0.2321E+02
     -0.813  0.1776E+02  0.2397E+02
     -0.770  0.1969E+02  0.2481E+02
     -0.727  0.2207E+02  0.2575E+02
     -0.684  0.2491E+02  0.2682E+02
     -0.642  0.2840E+02  0.2803E+02
     -0.599  0.3259E+02  0.2942E+02
     -0.556  0.3723E+02  0.3101E+02
     -0.514  0.4179E+02  0.3280E+02
     -0.471  0.4571E+02  0.3475E+02
     -0.428  0.4872E+02  0.3683E+02
     -0.385  0.5096E+02  0.3901E+02
     -0.343  0.5273E+02  0.4127E+02
     -0.300  0.5427E+02  0.4359E+02
     -0.257  0.5561E+02  0.4596E+02
     -0.214  0.5663E+02  0.4838E+02
     -0.172  0.5722E+02  0.5083E+02
     -0.129  0.5743E+02  0.5328E+02
     -0.086  0.5745E+02  0.5574E+02
     -0.043  0.5756E+02  0.5820E+02
     -0.001  0.5797E+02  0.6067E+02
      0.042  0.5881E+02  0.6319E+02
      0.085  0.6022E+02  0.6576E+02
      0.127  0.6236E+02  0.6842E+02
      0.170  0.6525E+02  0.7121E+02
      0.213  0.6871E+02  0.7415E+02
      0.256  0.7237E+02  0.7724E+02
      0.298  0.7584E+02  0.8048E+02
      0.341  0.7886E+02  0.8385E+02
      0.384  0.8135E+02  0.8733E+02
      0.427  0.8334E+02  0.9089E+02
      0.469  0.8488E+02  0.9452E+02
      0.512  0.8594E+02  0.9819E+02
      0.555  0.8648E+02  0.1019E+03
      0.598  0.8651E+02  0.1056E+03
      0.640  0.8615E+02  0.1093E+03
      0.683  0.8548E+02  0.1129E+03
      0.726  0.8449E+02  0.1165E+03
      0.768  0.8310E+02  0.1201E+03
      0.811  0.8132E+02  0.1236E+03
      0.854  0.7943E+02  0.1269E+03
      0.897  0.7782E+02  0.1303E+03
      0.939  0.7679E+02  0.1336E+03
      0.982  0.7633E+02  0.1368E+03
      1.025  0.7615E+02  0.1401E+03
      1.068  0.7588E+02  0.1433E+03
      1.110  0.7528E+02  0.1465E+03
      1.153  0.7441E+02  0.1497E+03
      1.196  0.7356E+02  0.1529E+03
      1.239  0.7313E+02  0.1560E+03
      1.281  0.7325E+02  0.1591E+03
      1.324  0.7367E+02  0.1623E+03
      1.367  0.7382E+02  0.1654E+03
      1.409  0.7318E+02  0.1685E+03
      1.452  0.7172E+02  0.1716E+03
      1.495  0.6990E+02  0.1746E+03
      1.538  0.6838E+02  0.1775E+03
      1.580  0.6772E+02  0.1804E+03
      1.623  0.6813E+02  0.1833E+03
      1.666  0.6950E+02  0.1863E+03
      1.709  0.7155E+02  0.1893E+03
      1.751  0.7397E+02  0.1925E+03
      1.794  0.7646E+02  0.1958E+03
      1.837  0.7883E+02  0.1991E+03
      1.879  0.8099E+02  0.2026E+03
      1.922  0.8291E+02  0.2061E+03
      1.965  0.8464E+02  0.2098E+03
      2.008  0.8626E+02  0.2134E+03
      2.050  0.8783E+02  0.2172E+03
      2.093  0.8938E+02  0.2210E+03
      2.136  0.9091E+02  0.2249E+03
      2.179  0.9243E+02  0.2289E+03
      2.221  0.9397E+02  0.2329E+03
      2.264  0.9565E+02  0.2370E+03
      2.307  0.9773E+02  0.2411E+03
      2.350  0.1005E+03  0.2454E+03
      2.392  0.1041E+03  0.2499E+03
      2.435  0.1084E+03  0.2545E+03
      2.478  0.1130E+03  0.2593E+03
      2.520  0.1174E+03  0.2644E+03
      2.563  0.1214E+03  0.2695E+03
      2.606  0.1246E+03  0.2749E+03
      2.649  0.1269E+03  0.2803E+03
      2.691  0.1284E+03  0.2858E+03
      2.734  0.1292E+03  0.2913E+03
      2.777  0.1299E+03  0.2968E+03
      2.820  0.1311E+03  0.3025E+03
      2.862  0.1333E+03  0.3081E+03
      2.905  0.1363E+03  0.3140E+03
      2.948  0.1395E+03  0.3199E+03
      2.991  0.1415E+03  0.3260E+03
      3.033  0.1408E+03  0.3320E+03
      3.076  0.1365E+03  0.3378E+03
      3.119  0.1289E+03  0.3433E+03
      3.161  0.1196E+03  0.3484E+03
      3.204  0.1102E+03  0.3532E+03
      3.247  0.1022E+03  0.3575E+03
      3.290  0.9637E+02  0.3616E+03
      3.332  0.9281E+02  0.3656E+03
      3.375  0.9110E+02  0.3695E+03
      3.418  0.9055E+02  0.3734E+03
      3.461  0.9035E+02  0.3772E+03
      3.503  0.8975E+02  0.3811E+03
      3.546  0.8837E+02  0.3848E+03
      3.589  0.8638E+02  0.3885E+03
      3.632  0.8448E+02  0.3921E+03
      3.674  0.8353E+02  0.3957E+03
      3.717  0.8410E+02  0.3993E+03
      3.760  0.8615E+02  0.4030E+03
      3.802  0.8908E+02  0.4068E+03
      3.845  0.9215E+02  0.4107E+03
      3.888  0.9485E+02  0.4148E+03
      3.931  0.9706E+02  0.4189E+03
      3.973  0.9891E+02  0.4232E+03
      4.016  0.1005E+03  0.4275E+03
      4.059  0.1019E+03  0.4318E+03
      4.102  0.1028E+03  0.4362E+03
      4.144  0.1030E+03  0.4406E+03
      4.187  0.1025E+03  0.4450E+03
      4.230  0.1015E+03  0.4493E+03
      4.273  0.1003E+03  0.4536E+03
      4.315  0.9941E+02  0.4579E+03
      4.358  0.9894E+02  0.4621E+03
      4.401  0.9901E+02  0.4663E+03
      4.443  0.9947E+02  0.4706E+03
      4.486  0.9999E+02  0.4748E+03
      4.529  0.1002E+03  0.4791E+03
      4.572  0.9993E+02  0.4834E+03
      4.614  0.9922E+02  0.4876E+03
      4.657  0.9844E+02  0.4918E+03
      4.700  0.9812E+02  0.4960E+03
      4.743  0.9870E+02  0.5002E+03
      4.785  0.1004E+03  0.5045E+03
      4.828  0.1030E+03  0.5089E+03
      4.871  0.1061E+03  0.5135E+03
      4.914  0.1093E+03  0.5181E+03
      4.956  0.1120E+03  0.5229E+03
      4.999  0.1135E+03  0.5278E+03
      5.042  0.1131E+03  0.5326E+03
      5.084  0.1096E+03  0.5373E+03
      5.127  0.1018E+03  0.5416E+03
      5.170  0.8933E+02  0.5455E+03
      5.213  0.7291E+02  0.5486E+03
      5.255  0.5459E+02  0.5509E+03
      5.298  0.3705E+02  0.5525E+03
      5.341  0.2257E+02  0.5535E+03
      5.384  0.1225E+02  0.5540E+03
      5.426  0.5884E+01  0.5542E+03
      5.469  0.2490E+01  0.5543E+03
      5.512  0.9250E+00  0.5544E+03
      5.554  0.3007E+00  0.5544E+03
      5.597  0.8536E-01  0.5544E+03
      5.640  0.2111E-01  0.5544E+03
      5.683  0.4543E-02  0.5544E+03
      5.725  0.8490E-03  0.5544E+03
      5.768  0.1376E-03  0.5544E+03
      5.811  0.1933E-04  0.5544E+03
      5.854  0.2348E-05  0.5544E+03
      5.896  0.2464E-06  0.5544E+03
      5.939  0.2232E-07  0.5544E+03
      5.982  0.1742E-08  0.5544E+03
      6.025  0.1171E-09  0.5544E+03
      6.067  0.6768E-11  0.5544E+03
      6.110  0.3350E-12  0.5544E+03
      6.153  0.1351E-13  0.5544E+03
      6.195  0.1949E-15  0.5544E+03
      6.238  0.0000E+00  0.5544E+03
      6.281  0.0000E+00  0.5544E+03
      6.324  0.0000E+00  0.5544E+03
      6.366  0.0000E+00  0.5544E+03
      6.409  0.0000E+00  0.5544E+03
      6.452  0.0000E+00  0.5544E+03
      6.495  0.0000E+00  0.5544E+03
      6.537  0.0000E+00  0.5544E+03
      6.580  0.0000E+00  0.5544E+03
      6.623  0.0000E+00  0.5544E+03
      6.666  0.0000E+00  0.5544E+03
      6.708  0.0000E+00  0.5544E+03
      6.751  0.0000E+00  0.5544E+03
      6.794  0.0000E+00  0.5544E+03
