<?xml version="1.0" encoding="ISO-8859-1"?>
<modeling>
 <generator>
  <i name="program" type="string">vasp </i>
  <i name="version" type="string">5.4.4.18Apr17-6-g9f103f2a35  </i>
  <i name="subversion" type="string">(build Sep 27 2018 12:46:37) complex + VL-xray_ parallel </i>
  <i name="platform" type="string">LLNL_Quartz_ifc </i>
  <i name="date" type="string">2021 09 26 </i>
  <i name="time" type="string">23:30:16 </i>
 </generator>
 <incar>
  <i type="int" name="ISTART">     2</i>
  <i type="string" name="PREC">accurate</i>
  <i type="string" name="ALGO"> Fast</i>
  <i type="int" name="ICHARG">     2</i>
  <i type="int" name="INIWAV">     1</i>
  <i type="int" name="NELM">   100</i>
  <i type="int" name="NELMIN">     4</i>
  <i type="int" name="IBRION">     2</i>
  <i name="EDIFF">      0.00000100</i>
  <i type="int" name="NSW">     5</i>
  <i type="int" name="ISIF">     2</i>
  <i type="int" name="ISYM">     2</i>
  <i name="ENCUT">    450.00000000</i>
  <i name="POTIM">      0.25000000</i>
  <i type="string" name="LREAL"> Auto</i>
  <i type="int" name="ISMEAR">     0</i>
  <i name="SIGMA">      0.15000000</i>
  <i type="logical" name="LWAVE"> F  </i>
  <i type="logical" name="LCHARG"> F  </i>
  <i type="int" name="ICORELEVEL">     0</i>
  <i type="int" name="CLNT">     1</i>
  <i type="int" name="CLN">     1</i>
  <i type="int" name="INCAR     ">     0</i>
  <i name="CLZ">      0.00000000</i>
  <v type="int" name="KPOINT_BSE">    -1     0     0     0</v>
  <i type="int" name="NELM">   100</i>
 </incar>
 <structure name="primitive_cell" >
  <crystal>
   <varray name="basis" >
    <v>       9.72667804       0.00000000       0.00000000 </v>
    <v>       0.00000000       8.42355028       0.00000000 </v>
    <v>       0.00000000       0.00000000      45.00000000 </v>
   </varray>
   <i name="volume">   3686.99226691 </i>
   <varray name="rec_basis" >
    <v>       0.10281002       0.00000000       0.00000000 </v>
    <v>       0.00000000       0.11871479       0.00000000 </v>
    <v>       0.00000000       0.00000000       0.02222222 </v>
   </varray>
  </crystal>
  <varray name="positions" >
   <v>       0.06181475       0.03124766       0.12437477 </v>
   <v>       0.18290788       0.11202786       0.16667794 </v>
   <v>       0.05572385      -0.13449341       0.16680229 </v>
   <v>       0.18606014      -0.21146785       0.12426111 </v>
   <v>      -0.06618647      -0.21162242       0.12466506 </v>
   <v>      -0.06855430       0.11440945       0.16718100 </v>
   <v>      -0.18643095       0.03151003       0.12433755 </v>
   <v>       0.31134234       0.03155261       0.12443229 </v>
   <v>       0.18466113       0.28742635       0.12450920 </v>
   <v>      -0.06547924       0.28710245       0.12440403 </v>
   <v>       0.30526256      -0.13475428       0.16614300 </v>
   <v>       0.05545266       0.36555491       0.16680565 </v>
   <v>      -0.19309542      -0.13588008       0.16722308 </v>
   <v>       0.43232926       0.11212735       0.16671758 </v>
   <v>      -0.05915317      -0.04464044       0.21163978 </v>
   <v>       0.30682755       0.36473036       0.16686907 </v>
   <v>       0.18217832      -0.38620206       0.16667629 </v>
   <v>       0.43464450      -0.21237813       0.12451831 </v>
   <v>       0.19020493      -0.04390454       0.21199939 </v>
   <v>       0.06478453       0.20501467       0.21161516 </v>
   <v>      -0.06677245      -0.38723299       0.16685427 </v>
   <v>      -0.31586836      -0.21168519       0.12476970 </v>
   <v>       0.06174711      -0.46880621       0.12429249 </v>
   <v>      -0.19503863       0.36645959       0.16645133 </v>
   <v>       0.43457079       0.28736154       0.12456019 </v>
   <v>      -0.31767101       0.11430460       0.16718109 </v>
   <v>      -0.31363760       0.28692828       0.12438457 </v>
   <v>       0.06725336      -0.29439593       0.21155774 </v>
   <v>      -0.18471812       0.20512665       0.21164564 </v>
   <v>      -0.18754110      -0.46938948       0.12438508 </v>
   <v>      -0.43743862       0.03268668       0.12458903 </v>
   <v>       0.31566851       0.20525123       0.21159667 </v>
   <v>       0.31246443      -0.46864709       0.12427051 </v>
   <v>      -0.44430432      -0.13512250       0.16668003 </v>
   <v>      -0.18329741      -0.29457509       0.21177657 </v>
   <v>       0.43190016      -0.38637432       0.16662954 </v>
   <v>      -0.31019132      -0.04437004       0.21190272 </v>
   <v>       0.31558280      -0.29658068       0.21240514 </v>
   <v>       0.44026252      -0.04349858       0.21223728 </v>
   <v>       0.18960360       0.45491401       0.21163185 </v>
   <v>      -0.05997784       0.45544233       0.21197550 </v>
   <v>      -0.31770062      -0.38810557       0.16672927 </v>
   <v>      -0.44390791       0.36559512       0.16679766 </v>
   <v>       0.05881247       0.03812343       0.25605438 </v>
   <v>       0.18431815      -0.21049719       0.25599527 </v>
   <v>      -0.06672484      -0.21147331       0.25583758 </v>
   <v>      -0.43327152       0.20303135       0.21174855 </v>
   <v>       0.30903700       0.03781452       0.25577764 </v>
   <v>      -0.19078190       0.03823791       0.25611755 </v>
   <v>      -0.43710646      -0.47020649       0.12488149 </v>
   <v>       0.18416537       0.28947254       0.25609276 </v>
   <v>      -0.06580184       0.28931741       0.25607945 </v>
   <v>      -0.31034414       0.45532066       0.21198090 </v>
   <v>       0.43983290       0.45520550       0.21179552 </v>
   <v>      -0.43462338      -0.29556572       0.21173271 </v>
   <v>       0.05972997      -0.46203940       0.25594450 </v>
   <v>       0.43355308      -0.21063560       0.25605067 </v>
   <v>      -0.31626452      -0.21101135       0.25604455 </v>
   <v>       0.43362871       0.28929573       0.25603521 </v>
   <v>      -0.31586229       0.28872294       0.25613595 </v>
   <v>       0.30797557      -0.46157495       0.25571396 </v>
   <v>      -0.44053232       0.03867596       0.25587485 </v>
   <v>      -0.19127910      -0.46201848       0.25622169 </v>
   <v>       0.06958576      -0.12605758       0.30043684 </v>
   <v>      -0.05482801       0.12359050       0.30027915 </v>
   <v>       0.19476981       0.12434219       0.30040469 </v>
   <v>      -0.17975878      -0.12536971       0.30027843 </v>
   <v>       0.31866508      -0.12556664       0.30013166 </v>
   <v>       0.06912540       0.37489430       0.30041840 </v>
   <v>      -0.05541308      -0.37567210       0.30012597 </v>
   <v>      -0.44160941      -0.46203555       0.25624746 </v>
   <v>      -0.30478761       0.12355318       0.30030285 </v>
   <v>       0.19456226      -0.37585119       0.30042405 </v>
   <v>      -0.18085481       0.37473314       0.30038063 </v>
   <v>       0.44422519       0.12437577       0.30047452 </v>
   <v>       0.32032632       0.37303811       0.30025379 </v>
   <v>      -0.30515177      -0.37526546       0.30004223 </v>
   <v>      -0.43044977      -0.12591277       0.30050236 </v>
   <v>       0.44528201      -0.37521019       0.30036162 </v>
   <v>      -0.43066971       0.37390766       0.30025455 </v>
   <v>      -0.06591425      -0.04833010       0.34493501 </v>
   <v>       0.18354748      -0.04735035       0.34513840 </v>
   <v>       0.05885032       0.20298234       0.34495943 </v>
   <v>       0.05850504      -0.29751439       0.34494541 </v>
   <v>       0.30902767       0.20261866       0.34480287 </v>
   <v>      -0.19122009       0.20256508       0.34507444 </v>
   <v>       0.30886439      -0.29783982       0.34488821 </v>
   <v>       0.43355058      -0.04737979       0.34506591 </v>
   <v>      -0.19112270      -0.29721180       0.34509809 </v>
   <v>      -0.31660099      -0.04836595       0.34488024 </v>
   <v>      -0.06640891       0.45247264       0.34489940 </v>
   <v>       0.18361807       0.45273838       0.34508997 </v>
   <v>      -0.44103519       0.20269583       0.34496389 </v>
   <v>       0.43385816       0.45264218       0.34514623 </v>
   <v>      -0.31642084       0.45226587       0.34499873 </v>
   <v>       0.06425837       0.03896952      -0.12441803 </v>
   <v>      -0.44096642      -0.29719146       0.34511307 </v>
   <v>       0.18779280      -0.20421694      -0.12427942 </v>
   <v>      -0.06271739      -0.20420895      -0.12477864 </v>
   <v>       0.31358630       0.03950766      -0.12429939 </v>
   <v>      -0.18669339       0.03928063      -0.12448170 </v>
   <v>       0.18771289       0.29577527      -0.12426660 </v>
   <v>      -0.06329125       0.29588999      -0.12470619 </v>
   <v>       0.06632337       0.03777131       0.38911246 </v>
   <v>       0.43695528      -0.20452144      -0.12423067 </v>
   <v>       0.06459225      -0.46132653      -0.12443649 </v>
   <v>      -0.31486248      -0.20437325      -0.12447241 </v>
   <v>       0.43677992       0.29562897      -0.12412552 </v>
   <v>      -0.31406997       0.29675230      -0.12437362 </v>
   <v>      -0.05881464      -0.21251661       0.38900749 </v>
   <v>       0.19304199      -0.21323195       0.38900443 </v>
   <v>      -0.18151945       0.03993959       0.38930365 </v>
   <v>      -0.05884882       0.28682994       0.38899484 </v>
   <v>       0.31649813       0.03724572       0.38905832 </v>
   <v>       0.19122783       0.28779027       0.38907180 </v>
   <v>      -0.18673035      -0.46088845      -0.12443834 </v>
   <v>       0.31355000      -0.46065461      -0.12432471 </v>
   <v>      -0.43687631       0.03958738      -0.12430429 </v>
   <v>      -0.30859446      -0.21219990       0.38906206 </v>
   <v>       0.06704287      -0.46091190       0.38919785 </v>
   <v>      -0.30892123       0.28672832       0.38895981 </v>
   <v>       0.44165143      -0.21231644       0.38909364 </v>
   <v>       0.44146733       0.28747144       0.38918844 </v>
   <v>      -0.18367674      -0.46218859       0.38908415 </v>
   <v>      -0.43430130       0.03926013       0.38896680 </v>
   <v>       0.31579018      -0.46188788       0.38902394 </v>
   <v>      -0.43659264      -0.46037990      -0.12437553 </v>
   <v>      -0.05837929      -0.03722858      -0.16653316 </v>
   <v>       0.19150943      -0.03751892      -0.16681850 </v>
   <v>       0.06661694       0.21464455      -0.16656357 </v>
   <v>       0.06632795      -0.28527286      -0.16654106 </v>
   <v>      -0.18279861       0.21490068      -0.16671860 </v>
   <v>       0.31717986       0.21219940      -0.16677298 </v>
   <v>      -0.43372122      -0.46239854       0.38907609 </v>
   <v>      -0.18263009      -0.28528837      -0.16671293 </v>
   <v>      -0.30833874      -0.03762964      -0.16686370 </v>
   <v>       0.31684050      -0.28731066      -0.16686242 </v>
   <v>       0.44164001      -0.03741479      -0.16684510 </v>
   <v>      -0.05849024       0.46274655      -0.16650469 </v>
   <v>       0.19152489       0.46248677      -0.16684166 </v>
   <v>       0.18700764       0.11938947       0.43428314 </v>
   <v>       0.06202385      -0.12908683       0.43449586 </v>
   <v>      -0.06297947       0.11961223       0.43458496 </v>
   <v>      -0.43374527       0.21288515      -0.16689071 </v>
   <v>      -0.30819621       0.46220608      -0.16683548 </v>
   <v>       0.44157044       0.46254957      -0.16686795 </v>
   <v>      -0.43365043      -0.28716077      -0.16686528 </v>
   <v>      -0.18834282      -0.12908119       0.43429767 </v>
   <v>       0.31199768      -0.12964966       0.43451975 </v>
   <v>       0.06302777       0.37079488       0.43440313 </v>
   <v>      -0.06255423      -0.37986416       0.43447018 </v>
   <v>       0.18699211      -0.38045984       0.43446594 </v>
   <v>      -0.31235889       0.11926687       0.43439209 </v>
   <v>       0.43689361       0.12037222       0.43443741 </v>
   <v>      -0.18826322       0.37148448       0.43424257 </v>
   <v>       0.31240697       0.37022361       0.43446269 </v>
   <v>       0.43702890      -0.37939624       0.43443089 </v>
   <v>      -0.31235446      -0.37985641       0.43448467 </v>
   <v>      -0.43755436      -0.12975960       0.43446415 </v>
   <v>      -0.43801939       0.37077729       0.43443481 </v>
   <v>       0.05977730      -0.12763413      -0.21170551 </v>
   <v>       0.18471568       0.12192022      -0.21163437 </v>
   <v>      -0.06584602       0.12329165      -0.21170838 </v>
   <v>       0.31001699      -0.12824920      -0.21174835 </v>
   <v>      -0.19000352      -0.12779037      -0.21172885 </v>
   <v>       0.06050491       0.37214187      -0.21178202 </v>
   <v>       0.43406933       0.12200163      -0.21123162 </v>
   <v>       0.18515313      -0.37835742      -0.21170952 </v>
   <v>      -0.06607579      -0.37677904      -0.21181148 </v>
   <v>      -0.31641360       0.12251705      -0.21163014 </v>
   <v>       0.31074379       0.37200392      -0.21180682 </v>
   <v>      -0.18976630       0.37251541      -0.21177615 </v>
   <v>       0.43409189      -0.37793342      -0.21143849 </v>
   <v>      -0.44019341      -0.12768790      -0.21166901 </v>
   <v>      -0.31535936      -0.37783062      -0.21180593 </v>
   <v>       0.18738745      -0.04421099       0.47868041 </v>
   <v>      -0.06266303      -0.04487197       0.47873877 </v>
   <v>       0.06264442       0.20568637       0.47867530 </v>
   <v>      -0.44012763       0.37214618      -0.21168197 </v>
   <v>       0.06220740      -0.29429361       0.47858661 </v>
   <v>      -0.18783760       0.20569812       0.47871629 </v>
   <v>       0.31236507       0.20558830       0.47875901 </v>
   <v>      -0.18762071      -0.29436782       0.47866548 </v>
   <v>       0.31219835      -0.29430590       0.47867956 </v>
   <v>      -0.31250759      -0.04436778       0.47868843 </v>
   <v>       0.43723425      -0.04433291       0.47868158 </v>
   <v>      -0.06281461       0.45562884       0.47865239 </v>
   <v>       0.18735939       0.45578844       0.47867148 </v>
   <v>      -0.43775777       0.20577707       0.47865517 </v>
   <v>       0.43738308       0.45576898       0.47861108 </v>
   <v>      -0.31294778       0.45560008       0.47868425 </v>
   <v>      -0.43761554      -0.29436472       0.47866479 </v>
   <v>       0.06548917       0.03987909      -0.25601304 </v>
   <v>      -0.05955841      -0.20995273      -0.25589231 </v>
   <v>       0.19058500      -0.20983902      -0.25602956 </v>
   <v>      -0.18446359       0.04019704      -0.25606352 </v>
   <v>       0.31518362       0.04059456      -0.25600601 </v>
   <v>      -0.05954118       0.28982314      -0.25599040 </v>
   <v>       0.19080871       0.29074258      -0.25605310 </v>
   <v>       0.06550960      -0.45958549      -0.25606017 </v>
   <v>      -0.30994901      -0.20912453      -0.25601851 </v>
   <v>       0.44016379      -0.20939413      -0.25599837 </v>
   <v>      -0.30957054       0.29038448      -0.25602836 </v>
   <v>       0.43988413       0.29103018      -0.25592427 </v>
   <v>      -0.18431302      -0.46000967      -0.25605352 </v>
   <v>       0.31574307      -0.45944008      -0.25595854 </v>
   <v>      -0.43406971       0.04049291      -0.25608261 </v>
   <v>       0.06169614      -0.12860070      -0.47861378 </v>
   <v>       0.18669914       0.12172783      -0.47859728 </v>
   <v>      -0.06344391       0.12165504      -0.47857363 </v>
   <v>      -0.18853438      -0.12851955      -0.47863038 </v>
   <v>       0.31166423      -0.12803181      -0.47860505 </v>
   <v>       0.06146027       0.37222099      -0.47864115 </v>
   <v>      -0.06353769      -0.37830822      -0.47859280 </v>
   <v>       0.18679768      -0.37865405      -0.47854564 </v>
   <v>       0.43665505       0.12144156      -0.47861684 </v>
   <v>      -0.31333167       0.12155816      -0.47856854 </v>
   <v>       0.31146191       0.37184700      -0.47862563 </v>
   <v>      -0.18823791       0.37181572      -0.47862574 </v>
   <v>      -0.43431572      -0.45942202      -0.25608587 </v>
   <v>       0.43652345      -0.37812300      -0.47867780 </v>
   <v>      -0.31350801      -0.37869891      -0.47870551 </v>
   <v>      -0.43819032      -0.12803536      -0.47858832 </v>
   <v>      -0.43834604       0.37155398      -0.47863880 </v>
   <v>       0.18517645      -0.04188213      -0.30030746 </v>
   <v>      -0.06491099      -0.04193621      -0.30040364 </v>
   <v>       0.06032245       0.20793576      -0.30043338 </v>
   <v>       0.06050249      -0.29220295      -0.30041937 </v>
   <v>       0.31044058       0.20781963      -0.30039572 </v>
   <v>      -0.18950585       0.20787758      -0.30040817 </v>
   <v>       0.31040479      -0.29216458      -0.30044206 </v>
   <v>      -0.18961229      -0.29199938      -0.30044767 </v>
   <v>       0.43507913      -0.04192653      -0.30042103 </v>
   <v>      -0.31493807      -0.04200233      -0.30037916 </v>
   <v>       0.18497977       0.45803034      -0.30040160 </v>
   <v>      -0.06481644       0.45789937      -0.30036900 </v>
   <v>      -0.43957966       0.20780378      -0.30043263 </v>
   <v>       0.43540270       0.45782262      -0.30042594 </v>
   <v>      -0.31479076       0.45794094      -0.30037857 </v>
   <v>      -0.06303929      -0.04265177      -0.43454680 </v>
   <v>       0.18697160      -0.04291609      -0.43452284 </v>
   <v>       0.06216626       0.20729900      -0.43462640 </v>
   <v>      -0.43966148      -0.29230580      -0.30040805 </v>
   <v>       0.06177424      -0.29359572      -0.43448719 </v>
   <v>      -0.18876593       0.20709336      -0.43454083 </v>
   <v>       0.31141049       0.20661491      -0.43449807 </v>
   <v>       0.31132790      -0.29268971      -0.43455363 </v>
   <v>      -0.18859255      -0.29337085      -0.43452510 </v>
   <v>       0.43682748      -0.04284891      -0.43460825 </v>
   <v>      -0.31261284      -0.04279253      -0.43451592 </v>
   <v>       0.18717826       0.45718995      -0.43456492 </v>
   <v>      -0.06338086       0.45653282      -0.43440161 </v>
   <v>      -0.43792242       0.20701320      -0.43449328 </v>
   <v>      -0.31314210       0.45701300      -0.43458636 </v>
   <v>       0.43695718       0.45705805      -0.43449512 </v>
   <v>      -0.43795022      -0.29295247      -0.43448138 </v>
   <v>       0.06643002      -0.12520931      -0.34509555 </v>
   <v>      -0.05847347       0.12498860      -0.34510026 </v>
   <v>       0.19154829       0.12499697      -0.34509016 </v>
   <v>      -0.18356788      -0.12515873      -0.34508840 </v>
   <v>       0.31658154      -0.12505666      -0.34513538 </v>
   <v>       0.06638494       0.37494869      -0.34509101 </v>
   <v>      -0.05850905      -0.37492000      -0.34514573 </v>
   <v>       0.19141553      -0.37497348      -0.34509245 </v>
   <v>      -0.30852824       0.12503054      -0.34503930 </v>
   <v>      -0.18357096       0.37482808      -0.34509038 </v>
   <v>       0.44154312       0.12488080      -0.34514532 </v>
   <v>       0.31641727       0.37489982      -0.34509322 </v>
   <v>      -0.30864147      -0.37508607      -0.34507846 </v>
   <v>      -0.43368948      -0.12511898      -0.34505984 </v>
   <v>       0.44146287      -0.37502133      -0.34513147 </v>
   <v>      -0.43344128       0.37482454      -0.34513006 </v>
   <v>       0.05864649       0.03797456      -0.38914525 </v>
   <v>       0.18363169      -0.21184288      -0.38914418 </v>
   <v>      -0.06626324      -0.21235261      -0.38908565 </v>
   <v>       0.30862445       0.03787863      -0.38903760 </v>
   <v>      -0.19114828       0.03786485      -0.38910929 </v>
   <v>       0.18370669       0.28795813      -0.38908339 </v>
   <v>      -0.06628899       0.28780153      -0.38911070 </v>
   <v>       0.43371795      -0.21185608      -0.38914869 </v>
   <v>       0.05863028      -0.46222935      -0.38907686 </v>
   <v>       0.43367418       0.28797224      -0.38913715 </v>
   <v>      -0.31621282      -0.21203170      -0.38910802 </v>
   <v>      -0.31641317       0.28794487      -0.38907481 </v>
   <v>       0.30878324      -0.46209730      -0.38910127 </v>
   <v>      -0.19127759      -0.46207698      -0.38906503 </v>
   <v>      -0.44112455       0.03813599      -0.38906224 </v>
   <v>      -0.44133119      -0.46193031      -0.38913519 </v>
  </varray>
 </structure>
 <varray name="primitive_index" >
  <v type="int" >        1 </v>
  <v type="int" >      125 </v>
  <v type="int" >       60 </v>
  <v type="int" >       83 </v>
  <v type="int" >       44 </v>
  <v type="int" >       26 </v>
  <v type="int" >      202 </v>
  <v type="int" >      256 </v>
  <v type="int" >      111 </v>
  <v type="int" >      155 </v>
  <v type="int" >      277 </v>
  <v type="int" >       51 </v>
  <v type="int" >      102 </v>
  <v type="int" >      182 </v>
  <v type="int" >      212 </v>
  <v type="int" >      108 </v>
  <v type="int" >       20 </v>
  <v type="int" >      170 </v>
  <v type="int" >      146 </v>
  <v type="int" >       50 </v>
  <v type="int" >      104 </v>
  <v type="int" >      163 </v>
  <v type="int" >      176 </v>
  <v type="int" >      284 </v>
  <v type="int" >      117 </v>
  <v type="int" >      166 </v>
  <v type="int" >      145 </v>
  <v type="int" >      250 </v>
  <v type="int" >      167 </v>
  <v type="int" >      205 </v>
  <v type="int" >      114 </v>
  <v type="int" >      249 </v>
  <v type="int" >       91 </v>
  <v type="int" >      192 </v>
  <v type="int" >      213 </v>
  <v type="int" >      174 </v>
  <v type="int" >       92 </v>
  <v type="int" >      276 </v>
  <v type="int" >      229 </v>
  <v type="int" >      189 </v>
  <v type="int" >      175 </v>
  <v type="int" >       97 </v>
  <v type="int" >       30 </v>
  <v type="int" >      185 </v>
  <v type="int" >      200 </v>
  <v type="int" >       52 </v>
  <v type="int" >      103 </v>
  <v type="int" >      179 </v>
  <v type="int" >       24 </v>
  <v type="int" >      283 </v>
  <v type="int" >      112 </v>
  <v type="int" >      127 </v>
  <v type="int" >      261 </v>
  <v type="int" >      139 </v>
  <v type="int" >      243 </v>
  <v type="int" >      168 </v>
  <v type="int" >      137 </v>
  <v type="int" >      118 </v>
  <v type="int" >      265 </v>
  <v type="int" >       58 </v>
  <v type="int" >      275 </v>
  <v type="int" >      221 </v>
  <v type="int" >       81 </v>
  <v type="int" >      214 </v>
  <v type="int" >      135 </v>
  <v type="int" >      215 </v>
  <v type="int" >       72 </v>
  <v type="int" >       98 </v>
  <v type="int" >      226 </v>
  <v type="int" >      178 </v>
  <v type="int" >       28 </v>
  <v type="int" >      109 </v>
  <v type="int" >      263 </v>
  <v type="int" >      220 </v>
  <v type="int" >      159 </v>
  <v type="int" >      242 </v>
  <v type="int" >      130 </v>
  <v type="int" >      210 </v>
  <v type="int" >      101 </v>
  <v type="int" >      171 </v>
  <v type="int" >      194 </v>
  <v type="int" >      258 </v>
  <v type="int" >       47 </v>
  <v type="int" >      216 </v>
  <v type="int" >       86 </v>
  <v type="int" >      207 </v>
  <v type="int" >      208 </v>
  <v type="int" >      172 </v>
  <v type="int" >       73 </v>
  <v type="int" >       25 </v>
  <v type="int" >       12 </v>
  <v type="int" >      116 </v>
  <v type="int" >      219 </v>
  <v type="int" >      206 </v>
  <v type="int" >       48 </v>
  <v type="int" >       16 </v>
  <v type="int" >      164 </v>
  <v type="int" >      268 </v>
  <v type="int" >      281 </v>
  <v type="int" >      245 </v>
  <v type="int" >       14 </v>
  <v type="int" >      120 </v>
  <v type="int" >      280 </v>
  <v type="int" >      124 </v>
  <v type="int" >      150 </v>
  <v type="int" >      266 </v>
  <v type="int" >       29 </v>
  <v type="int" >      255 </v>
  <v type="int" >      191 </v>
  <v type="int" >      190 </v>
  <v type="int" >      287 </v>
  <v type="int" >      279 </v>
  <v type="int" >       13 </v>
  <v type="int" >      165 </v>
  <v type="int" >      248 </v>
  <v type="int" >      231 </v>
  <v type="int" >       18 </v>
  <v type="int" >      161 </v>
  <v type="int" >       45 </v>
  <v type="int" >      273 </v>
  <v type="int" >       84 </v>
  <v type="int" >      264 </v>
  <v type="int" >        4 </v>
  <v type="int" >      123 </v>
  <v type="int" >      282 </v>
  <v type="int" >       67 </v>
  <v type="int" >       64 </v>
  <v type="int" >       17 </v>
  <v type="int" >        7 </v>
  <v type="int" >      259 </v>
  <v type="int" >      134 </v>
  <v type="int" >        6 </v>
  <v type="int" >       39 </v>
  <v type="int" >      222 </v>
  <v type="int" >      253 </v>
  <v type="int" >       88 </v>
  <v type="int" >        5 </v>
  <v type="int" >      110 </v>
  <v type="int" >       36 </v>
  <v type="int" >      181 </v>
  <v type="int" >      160 </v>
  <v type="int" >      285 </v>
  <v type="int" >      158 </v>
  <v type="int" >      143 </v>
  <v type="int" >       82 </v>
  <v type="int" >       74 </v>
  <v type="int" >      241 </v>
  <v type="int" >      235 </v>
  <v type="int" >       23 </v>
  <v type="int" >      218 </v>
  <v type="int" >      131 </v>
  <v type="int" >      238 </v>
  <v type="int" >      257 </v>
  <v type="int" >      201 </v>
  <v type="int" >       80 </v>
  <v type="int" >      113 </v>
  <v type="int" >      278 </v>
  <v type="int" >      232 </v>
  <v type="int" >       69 </v>
  <v type="int" >      251 </v>
  <v type="int" >      197 </v>
  <v type="int" >        3 </v>
  <v type="int" >      149 </v>
  <v type="int" >      224 </v>
  <v type="int" >       55 </v>
  <v type="int" >      254 </v>
  <v type="int" >       49 </v>
  <v type="int" >      272 </v>
  <v type="int" >      132 </v>
  <v type="int" >      188 </v>
  <v type="int" >      138 </v>
  <v type="int" >       57 </v>
  <v type="int" >      184 </v>
  <v type="int" >       33 </v>
  <v type="int" >       66 </v>
  <v type="int" >       94 </v>
  <v type="int" >      236 </v>
  <v type="int" >      223 </v>
  <v type="int" >      106 </v>
  <v type="int" >      157 </v>
  <v type="int" >       21 </v>
  <v type="int" >      230 </v>
  <v type="int" >      234 </v>
  <v type="int" >       99 </v>
  <v type="int" >       75 </v>
  <v type="int" >      105 </v>
  <v type="int" >      269 </v>
  <v type="int" >      244 </v>
  <v type="int" >      237 </v>
  <v type="int" >      156 </v>
  <v type="int" >      199 </v>
  <v type="int" >      169 </v>
  <v type="int" >        9 </v>
  <v type="int" >       46 </v>
  <v type="int" >      262 </v>
  <v type="int" >      151 </v>
  <v type="int" >      239 </v>
  <v type="int" >      187 </v>
  <v type="int" >       11 </v>
  <v type="int" >      211 </v>
  <v type="int" >       43 </v>
  <v type="int" >       31 </v>
  <v type="int" >       19 </v>
  <v type="int" >       71 </v>
  <v type="int" >       87 </v>
  <v type="int" >      288 </v>
  <v type="int" >      267 </v>
  <v type="int" >       27 </v>
  <v type="int" >      140 </v>
  <v type="int" >      286 </v>
  <v type="int" >       10 </v>
  <v type="int" >      144 </v>
  <v type="int" >      107 </v>
  <v type="int" >      203 </v>
  <v type="int" >       68 </v>
  <v type="int" >      119 </v>
  <v type="int" >       34 </v>
  <v type="int" >      183 </v>
  <v type="int" >      177 </v>
  <v type="int" >      270 </v>
  <v type="int" >      252 </v>
  <v type="int" >      195 </v>
  <v type="int" >       77 </v>
  <v type="int" >      247 </v>
  <v type="int" >      173 </v>
  <v type="int" >      225 </v>
  <v type="int" >       37 </v>
  <v type="int" >      274 </v>
  <v type="int" >       63 </v>
  <v type="int" >      233 </v>
  <v type="int" >      154 </v>
  <v type="int" >      141 </v>
  <v type="int" >       38 </v>
  <v type="int" >       54 </v>
  <v type="int" >      246 </v>
  <v type="int" >      152 </v>
  <v type="int" >       53 </v>
  <v type="int" >      193 </v>
  <v type="int" >       76 </v>
  <v type="int" >      129 </v>
  <v type="int" >      162 </v>
  <v type="int" >       62 </v>
  <v type="int" >      133 </v>
  <v type="int" >       65 </v>
  <v type="int" >      271 </v>
  <v type="int" >       93 </v>
  <v type="int" >       90 </v>
  <v type="int" >       32 </v>
  <v type="int" >       56 </v>
  <v type="int" >       95 </v>
  <v type="int" >       59 </v>
  <v type="int" >       42 </v>
  <v type="int" >        8 </v>
  <v type="int" >      228 </v>
  <v type="int" >       70 </v>
  <v type="int" >      186 </v>
  <v type="int" >      196 </v>
  <v type="int" >      122 </v>
  <v type="int" >      121 </v>
  <v type="int" >       79 </v>
  <v type="int" >        2 </v>
  <v type="int" >      198 </v>
  <v type="int" >      240 </v>
  <v type="int" >      153 </v>
  <v type="int" >      209 </v>
  <v type="int" >       35 </v>
  <v type="int" >      204 </v>
  <v type="int" >       85 </v>
  <v type="int" >      227 </v>
  <v type="int" >       89 </v>
  <v type="int" >       40 </v>
  <v type="int" >       78 </v>
  <v type="int" >      142 </v>
  <v type="int" >       15 </v>
  <v type="int" >      136 </v>
  <v type="int" >      148 </v>
  <v type="int" >      217 </v>
  <v type="int" >       61 </v>
  <v type="int" >      100 </v>
  <v type="int" >       96 </v>
  <v type="int" >      126 </v>
  <v type="int" >      115 </v>
  <v type="int" >      180 </v>
  <v type="int" >      147 </v>
  <v type="int" >       41 </v>
  <v type="int" >       22 </v>
  <v type="int" >      260 </v>
  <v type="int" >      128 </v>
 </varray>
 <kpoints>
  <generation param="Gamma">
   <v type="int" name="divisions">       4        4        1 </v>
   <v name="usershift">      0.00000000       0.00000000       0.00000000 </v>
   <v name="genvec1">      0.25000000       0.00000000       0.00000000 </v>
   <v name="genvec2">      0.00000000       0.25000000       0.00000000 </v>
   <v name="genvec3">      0.00000000       0.00000000       1.00000000 </v>
   <v name="shift">      0.00000000       0.00000000       0.00000000 </v>
  </generation>
  <varray name="kpointlist" >
   <v>       0.00000000       0.00000000       0.00000000 </v>
   <v>       0.25000000       0.00000000       0.00000000 </v>
   <v>       0.50000000       0.00000000       0.00000000 </v>
   <v>       0.00000000       0.25000000       0.00000000 </v>
   <v>       0.25000000       0.25000000       0.00000000 </v>
   <v>       0.50000000       0.25000000       0.00000000 </v>
   <v>      -0.25000000       0.25000000       0.00000000 </v>
   <v>       0.00000000       0.50000000       0.00000000 </v>
   <v>       0.25000000       0.50000000       0.00000000 </v>
   <v>       0.50000000       0.50000000       0.00000000 </v>
  </varray>
  <varray name="weights" >
   <v>       0.06250000 </v>
   <v>       0.12500000 </v>
   <v>       0.06250000 </v>
   <v>       0.12500000 </v>
   <v>       0.12500000 </v>
   <v>       0.12500000 </v>
   <v>       0.12500000 </v>
   <v>       0.06250000 </v>
   <v>       0.12500000 </v>
   <v>       0.06250000 </v>
  </varray>
 </kpoints>
 <parameters>
  <separator name="general" >
   <i type="string" name="SYSTEM">unknown system</i>
   <i type="logical" name="LCOMPAT"> F  </i>
  </separator>
  <separator name="electronic" >
   <i type="string" name="PREC">accura</i>
   <i name="ENMAX">    450.00000000</i>
   <i name="ENAUG">    838.43500000</i>
   <i name="EDIFF">      0.00000100</i>
   <i type="int" name="IALGO">    68</i>
   <i type="int" name="IWAVPR">    11</i>
   <i type="int" name="NBANDS">  1386</i>
   <i name="NELECT">   2290.00000000</i>
   <i type="int" name="TURBO">     0</i>
   <i type="int" name="IRESTART">     0</i>
   <i type="int" name="NREBOOT">     0</i>
   <i type="int" name="NMIN">     0</i>
   <i name="EREF">      0.00000000</i>
   <separator name="electronic smearing" >
    <i type="int" name="ISMEAR">     0</i>
    <i name="SIGMA">      0.15000000</i>
    <i name="KSPACING">      0.50000000</i>
    <i type="logical" name="KGAMMA"> T  </i>
   </separator>
   <separator name="electronic projectors" >
    <i type="logical" name="LREAL"> T  </i>
    <v name="ROPT">     -0.00025000     -0.00025000</v>
    <i type="int" name="LMAXPAW">  -100</i>
    <i type="int" name="LMAXMIX">     2</i>
    <i type="logical" name="NLSPLINE"> F  </i>
   </separator>
   <separator name="electronic startup" >
    <i type="int" name="ISTART">     0</i>
    <i type="int" name="ICHARG">     2</i>
    <i type="int" name="INIWAV">     1</i>
   </separator>
   <separator name="electronic spin" >
    <i type="int" name="ISPIN">     1</i>
    <i type="logical" name="LNONCOLLINEAR"> F  </i>
    <v name="MAGMOM">      1.00000000      1.00000000      1.00000000      1.00000000      1.00000000      1.00000000      1.00000000      1.00000000      1.00000000      1.00000000      1.00000000      1.00000000      1.00000000      1.00000000      1.00000000      1.00000000      1.00000000      1.00000000      1.00000000      1.00000000
      1.00000000      1.00000000      1.00000000      1.00000000      1.00000000      1.00000000      1.00000000      1.00000000      1.00000000      1.00000000      1.00000000      1.00000000      1.00000000      1.00000000      1.00000000      1.00000000      1.00000000      1.00000000      1.00000000      1.00000000
      1.00000000      1.00000000      1.00000000      1.00000000      1.00000000      1.00000000      1.00000000      1.00000000      1.00000000      1.00000000      1.00000000      1.00000000      1.00000000      1.00000000      1.00000000      1.00000000      1.00000000      1.00000000      1.00000000      1.00000000
      1.00000000      1.00000000      1.00000000      1.00000000      1.00000000      1.00000000      1.00000000      1.00000000      1.00000000      1.00000000      1.00000000      1.00000000      1.00000000      1.00000000      1.00000000      1.00000000      1.00000000      1.00000000      1.00000000      1.00000000
      1.00000000      1.00000000      1.00000000      1.00000000      1.00000000      1.00000000      1.00000000      1.00000000      1.00000000      1.00000000      1.00000000      1.00000000      1.00000000      1.00000000      1.00000000      1.00000000      1.00000000      1.00000000      1.00000000      1.00000000
      1.00000000      1.00000000      1.00000000      1.00000000      1.00000000      1.00000000      1.00000000      1.00000000      1.00000000      1.00000000      1.00000000      1.00000000      1.00000000      1.00000000      1.00000000      1.00000000      1.00000000      1.00000000      1.00000000      1.00000000
      1.00000000      1.00000000      1.00000000      1.00000000      1.00000000      1.00000000      1.00000000      1.00000000      1.00000000      1.00000000      1.00000000      1.00000000      1.00000000      1.00000000      1.00000000      1.00000000      1.00000000      1.00000000      1.00000000      1.00000000
      1.00000000      1.00000000      1.00000000      1.00000000      1.00000000      1.00000000      1.00000000      1.00000000      1.00000000      1.00000000      1.00000000      1.00000000      1.00000000      1.00000000      1.00000000      1.00000000      1.00000000      1.00000000      1.00000000      1.00000000
      1.00000000      1.00000000      1.00000000      1.00000000      1.00000000      1.00000000      1.00000000      1.00000000      1.00000000      1.00000000      1.00000000      1.00000000      1.00000000      1.00000000      1.00000000      1.00000000      1.00000000      1.00000000      1.00000000      1.00000000
      1.00000000      1.00000000      1.00000000      1.00000000      1.00000000      1.00000000      1.00000000      1.00000000      1.00000000      1.00000000      1.00000000      1.00000000      1.00000000      1.00000000      1.00000000      1.00000000      1.00000000      1.00000000      1.00000000      1.00000000
      1.00000000      1.00000000      1.00000000      1.00000000      1.00000000      1.00000000      1.00000000      1.00000000      1.00000000      1.00000000      1.00000000      1.00000000      1.00000000      1.00000000      1.00000000      1.00000000      1.00000000      1.00000000      1.00000000      1.00000000
      1.00000000      1.00000000      1.00000000      1.00000000      1.00000000      1.00000000      1.00000000      1.00000000      1.00000000      1.00000000      1.00000000      1.00000000      1.00000000      1.00000000      1.00000000      1.00000000      1.00000000      1.00000000      1.00000000      1.00000000
      1.00000000      1.00000000      1.00000000      1.00000000      1.00000000      1.00000000      1.00000000      1.00000000      1.00000000      1.00000000      1.00000000      1.00000000      1.00000000      1.00000000      1.00000000      1.00000000      1.00000000      1.00000000      1.00000000      1.00000000
      1.00000000      1.00000000      1.00000000      1.00000000      1.00000000      1.00000000      1.00000000      1.00000000      1.00000000      1.00000000      1.00000000      1.00000000      1.00000000      1.00000000      1.00000000      1.00000000      1.00000000      1.00000000      1.00000000      1.00000000
      1.00000000      1.00000000      1.00000000      1.00000000      1.00000000      1.00000000      1.00000000      1.00000000</v>
    <i name="NUPDOWN">     -1.00000000</i>
    <i type="logical" name="LSORBIT"> F  </i>
    <v name="SAXIS">      0.00000000      0.00000000      1.00000000</v>
    <i type="logical" name="LSPIRAL"> F  </i>
    <v name="QSPIRAL">      0.00000000      0.00000000      0.00000000</v>
    <i type="logical" name="LZEROZ"> F  </i>
   </separator>
   <separator name="electronic exchange-correlation" >
    <i type="logical" name="LASPH"> F  </i>
    <i type="logical" name="LMETAGGA"> F  </i>
   </separator>
   <separator name="electronic convergence" >
    <i type="int" name="NELM">   100</i>
    <i type="int" name="NELMDL">     0</i>
    <i type="int" name="NELMIN">     4</i>
    <i name="ENINI">    450.00000000</i>
    <separator name="electronic convergence detail" >
     <i type="logical" name="LDIAG"> T  </i>
     <i type="logical" name="LSUBROT"> F  </i>
     <i name="WEIMIN">      0.00100000</i>
     <i name="EBREAK">      0.00000000</i>
     <i name="DEPER">      0.30000000</i>
     <i type="int" name="NRMM">     4</i>
     <i name="TIME">      0.40000000</i>
    </separator>
   </separator>
   <separator name="electronic mixer" >
    <i name="AMIX">      0.40000000</i>
    <i name="BMIX">      1.00000000</i>
    <i name="AMIN">      0.10000000</i>
    <i name="AMIX_MAG">      1.60000000</i>
    <i name="BMIX_MAG">      1.00000000</i>
    <separator name="electronic mixer details" >
     <i type="int" name="IMIX">     4</i>
     <i type="logical" name="MIXFIRST"> F  </i>
     <i type="int" name="MAXMIX">   -45</i>
     <i name="WC">    100.00000000</i>
     <i type="int" name="INIMIX">     1</i>
     <i type="int" name="MIXPRE">     1</i>
     <i type="int" name="MREMOVE">     5</i>
    </separator>
   </separator>
   <separator name="electronic dipolcorrection" >
    <i type="logical" name="LDIPOL"> F  </i>
    <i type="logical" name="LMONO"> F  </i>
    <i type="int" name="IDIPOL">     0</i>
    <i name="EPSILON">      1.00000000</i>
    <v name="DIPOL">   -100.00000000   -100.00000000   -100.00000000</v>
    <i name="EFIELD">      0.00000000</i>
   </separator>
  </separator>
  <separator name="grids" >
   <i type="int" name="NGX">    70</i>
   <i type="int" name="NGY">    60</i>
   <i type="int" name="NGZ">   320</i>
   <i type="int" name="NGXF">   140</i>
   <i type="int" name="NGYF">   120</i>
   <i type="int" name="NGZF">   640</i>
   <i type="logical" name="ADDGRID"> F  </i>
  </separator>
  <separator name="ionic" >
   <i type="int" name="NSW">     5</i>
   <i type="int" name="IBRION">     2</i>
   <i type="int" name="MDALGO">     0</i>
   <i type="int" name="ISIF">     2</i>
   <i name="PSTRESS">      0.00000000</i>
   <i name="EDIFFG">      0.00001000</i>
   <i type="int" name="NFREE">     1</i>
   <i name="POTIM">      0.25000000</i>
   <i name="SMASS">     -3.00000000</i>
   <i name="SCALEE">      1.00000000</i>
  </separator>
  <separator name="ionic md" >
   <i name="TEBEG">      0.00010000</i>
   <i name="TEEND">      0.00010000</i>
   <i type="int" name="NBLOCK">     1</i>
   <i type="int" name="KBLOCK">     5</i>
   <i type="int" name="NPACO">   256</i>
   <i name="APACO">     16.00000000</i>
  </separator>
  <separator name="symmetry" >
   <i type="int" name="ISYM">     2</i>
   <i name="SYMPREC">      0.00001000</i>
  </separator>
  <separator name="dos" >
   <i type="int" name="LORBIT">     0</i>
   <v name="RWIGS">     -1.00000000     -1.00000000</v>
   <i type="int" name="NEDOS">   301</i>
   <i name="EMIN">     10.00000000</i>
   <i name="EMAX">    -10.00000000</i>
   <i name="EFERMI">      0.00000000</i>
  </separator>
  <separator name="writing" >
   <i type="int" name="NWRITE">     2</i>
   <i type="logical" name="LWAVE"> F  </i>
   <i type="logical" name="LDOWNSAMPLE"> F  </i>
   <i type="logical" name="LCHARG"> F  </i>
   <i type="logical" name="LPARD"> F  </i>
   <i type="logical" name="LVTOT"> F  </i>
   <i type="logical" name="LVHAR"> F  </i>
   <i type="logical" name="LELF"> F  </i>
   <i type="logical" name="LOPTICS"> F  </i>
   <v name="STM">      0.00000000      0.00000000      0.00000000      0.00000000      0.00000000      0.00000000      0.00000000</v>
  </separator>
  <separator name="performance" >
   <i type="int" name="NPAR">    14</i>
   <i type="int" name="NSIM">     4</i>
   <i type="int" name="NBLK">    -1</i>
   <i type="logical" name="LPLANE"> T  </i>
   <i type="logical" name="LSCALAPACK"> T  </i>
   <i type="logical" name="LSCAAWARE"> T  </i>
   <i type="logical" name="LSCALU"> F  </i>
   <i type="logical" name="LASYNC"> F  </i>
   <i type="logical" name="LORBITALREAL"> F  </i>
  </separator>
  <separator name="miscellaneous" >
   <i type="int" name="IDIOT">     3</i>
   <i type="int" name="ISPECIAL">     0</i>
   <i type="logical" name="LMUSIC"> F  </i>
   <v name="POMASS">     55.84700000     54.93800000</v>
   <v name="DARWINR">      0.00000000      0.00000000</v>
   <v name="DARWINV">      1.00000000      1.00000000</v>
   <i type="logical" name="LCORR"> T  </i>
  </separator>
  <i type="logical" name="GGA_COMPAT"> T  </i>
  <i type="logical" name="LBERRY"> F  </i>
  <i type="int" name="ICORELEVEL">     0</i>
  <i type="logical" name="LDAU"> F  </i>
  <i type="int" name="I_CONSTRAINED_M">     0</i>
  <separator name="electronic exchange-correlation" >
   <i type="string" name="GGA">--</i>
   <i type="int" name="VOSKOWN">     0</i>
   <i type="logical" name="LHFCALC"> F  </i>
   <i type="string" name="PRECFOCK"></i>
   <i type="logical" name="LSYMGRAD"> F  </i>
   <i type="logical" name="LHFONE"> F  </i>
   <i type="logical" name="LRHFCALC"> F  </i>
   <i type="logical" name="LTHOMAS"> F  </i>
   <i type="logical" name="LMODELHF"> F  </i>
   <i name="ENCUT4O">     -1.00000000</i>
   <i type="int" name="EXXOEP">     0</i>
   <i type="int" name="FOURORBIT">     0</i>
   <i name="AEXX">      0.00000000</i>
   <i name="HFALPHA">      0.00000000</i>
   <i name="MCALPHA">      0.00000000</i>
   <i name="ALDAX">      1.00000000</i>
   <i name="AGGAX">      1.00000000</i>
   <i name="ALDAC">      1.00000000</i>
   <i name="AGGAC">      1.00000000</i>
   <i type="int" name="NKREDX">     1</i>
   <i type="int" name="NKREDY">     1</i>
   <i type="int" name="NKREDZ">     1</i>
   <i type="logical" name="SHIFTRED"> F  </i>
   <i type="logical" name="ODDONLY"> F  </i>
   <i type="logical" name="EVENONLY"> F  </i>
   <i type="int" name="LMAXFOCK">     0</i>
   <i type="int" name="NMAXFOCKAE">     0</i>
   <i type="logical" name="LFOCKAEDFT"> F  </i>
   <i name="HFSCREEN">      0.00000000</i>
   <i name="HFSCREENC">      0.00000000</i>
   <i type="int" name="NBANDSGWLOW">     0</i>
  </separator>
  <separator name="vdW DFT" >
   <i type="logical" name="LUSE_VDW"> F  </i>
   <i name="Zab_VDW">     -0.84910000</i>
   <i name="PARAM1">      0.12340000</i>
   <i name="PARAM2">      1.00000000</i>
   <i name="PARAM3">      0.00000000</i>
  </separator>
  <separator name="model GW" >
   <i type="int" name="MODEL_GW">     0</i>
   <i name="MODEL_EPS0">      7.68123389</i>
   <i name="MODEL_ALPHA">      1.00000000</i>
  </separator>
  <separator name="linear response parameters" >
   <i type="logical" name="LEPSILON"> F  </i>
   <i type="logical" name="LRPA"> F  </i>
   <i type="logical" name="LNABLA"> F  </i>
   <i type="logical" name="LVEL"> F  </i>
   <i type="int" name="KINTER">     0</i>
   <i name="CSHIFT">      0.10000000</i>
   <i name="OMEGAMAX">     -1.00000000</i>
   <i name="DEG_THRESHOLD">      0.00200000</i>
   <i name="RTIME">     -0.10000000</i>
   <i name="WPLASMAI">      0.00000000</i>
   <v name="DFIELD">      0.00000000      0.00000000      0.00000000</v>
   <v name="WPLASMA">      0.00000000      0.00000000      0.00000000      0.00000000      0.00000000      0.00000000      0.00000000      0.00000000      0.00000000</v>
  </separator>
  <separator name="orbital magnetization" >
   <i type="logical" name="NUCIND"> F  </i>
   <v name="MAGPOS">      0.00000000      0.00000000      0.00000000</v>
   <i type="logical" name="LNICSALL"> T  </i>
   <i type="logical" name="ORBITALMAG"> F  </i>
   <i type="logical" name="LMAGBLOCH"> F  </i>
   <i type="logical" name="LCHIMAG"> F  </i>
   <i type="logical" name="LGAUGE"> T  </i>
   <i type="int" name="MAGATOM">     0</i>
   <v name="MAGDIPOL">      0.00000000      0.00000000      0.00000000</v>
   <v name="AVECCONST">      0.00000000      0.00000000      0.00000000</v>
  </separator>
  <separator name="response functions" >
   <i type="logical" name="LADDER"> F  </i>
   <i type="logical" name="LRPAFORCE"> F  </i>
   <i type="logical" name="LFXC"> F  </i>
   <i type="logical" name="LHARTREE"> T  </i>
   <i type="int" name="IBSE">     0</i>
   <v type="int" name="KPOINT">    -1     0     0     0</v>
   <i type="logical" name="LTCTE"> F  </i>
   <i type="logical" name="LTETE"> F  </i>
   <i type="logical" name="LTRIPLET"> F  </i>
   <i type="logical" name="LFXCEPS"> F  </i>
   <i type="logical" name="LFXHEG"> F  </i>
   <i type="int" name="NATURALO">     2</i>
   <i type="logical" name="L2ORDER"> F  </i>
   <i type="logical" name="LMP2LT"> F  </i>
   <i type="logical" name="LUSEW"> F  </i>
   <i name="ENCUTGW">     -2.00000000</i>
   <i name="ENCUTGWSOFT">     -2.00000000</i>
   <i name="ENCUTLF">     -1.00000000</i>
   <i type="int" name="LMAXMP2">    -1</i>
   <i name="SCISSOR">      0.00000000</i>
   <i type="int" name="NOMEGA">     0</i>
   <i type="int" name="NOMEGAR">     0</i>
   <i type="int" name="NBANDSGW">    -1</i>
   <i type="int" name="NBANDSO">    -1</i>
   <i type="int" name="NBANDSV">    -1</i>
   <i type="int" name="NELM">   100</i>
   <i type="int" name="NELMHF">     1</i>
   <i type="int" name="DIM">     3</i>
   <i type="int" name="ANTIRES">     0</i>
   <i name="OMEGAMAX">    -30.00000000</i>
   <i name="OMEGAMIN">    -30.00000000</i>
   <i name="OMEGATL">   -200.00000000</i>
   <i type="int" name="OMEGAGRID">   140</i>
   <i name="CSHIFT">     -0.10000000</i>
   <i type="logical" name="SELFENERGY"> F  </i>
   <i type="logical" name="LSPECTRAL"> F  </i>
   <i type="logical" name="LSPECTRALGW"> F  </i>
   <i type="logical" name="LSINGLES"> F  </i>
   <i type="logical" name="LFERMIGW"> F  </i>
   <i type="logical" name="ODDONLYGW"> F  </i>
   <i type="logical" name="EVENONLYGW"> F  </i>
   <i type="int" name="NKREDLFX">     1</i>
   <i type="int" name="NKREDLFY">     1</i>
   <i type="int" name="NKREDLFZ">     1</i>
   <i type="int" name="MAXMEM">  2800</i>
   <i type="int" name="TELESCOPE">     0</i>
   <i type="int" name="TAUPAR">     1</i>
   <i type="int" name="OMEGAPAR">    -1</i>
   <i name="LAMBDA">      1.00000000</i>
  </separator>
  <separator name="External order field" >
   <i name="OFIELD_KAPPA">      0.00000000</i>
   <v name="OFIELD_K">      0.00000000      0.00000000      0.00000000</v>
   <i name="OFIELD_Q6_NEAR">      0.00000000</i>
   <i name="OFIELD_Q6_FAR">      0.00000000</i>
   <i name="OFIELD_A">      0.00000000</i>
  </separator>
 </parameters>
 <atominfo>
  <atoms>     288 </atoms>
  <types>       2 </types>
  <array name="atoms" >
   <dimension dim="1">ion</dimension>
   <field type="string">element</field>
   <field type="int">atomtype</field>
   <set>
    <rc><c>Fe</c><c>   1</c></rc>
    <rc><c>Fe</c><c>   1</c></rc>
    <rc><c>Fe</c><c>   1</c></rc>
    <rc><c>Fe</c><c>   1</c></rc>
    <rc><c>Fe</c><c>   1</c></rc>
    <rc><c>Fe</c><c>   1</c></rc>
    <rc><c>Fe</c><c>   1</c></rc>
    <rc><c>Fe</c><c>   1</c></rc>
    <rc><c>Fe</c><c>   1</c></rc>
    <rc><c>Fe</c><c>   1</c></rc>
    <rc><c>Fe</c><c>   1</c></rc>
    <rc><c>Fe</c><c>   1</c></rc>
    <rc><c>Fe</c><c>   1</c></rc>
    <rc><c>Fe</c><c>   1</c></rc>
    <rc><c>Fe</c><c>   1</c></rc>
    <rc><c>Fe</c><c>   1</c></rc>
    <rc><c>Fe</c><c>   1</c></rc>
    <rc><c>Fe</c><c>   1</c></rc>
    <rc><c>Fe</c><c>   1</c></rc>
    <rc><c>Fe</c><c>   1</c></rc>
    <rc><c>Fe</c><c>   1</c></rc>
    <rc><c>Fe</c><c>   1</c></rc>
    <rc><c>Fe</c><c>   1</c></rc>
    <rc><c>Fe</c><c>   1</c></rc>
    <rc><c>Fe</c><c>   1</c></rc>
    <rc><c>Fe</c><c>   1</c></rc>
    <rc><c>Fe</c><c>   1</c></rc>
    <rc><c>Fe</c><c>   1</c></rc>
    <rc><c>Fe</c><c>   1</c></rc>
    <rc><c>Fe</c><c>   1</c></rc>
    <rc><c>Fe</c><c>   1</c></rc>
    <rc><c>Fe</c><c>   1</c></rc>
    <rc><c>Fe</c><c>   1</c></rc>
    <rc><c>Fe</c><c>   1</c></rc>
    <rc><c>Fe</c><c>   1</c></rc>
    <rc><c>Fe</c><c>   1</c></rc>
    <rc><c>Fe</c><c>   1</c></rc>
    <rc><c>Fe</c><c>   1</c></rc>
    <rc><c>Fe</c><c>   1</c></rc>
    <rc><c>Fe</c><c>   1</c></rc>
    <rc><c>Fe</c><c>   1</c></rc>
    <rc><c>Fe</c><c>   1</c></rc>
    <rc><c>Fe</c><c>   1</c></rc>
    <rc><c>Fe</c><c>   1</c></rc>
    <rc><c>Fe</c><c>   1</c></rc>
    <rc><c>Fe</c><c>   1</c></rc>
    <rc><c>Fe</c><c>   1</c></rc>
    <rc><c>Fe</c><c>   1</c></rc>
    <rc><c>Fe</c><c>   1</c></rc>
    <rc><c>Fe</c><c>   1</c></rc>
    <rc><c>Fe</c><c>   1</c></rc>
    <rc><c>Fe</c><c>   1</c></rc>
    <rc><c>Fe</c><c>   1</c></rc>
    <rc><c>Fe</c><c>   1</c></rc>
    <rc><c>Fe</c><c>   1</c></rc>
    <rc><c>Fe</c><c>   1</c></rc>
    <rc><c>Fe</c><c>   1</c></rc>
    <rc><c>Fe</c><c>   1</c></rc>
    <rc><c>Fe</c><c>   1</c></rc>
    <rc><c>Fe</c><c>   1</c></rc>
    <rc><c>Fe</c><c>   1</c></rc>
    <rc><c>Fe</c><c>   1</c></rc>
    <rc><c>Fe</c><c>   1</c></rc>
    <rc><c>Fe</c><c>   1</c></rc>
    <rc><c>Fe</c><c>   1</c></rc>
    <rc><c>Fe</c><c>   1</c></rc>
    <rc><c>Fe</c><c>   1</c></rc>
    <rc><c>Fe</c><c>   1</c></rc>
    <rc><c>Fe</c><c>   1</c></rc>
    <rc><c>Fe</c><c>   1</c></rc>
    <rc><c>Fe</c><c>   1</c></rc>
    <rc><c>Fe</c><c>   1</c></rc>
    <rc><c>Fe</c><c>   1</c></rc>
    <rc><c>Fe</c><c>   1</c></rc>
    <rc><c>Fe</c><c>   1</c></rc>
    <rc><c>Fe</c><c>   1</c></rc>
    <rc><c>Fe</c><c>   1</c></rc>
    <rc><c>Fe</c><c>   1</c></rc>
    <rc><c>Fe</c><c>   1</c></rc>
    <rc><c>Fe</c><c>   1</c></rc>
    <rc><c>Fe</c><c>   1</c></rc>
    <rc><c>Fe</c><c>   1</c></rc>
    <rc><c>Fe</c><c>   1</c></rc>
    <rc><c>Fe</c><c>   1</c></rc>
    <rc><c>Fe</c><c>   1</c></rc>
    <rc><c>Fe</c><c>   1</c></rc>
    <rc><c>Fe</c><c>   1</c></rc>
    <rc><c>Fe</c><c>   1</c></rc>
    <rc><c>Fe</c><c>   1</c></rc>
    <rc><c>Fe</c><c>   1</c></rc>
    <rc><c>Fe</c><c>   1</c></rc>
    <rc><c>Fe</c><c>   1</c></rc>
    <rc><c>Fe</c><c>   1</c></rc>
    <rc><c>Fe</c><c>   1</c></rc>
    <rc><c>Fe</c><c>   1</c></rc>
    <rc><c>Fe</c><c>   1</c></rc>
    <rc><c>Fe</c><c>   1</c></rc>
    <rc><c>Fe</c><c>   1</c></rc>
    <rc><c>Fe</c><c>   1</c></rc>
    <rc><c>Fe</c><c>   1</c></rc>
    <rc><c>Fe</c><c>   1</c></rc>
    <rc><c>Fe</c><c>   1</c></rc>
    <rc><c>Fe</c><c>   1</c></rc>
    <rc><c>Fe</c><c>   1</c></rc>
    <rc><c>Fe</c><c>   1</c></rc>
    <rc><c>Fe</c><c>   1</c></rc>
    <rc><c>Fe</c><c>   1</c></rc>
    <rc><c>Fe</c><c>   1</c></rc>
    <rc><c>Fe</c><c>   1</c></rc>
    <rc><c>Fe</c><c>   1</c></rc>
    <rc><c>Fe</c><c>   1</c></rc>
    <rc><c>Fe</c><c>   1</c></rc>
    <rc><c>Fe</c><c>   1</c></rc>
    <rc><c>Fe</c><c>   1</c></rc>
    <rc><c>Fe</c><c>   1</c></rc>
    <rc><c>Fe</c><c>   1</c></rc>
    <rc><c>Fe</c><c>   1</c></rc>
    <rc><c>Fe</c><c>   1</c></rc>
    <rc><c>Fe</c><c>   1</c></rc>
    <rc><c>Fe</c><c>   1</c></rc>
    <rc><c>Fe</c><c>   1</c></rc>
    <rc><c>Fe</c><c>   1</c></rc>
    <rc><c>Fe</c><c>   1</c></rc>
    <rc><c>Fe</c><c>   1</c></rc>
    <rc><c>Fe</c><c>   1</c></rc>
    <rc><c>Fe</c><c>   1</c></rc>
    <rc><c>Fe</c><c>   1</c></rc>
    <rc><c>Fe</c><c>   1</c></rc>
    <rc><c>Fe</c><c>   1</c></rc>
    <rc><c>Fe</c><c>   1</c></rc>
    <rc><c>Fe</c><c>   1</c></rc>
    <rc><c>Fe</c><c>   1</c></rc>
    <rc><c>Fe</c><c>   1</c></rc>
    <rc><c>Fe</c><c>   1</c></rc>
    <rc><c>Fe</c><c>   1</c></rc>
    <rc><c>Fe</c><c>   1</c></rc>
    <rc><c>Fe</c><c>   1</c></rc>
    <rc><c>Fe</c><c>   1</c></rc>
    <rc><c>Fe</c><c>   1</c></rc>
    <rc><c>Fe</c><c>   1</c></rc>
    <rc><c>Fe</c><c>   1</c></rc>
    <rc><c>Fe</c><c>   1</c></rc>
    <rc><c>Fe</c><c>   1</c></rc>
    <rc><c>Fe</c><c>   1</c></rc>
    <rc><c>Fe</c><c>   1</c></rc>
    <rc><c>Fe</c><c>   1</c></rc>
    <rc><c>Fe</c><c>   1</c></rc>
    <rc><c>Fe</c><c>   1</c></rc>
    <rc><c>Fe</c><c>   1</c></rc>
    <rc><c>Fe</c><c>   1</c></rc>
    <rc><c>Fe</c><c>   1</c></rc>
    <rc><c>Fe</c><c>   1</c></rc>
    <rc><c>Fe</c><c>   1</c></rc>
    <rc><c>Fe</c><c>   1</c></rc>
    <rc><c>Fe</c><c>   1</c></rc>
    <rc><c>Fe</c><c>   1</c></rc>
    <rc><c>Fe</c><c>   1</c></rc>
    <rc><c>Fe</c><c>   1</c></rc>
    <rc><c>Fe</c><c>   1</c></rc>
    <rc><c>Fe</c><c>   1</c></rc>
    <rc><c>Fe</c><c>   1</c></rc>
    <rc><c>Fe</c><c>   1</c></rc>
    <rc><c>Fe</c><c>   1</c></rc>
    <rc><c>Fe</c><c>   1</c></rc>
    <rc><c>Fe</c><c>   1</c></rc>
    <rc><c>Fe</c><c>   1</c></rc>
    <rc><c>Fe</c><c>   1</c></rc>
    <rc><c>Fe</c><c>   1</c></rc>
    <rc><c>Fe</c><c>   1</c></rc>
    <rc><c>Fe</c><c>   1</c></rc>
    <rc><c>Fe</c><c>   1</c></rc>
    <rc><c>Fe</c><c>   1</c></rc>
    <rc><c>Fe</c><c>   1</c></rc>
    <rc><c>Fe</c><c>   1</c></rc>
    <rc><c>Fe</c><c>   1</c></rc>
    <rc><c>Fe</c><c>   1</c></rc>
    <rc><c>Fe</c><c>   1</c></rc>
    <rc><c>Fe</c><c>   1</c></rc>
    <rc><c>Fe</c><c>   1</c></rc>
    <rc><c>Fe</c><c>   1</c></rc>
    <rc><c>Fe</c><c>   1</c></rc>
    <rc><c>Fe</c><c>   1</c></rc>
    <rc><c>Fe</c><c>   1</c></rc>
    <rc><c>Fe</c><c>   1</c></rc>
    <rc><c>Fe</c><c>   1</c></rc>
    <rc><c>Fe</c><c>   1</c></rc>
    <rc><c>Fe</c><c>   1</c></rc>
    <rc><c>Fe</c><c>   1</c></rc>
    <rc><c>Fe</c><c>   1</c></rc>
    <rc><c>Fe</c><c>   1</c></rc>
    <rc><c>Fe</c><c>   1</c></rc>
    <rc><c>Fe</c><c>   1</c></rc>
    <rc><c>Fe</c><c>   1</c></rc>
    <rc><c>Fe</c><c>   1</c></rc>
    <rc><c>Fe</c><c>   1</c></rc>
    <rc><c>Fe</c><c>   1</c></rc>
    <rc><c>Fe</c><c>   1</c></rc>
    <rc><c>Fe</c><c>   1</c></rc>
    <rc><c>Fe</c><c>   1</c></rc>
    <rc><c>Fe</c><c>   1</c></rc>
    <rc><c>Fe</c><c>   1</c></rc>
    <rc><c>Fe</c><c>   1</c></rc>
    <rc><c>Fe</c><c>   1</c></rc>
    <rc><c>Fe</c><c>   1</c></rc>
    <rc><c>Fe</c><c>   1</c></rc>
    <rc><c>Fe</c><c>   1</c></rc>
    <rc><c>Fe</c><c>   1</c></rc>
    <rc><c>Fe</c><c>   1</c></rc>
    <rc><c>Fe</c><c>   1</c></rc>
    <rc><c>Fe</c><c>   1</c></rc>
    <rc><c>Fe</c><c>   1</c></rc>
    <rc><c>Fe</c><c>   1</c></rc>
    <rc><c>Fe</c><c>   1</c></rc>
    <rc><c>Fe</c><c>   1</c></rc>
    <rc><c>Fe</c><c>   1</c></rc>
    <rc><c>Fe</c><c>   1</c></rc>
    <rc><c>Fe</c><c>   1</c></rc>
    <rc><c>Fe</c><c>   1</c></rc>
    <rc><c>Fe</c><c>   1</c></rc>
    <rc><c>Fe</c><c>   1</c></rc>
    <rc><c>Fe</c><c>   1</c></rc>
    <rc><c>Fe</c><c>   1</c></rc>
    <rc><c>Fe</c><c>   1</c></rc>
    <rc><c>Fe</c><c>   1</c></rc>
    <rc><c>Fe</c><c>   1</c></rc>
    <rc><c>Fe</c><c>   1</c></rc>
    <rc><c>Fe</c><c>   1</c></rc>
    <rc><c>Fe</c><c>   1</c></rc>
    <rc><c>Fe</c><c>   1</c></rc>
    <rc><c>Fe</c><c>   1</c></rc>
    <rc><c>Fe</c><c>   1</c></rc>
    <rc><c>Fe</c><c>   1</c></rc>
    <rc><c>Fe</c><c>   1</c></rc>
    <rc><c>Fe</c><c>   1</c></rc>
    <rc><c>Fe</c><c>   1</c></rc>
    <rc><c>Fe</c><c>   1</c></rc>
    <rc><c>Fe</c><c>   1</c></rc>
    <rc><c>Fe</c><c>   1</c></rc>
    <rc><c>Fe</c><c>   1</c></rc>
    <rc><c>Fe</c><c>   1</c></rc>
    <rc><c>Fe</c><c>   1</c></rc>
    <rc><c>Fe</c><c>   1</c></rc>
    <rc><c>Fe</c><c>   1</c></rc>
    <rc><c>Fe</c><c>   1</c></rc>
    <rc><c>Fe</c><c>   1</c></rc>
    <rc><c>Fe</c><c>   1</c></rc>
    <rc><c>Fe</c><c>   1</c></rc>
    <rc><c>Fe</c><c>   1</c></rc>
    <rc><c>Fe</c><c>   1</c></rc>
    <rc><c>Fe</c><c>   1</c></rc>
    <rc><c>Fe</c><c>   1</c></rc>
    <rc><c>Fe</c><c>   1</c></rc>
    <rc><c>Fe</c><c>   1</c></rc>
    <rc><c>Fe</c><c>   1</c></rc>
    <rc><c>Fe</c><c>   1</c></rc>
    <rc><c>Fe</c><c>   1</c></rc>
    <rc><c>Fe</c><c>   1</c></rc>
    <rc><c>Fe</c><c>   1</c></rc>
    <rc><c>Fe</c><c>   1</c></rc>
    <rc><c>Fe</c><c>   1</c></rc>
    <rc><c>Fe</c><c>   1</c></rc>
    <rc><c>Fe</c><c>   1</c></rc>
    <rc><c>Fe</c><c>   1</c></rc>
    <rc><c>Fe</c><c>   1</c></rc>
    <rc><c>Fe</c><c>   1</c></rc>
    <rc><c>Fe</c><c>   1</c></rc>
    <rc><c>Fe</c><c>   1</c></rc>
    <rc><c>Fe</c><c>   1</c></rc>
    <rc><c>Fe</c><c>   1</c></rc>
    <rc><c>Fe</c><c>   1</c></rc>
    <rc><c>Fe</c><c>   1</c></rc>
    <rc><c>Fe</c><c>   1</c></rc>
    <rc><c>Fe</c><c>   1</c></rc>
    <rc><c>Fe</c><c>   1</c></rc>
    <rc><c>Mn</c><c>   2</c></rc>
    <rc><c>Mn</c><c>   2</c></rc>
    <rc><c>Mn</c><c>   2</c></rc>
    <rc><c>Mn</c><c>   2</c></rc>
    <rc><c>Mn</c><c>   2</c></rc>
    <rc><c>Mn</c><c>   2</c></rc>
    <rc><c>Mn</c><c>   2</c></rc>
    <rc><c>Mn</c><c>   2</c></rc>
    <rc><c>Mn</c><c>   2</c></rc>
    <rc><c>Mn</c><c>   2</c></rc>
    <rc><c>Mn</c><c>   2</c></rc>
    <rc><c>Mn</c><c>   2</c></rc>
    <rc><c>Mn</c><c>   2</c></rc>
    <rc><c>Mn</c><c>   2</c></rc>
   </set>
  </array>
  <array name="atomtypes" >
   <dimension dim="1">type</dimension>
   <field type="int">atomspertype</field>
   <field type="string">element</field>
   <field>mass</field>
   <field>valence</field>
   <field type="string">pseudopotential</field>
   <set>
    <rc><c> 274</c><c>Fe</c><c>     55.84700000</c><c>      8.00000000</c><c>  PAW_PBE Fe_GW 31Mar2010               </c></rc>
    <rc><c>  14</c><c>Mn</c><c>     54.93800000</c><c>      7.00000000</c><c>  PAW_PBE Mn_GW 31Mar2010               </c></rc>
   </set>
  </array>
 </atominfo>
 <structure name="initialpos" >
  <crystal>
   <varray name="basis" >
    <v>       9.72667804       0.00000000       0.00000000 </v>
    <v>       0.00000000       8.42355028       0.00000000 </v>
    <v>       0.00000000       0.00000000      45.00000000 </v>
   </varray>
   <i name="volume">   3686.99226691 </i>
   <varray name="rec_basis" >
    <v>       0.10281002       0.00000000       0.00000000 </v>
    <v>       0.00000000       0.11871479       0.00000000 </v>
    <v>       0.00000000       0.00000000       0.02222222 </v>
   </varray>
  </crystal>
  <varray name="positions" >
   <v>       0.06181475       0.03124766       0.12437477 </v>
   <v>       0.31658154       0.87494334       0.65486462 </v>
   <v>       0.18471568       0.12192022       0.78836563 </v>
   <v>       0.44146733       0.28747144       0.38918844 </v>
   <v>       0.31684050       0.71268934       0.83313758 </v>
   <v>       0.81720139       0.21490068       0.83328140 </v>
   <v>       0.19150943       0.96248108       0.83318150 </v>
   <v>       0.56207758       0.20701320       0.56550672 </v>
   <v>       0.06548917       0.03987909       0.74398696 </v>
   <v>       0.81146562       0.87148045       0.52136962 </v>
   <v>       0.19080871       0.29074258       0.74394690 </v>
   <v>       0.93359109       0.45247264       0.34489940 </v>
   <v>       0.94115118       0.28682994       0.38899484 </v>
   <v>       0.81330661       0.03928063       0.87551830 </v>
   <v>       0.18363169       0.78815712       0.61085582 </v>
   <v>       0.06425837       0.03896952       0.87558197 </v>
   <v>       0.94162071       0.96277142       0.83346684 </v>
   <v>       0.31355000       0.53934539       0.87567529 </v>
   <v>       0.69042946       0.29038448       0.74397164 </v>
   <v>       0.18217832       0.61379794       0.16667629 </v>
   <v>       0.81216240       0.20569812       0.47871629 </v>
   <v>       0.80872241       0.53792302       0.61093497 </v>
   <v>       0.31199768       0.87035034       0.43451975 </v>
   <v>       0.80921810       0.03823791       0.25611755 </v>
   <v>       0.68339901       0.95163405       0.34488024 </v>
   <v>       0.93144570       0.11440945       0.16718100 </v>
   <v>       0.06169614       0.87139930       0.52138622 </v>
   <v>       0.55839059       0.53796445       0.25624746 </v>
   <v>       0.68513752       0.79562675       0.87552759 </v>
   <v>       0.55609209       0.36559512       0.16679766 </v>
   <v>       0.44016379       0.79060587       0.74400163 </v>
   <v>       0.81140745       0.70662915       0.56547490 </v>
   <v>       0.55980659       0.87231210       0.78833099 </v>
   <v>       0.68666833       0.12155816       0.52143146 </v>
   <v>       0.81642904       0.37482808       0.65490962 </v>
   <v>       0.94150976       0.46274655       0.83349531 </v>
   <v>       0.06032245       0.20793576       0.69956662 </v>
   <v>       0.43507913       0.95807347       0.69957897 </v>
   <v>       0.31717986       0.21219940       0.83322702 </v>
   <v>       0.44146287       0.62497867       0.65486853 </v>
   <v>       0.30878324       0.53790270       0.61089873 </v>
   <v>       0.93661914       0.45653282       0.56559839 </v>
   <v>       0.69005099       0.79087547       0.74398149 </v>
   <v>       0.93381353       0.78837758       0.12466506 </v>
   <v>       0.69140554       0.78780010       0.38906206 </v>
   <v>       0.94044159       0.79004727       0.74410769 </v>
   <v>       0.05885032       0.20298234       0.34495943 </v>
   <v>       0.68357916       0.45226587       0.34499873 </v>
   <v>       0.43406933       0.12200163       0.78876838 </v>
   <v>       0.06478453       0.20501467       0.21161516 </v>
   <v>       0.05545266       0.36555491       0.16680565 </v>
   <v>       0.93327516       0.78852669       0.25583758 </v>
   <v>       0.56042034       0.20780378       0.69956737 </v>
   <v>       0.68506193       0.95799767       0.69962084 </v>
   <v>       0.80999648       0.87220963       0.78827115 </v>
   <v>       0.43682748       0.95715109       0.56539175 </v>
   <v>       0.81023370       0.37251541       0.78822385 </v>
   <v>       0.68413771       0.28872294       0.25613595 </v>
   <v>       0.18717826       0.45718995       0.56543508 </v>
   <v>       0.05572385       0.86550659       0.16680229 </v>
   <v>       0.18370669       0.28795813       0.61091661 </v>
   <v>       0.06216626       0.20729900       0.56537360 </v>
   <v>       0.31044058       0.20781963       0.69960428 </v>
   <v>       0.56340736       0.53962010       0.87562447 </v>
   <v>       0.06177424       0.70640428       0.56551281 </v>
   <v>       0.68464064       0.62216938       0.78819407 </v>
   <v>       0.31579018       0.53811212       0.38902394 </v>
   <v>       0.18679768       0.62134595       0.52145436 </v>
   <v>       0.56244564       0.87024040       0.43446415 </v>
   <v>       0.43695718       0.45705805       0.56550488 </v>
   <v>       0.43988413       0.29103018       0.74407573 </v>
   <v>       0.82024122       0.87463029       0.30027843 </v>
   <v>       0.80887730       0.70278820       0.34509809 </v>
   <v>       0.44157044       0.46254957       0.83313205 </v>
   <v>       0.68749241       0.95563222       0.47868843 </v>
   <v>       0.68520924       0.45794094       0.69962143 </v>
   <v>       0.56180968       0.87196464       0.52141168 </v>
   <v>       0.56655872       0.37482454       0.65486994 </v>
   <v>       0.81643212       0.87484127       0.65491160 </v>
   <v>       0.81173678       0.37148448       0.43424257 </v>
   <v>       0.80872090       0.53798152       0.25622169 </v>
   <v>       0.69180379       0.46220608       0.83316452 </v>
   <v>       0.18606014       0.78853215       0.12426111 </v>
   <v>       0.69107877       0.28672832       0.38895981 </v>
   <v>       0.31641727       0.37489982       0.65490678 </v>
   <v>       0.30902767       0.20261866       0.34480287 </v>
   <v>       0.81568698       0.53999033       0.74394648 </v>
   <v>       0.69166126       0.96237036       0.83313630 </v>
   <v>       0.56631052       0.87488102       0.65494016 </v>
   <v>       0.31132790       0.70731029       0.56544637 </v>
   <v>       0.31246443       0.53135291       0.12427051 </v>
   <v>       0.68980868       0.95562996       0.21190272 </v>
   <v>       0.31141049       0.20661491       0.56550193 </v>
   <v>       0.18738745       0.95578901       0.47868041 </v>
   <v>       0.68738716       0.95720747       0.56548408 </v>
   <v>       0.43371795       0.78814392       0.61085131 </v>
   <v>       0.68229938       0.61189443       0.16672927 </v>
   <v>       0.31866508       0.87443336       0.30013166 </v>
   <v>       0.31219835       0.70569410       0.47867956 </v>
   <v>       0.93371101       0.28780153       0.61088930 </v>
   <v>       0.44528201       0.62478981       0.30036162 </v>
   <v>       0.80690458       0.86411992       0.16722308 </v>
   <v>       0.56672848       0.20303135       0.21174855 </v>
   <v>       0.93322755       0.61276701       0.16685427 </v>
   <v>       0.43723425       0.95566709       0.47868158 </v>
   <v>       0.55987237       0.37214618       0.78831803 </v>
   <v>       0.06146027       0.37222099       0.52135885 </v>
   <v>       0.30682755       0.36473036       0.16686907 </v>
   <v>       0.69521239       0.12355318       0.30030285 </v>
   <v>       0.44164001       0.96258521       0.83315490 </v>
   <v>       0.18466113       0.28742635       0.12450920 </v>
   <v>       0.18416537       0.28947254       0.25609276 </v>
   <v>       0.31240697       0.37022361       0.43446269 </v>
   <v>       0.56256138       0.03268668       0.12458903 </v>
   <v>       0.43367418       0.28797224       0.61086285 </v>
   <v>       0.18361807       0.45273838       0.34508997 </v>
   <v>       0.43457079       0.28736154       0.12456019 </v>
   <v>       0.68373548       0.78898865       0.25604455 </v>
   <v>       0.43665505       0.12144156       0.52138316 </v>
   <v>       0.18771289       0.29577527       0.87573340 </v>
   <v>       0.19154829       0.12499697       0.65490984 </v>
   <v>       0.94152653       0.12498860       0.65489974 </v>
   <v>       0.81632326       0.53781141       0.38908415 </v>
   <v>       0.06632337       0.03777131       0.38911246 </v>
   <v>       0.18290788       0.11202786       0.16667794 </v>
   <v>       0.05863028       0.53777065       0.61092314 </v>
   <v>       0.93419816       0.28931741       0.25607945 </v>
   <v>       0.55866881       0.53806969       0.61086481 </v>
   <v>       0.93696071       0.95734823       0.56545320 </v>
   <v>       0.69484823       0.62473454       0.30004223 </v>
   <v>       0.93744577       0.62013584       0.43447018 </v>
   <v>       0.93392421       0.62322096       0.78818852 </v>
   <v>       0.56033852       0.70769420       0.69959195 </v>
   <v>       0.06632795       0.71472714       0.83345894 </v>
   <v>       0.94517199       0.12359050       0.30027915 </v>
   <v>       0.93373676       0.78764739       0.61091435 </v>
   <v>       0.43355308       0.78936440       0.25605067 </v>
   <v>       0.31074379       0.37200392       0.78819318 </v>
   <v>       0.43983290       0.45520550       0.21179552 </v>
   <v>       0.18669914       0.12172783       0.52140272 </v>
   <v>       0.81038771       0.70800062       0.69955233 </v>
   <v>       0.05864649       0.03797456       0.61085475 </v>
   <v>       0.56625473       0.21288515       0.83310929 </v>
   <v>       0.31166423       0.87196819       0.52139495 </v>
   <v>       0.68636240       0.28692828       0.12438457 </v>
   <v>       0.19020493       0.95609546       0.21199939 </v>
   <v>       0.68358683       0.28794487       0.61092519 </v>
   <v>       0.30862445       0.03787863       0.61096240 </v>
   <v>       0.93415398       0.12329165       0.78829162 </v>
   <v>       0.43695528       0.79547856       0.87576933 </v>
   <v>       0.81553641       0.04019704       0.74393648 </v>
   <v>       0.93518356       0.45789937       0.69963100 </v>
   <v>       0.19141553       0.62502652       0.65490755 </v>
   <v>       0.31040479       0.70783542       0.69955794 </v>
   <v>       0.93452076       0.28710245       0.12440403 </v>
   <v>       0.43738308       0.45576898       0.47861108 </v>
   <v>       0.06220740       0.70570639       0.47858661 </v>
   <v>       0.93702053       0.11961223       0.43458496 </v>
   <v>       0.44422519       0.12437577       0.30047452 </v>
   <v>       0.18700764       0.11938947       0.43428314 </v>
   <v>       0.56312369       0.03958738       0.87569571 </v>
   <v>       0.18697160       0.95708391       0.56547716 </v>
   <v>       0.68413164       0.78831481       0.12476970 </v>
   <v>       0.55903358       0.70280854       0.34511307 </v>
   <v>       0.31649813       0.03724572       0.38905832 </v>
   <v>       0.68232899       0.11430460       0.16718109 </v>
   <v>       0.81528188       0.20512665       0.21164564 </v>
   <v>       0.05972997       0.53796060       0.25594450 </v>
   <v>       0.56238446       0.70563528       0.47866479 </v>
   <v>       0.43464450       0.78762187       0.12451831 </v>
   <v>       0.56933029       0.37390766       0.30025455 </v>
   <v>       0.43355058       0.95262021       0.34506591 </v>
   <v>       0.18517645       0.95811787       0.69969254 </v>
   <v>       0.43190016       0.61362568       0.16662954 </v>
   <v>       0.94002216       0.45544233       0.21197550 </v>
   <v>       0.06174711       0.53119379       0.12429249 </v>
   <v>       0.81176209       0.37181572       0.52137426 </v>
   <v>       0.94458692       0.62432790       0.30012597 </v>
   <v>       0.30903700       0.03781452       0.25577764 </v>
   <v>       0.68378718       0.78796830       0.61089198 </v>
   <v>       0.19152489       0.46248677       0.83315834 </v>
   <v>       0.43232926       0.11212735       0.16671758 </v>
   <v>       0.31146191       0.37184700       0.52137437 </v>
   <v>       0.43409189       0.62206658       0.78856151 </v>
   <v>       0.05881247       0.03812343       0.25605438 </v>
   <v>       0.56204978       0.70704753       0.56551862 </v>
   <v>       0.94045882       0.28982314       0.74400960 </v>
   <v>       0.68358640       0.12251705       0.78836986 </v>
   <v>       0.18960360       0.45491401       0.21163185 </v>
   <v>       0.94118536       0.78748339       0.38900749 </v>
   <v>       0.68593003       0.29675230       0.87562638 </v>
   <v>       0.55569568       0.86487750       0.16668003 </v>
   <v>       0.43540270       0.45782262       0.69957406 </v>
   <v>       0.93408575       0.95166990       0.34493501 </v>
   <v>       0.68649199       0.62130109       0.52129449 </v>
   <v>       0.06643002       0.87479069       0.65490445 </v>
   <v>       0.05977730       0.87236587       0.78829449 </v>
   <v>       0.06638494       0.37494869       0.65490899 </v>
   <v>       0.68705222       0.45560008       0.47868425 </v>
   <v>       0.18431815       0.78950281       0.25599527 </v>
   <v>       0.43689361       0.12037222       0.43443741 </v>
   <v>       0.81356905       0.03151003       0.12433755 </v>
   <v>       0.93646231       0.62169178       0.52140720 </v>
   <v>       0.44154312       0.12488080       0.65485468 </v>
   <v>       0.81245890       0.53061052       0.12438508 </v>
   <v>       0.43385816       0.45264218       0.34514623 </v>
   <v>       0.80877991       0.20256508       0.34507444 </v>
   <v>       0.30886439       0.70216018       0.34488821 </v>
   <v>       0.69147176       0.12503054       0.65496070 </v>
   <v>       0.56955023       0.87408723       0.30050236 </v>
   <v>       0.06550960       0.54041451       0.74393983 </v>
   <v>       0.94084683       0.95535956       0.21163978 </v>
   <v>       0.81670259       0.70542491       0.21177657 </v>
   <v>       0.06958576       0.87394242       0.30043684 </v>
   <v>       0.19476981       0.12434219       0.30040469 </v>
   <v>       0.05850504       0.70248561       0.34494541 </v>
   <v>       0.80885172       0.03786485       0.61089071 </v>
   <v>       0.06302777       0.37079488       0.43440313 </v>
   <v>       0.55896481       0.20269583       0.34496389 </v>
   <v>       0.81914519       0.37473314       0.30038063 </v>
   <v>       0.55946768       0.03867596       0.25587485 </v>
   <v>       0.56627878       0.53760146       0.38907609 </v>
   <v>       0.06264442       0.20568637       0.47867530 </v>
   <v>       0.31001699       0.87175080       0.78825165 </v>
   <v>       0.93508901       0.95806379       0.69959636 </v>
   <v>       0.06912540       0.37489430       0.30041840 </v>
   <v>       0.69135853       0.62491393       0.65492154 </v>
   <v>       0.68685790       0.45701300       0.56541364 </v>
   <v>       0.44026252       0.95650142       0.21223728 </v>
   <v>       0.31236507       0.20558830       0.47875901 </v>
   <v>       0.81326965       0.53911155       0.87556166 </v>
   <v>       0.68764554       0.62014359       0.43448467 </v>
   <v>       0.81049415       0.20787758       0.69959183 </v>
   <v>       0.81237929       0.70563218       0.47866548 </v>
   <v>       0.81165718       0.87091881       0.43429767 </v>
   <v>       0.93733697       0.95512803       0.47873877 </v>
   <v>       0.56224223       0.20577707       0.47865517 </v>
   <v>       0.18699211       0.61954016       0.43446594 </v>
   <v>       0.31518362       0.04059456       0.74399399 </v>
   <v>       0.94149095       0.62508000       0.65485427 </v>
   <v>       0.56634957       0.71283923       0.83313472 </v>
   <v>       0.32032632       0.37303811       0.30025379 </v>
   <v>       0.56537662       0.70443428       0.21173271 </v>
   <v>       0.18735939       0.45578844       0.47867148 </v>
   <v>       0.31358630       0.03950766       0.87570061 </v>
   <v>       0.18497977       0.45803034       0.69959840 </v>
   <v>       0.56165396       0.37155398       0.52136120 </v>
   <v>       0.19122783       0.28779027       0.38907180 </v>
   <v>       0.31566851       0.20525123       0.21159667 </v>
   <v>       0.06725336       0.70560407       0.21155774 </v>
   <v>       0.56198061       0.37077729       0.43443481 </v>
   <v>       0.43652345       0.62187700       0.52132220 </v>
   <v>       0.81736991       0.71471163       0.83328707 </v>
   <v>       0.06050491       0.37214187       0.78821798 </v>
   <v>       0.43677992       0.29562897       0.87587448 </v>
   <v>       0.31134234       0.03155261       0.12443229 </v>
   <v>       0.68764111       0.11926687       0.43439209 </v>
   <v>       0.18354748       0.95264965       0.34513840 </v>
   <v>       0.06661694       0.21464455       0.83343643 </v>
   <v>       0.55887545       0.03813599       0.61093776 </v>
   <v>       0.68965586       0.45532066       0.21198090 </v>
   <v>       0.19058500       0.79016098       0.74397044 </v>
   <v>       0.19456226       0.62414881       0.30042405 </v>
   <v>       0.44165143       0.78768356       0.38909364 </v>
   <v>       0.43362871       0.28929573       0.25603521 </v>
   <v>       0.06459225       0.53867347       0.87556351 </v>
   <v>       0.56593029       0.04049291       0.74391739 </v>
   <v>       0.18779280       0.79578306       0.87572058 </v>
   <v>       0.93718539       0.45562884       0.47865239 </v>
   <v>       0.56568428       0.54057798       0.74391413 </v>
   <v>       0.81123407       0.20709336       0.56545917 </v>
   <v>       0.18515313       0.62164258       0.78829048 </v>
   <v>       0.06704287       0.53908810       0.38919785 </v>
   <v>       0.06050249       0.70779705       0.69958063 </v>
   <v>       0.30797557       0.53842505       0.25571396 </v>
   <v>       0.31558280       0.70341932       0.21240514 </v>
   <v>       0.30526256       0.86524572       0.16614300 </v>
   <v>       0.43702890       0.62060376       0.43443089 </v>
   <v>       0.81848055       0.03993959       0.38930365 </v>
   <v>       0.93670875       0.29588999       0.87529381 </v>
   <v>       0.93728261       0.79579105       0.87522136 </v>
   <v>       0.56569870       0.03926013       0.38896680 </v>
   <v>       0.56289354       0.52979351       0.12488149 </v>
   <v>       0.80496137       0.36645959       0.16645133 </v>
   <v>       0.06202385       0.87091317       0.43449586 </v>
   <v>       0.93655609       0.12165504       0.52142637 </v>
   <v>       0.19304199       0.78676805       0.38900443 </v>
   <v>       0.31574307       0.54055992       0.74404146 </v>
  </varray>
 </structure>
 <calculation>
  <scstep>
   <time name="dav">   54.80   54.81</time>
   <time name="total">   54.95   55.00</time>
   <energy>
    <i name="alphaZ">  16293.21160653 </i>
    <i name="ewald"> 730715.01158294 </i>
    <i name="hartreedc">-921214.50231480 </i>
    <i name="XCdc">  -6511.91764531 </i>
    <i name="pawpsdc"> 162273.92519768 </i>
    <i name="pawaedc">-159623.75899949 </i>
    <i name="eentropy">     -1.07900143 </i>
    <i name="bandstr">  38483.78274201 </i>
    <i name="atom"> 168671.76673737 </i>
    <i name="e_fr_energy">  29086.43990549 </i>
    <i name="e_wo_entrp">  29087.51890692 </i>
    <i name="e_0_energy">  29086.97940620 </i>
   </energy>
  </scstep>
  <scstep>
   <time name="dav">   54.41   54.45</time>
   <time name="total">   54.42   54.45</time>
   <energy>
    <i name="e_fr_energy">   1189.79528392 </i>
    <i name="e_wo_entrp">   1191.28374416 </i>
    <i name="e_0_energy">   1190.53951404 </i>
   </energy>
  </scstep>
  <scstep>
   <time name="dav">   71.25   71.30</time>
   <time name="total">   71.26   71.31</time>
   <energy>
    <i name="e_fr_energy">  -1949.74711609 </i>
    <i name="e_wo_entrp">  -1946.19041998 </i>
    <i name="e_0_energy">  -1947.96876803 </i>
   </energy>
  </scstep>
  <scstep>
   <time name="dav">   89.69   89.73</time>
   <time name="total">   89.70   89.74</time>
   <energy>
    <i name="e_fr_energy">  -2619.53251956 </i>
    <i name="e_wo_entrp">  -2616.01132296 </i>
    <i name="e_0_energy">  -2617.77192126 </i>
   </energy>
  </scstep>
  <scstep>
   <time name="dav">   85.46   85.50</time>
   <time name="total">   87.58   87.62</time>
   <energy>
    <i name="e_fr_energy">  -2739.00262396 </i>
    <i name="e_wo_entrp">  -2735.36176649 </i>
    <i name="e_0_energy">  -2737.18219523 </i>
   </energy>
  </scstep>
  <scstep>
   <time name="diag">    8.28    8.28</time>
   <time name="diis">   37.53   37.53</time>
   <time name="orth">    2.30    2.30</time>
   <time name="total">   50.29   50.34</time>
   <energy>
    <i name="e_fr_energy">  -5909.38563798 </i>
    <i name="e_wo_entrp">  -5906.84443548 </i>
    <i name="e_0_energy">  -5908.11503673 </i>
   </energy>
  </scstep>
  <scstep>
   <time name="diag">    8.28    8.28</time>
   <time name="diis">   28.83   28.83</time>
   <time name="orth">    2.31    2.31</time>
   <time name="total">   41.52   41.56</time>
[...]
       <r>     5.8536     0.0000  2772.0000 </r>
       <r>     5.8963     0.0000  2772.0000 </r>
       <r>     5.9391     0.0000  2772.0000 </r>
       <r>     5.9818     0.0000  2772.0000 </r>
       <r>     6.0245     0.0000  2772.0000 </r>
       <r>     6.0673     0.0000  2772.0000 </r>
       <r>     6.1100     0.0000  2772.0000 </r>
       <r>     6.1527     0.0000  2772.0000 </r>
       <r>     6.1955     0.0000  2772.0000 </r>
       <r>     6.2382     0.0000  2772.0000 </r>
       <r>     6.2809     0.0000  2772.0000 </r>
       <r>     6.3237     0.0000  2772.0000 </r>
       <r>     6.3664     0.0000  2772.0000 </r>
       <r>     6.4091     0.0000  2772.0000 </r>
       <r>     6.4519     0.0000  2772.0000 </r>
       <r>     6.4946     0.0000  2772.0000 </r>
       <r>     6.5373     0.0000  2772.0000 </r>
       <r>     6.5801     0.0000  2772.0000 </r>
       <r>     6.6228     0.0000  2772.0000 </r>
       <r>     6.6655     0.0000  2772.0000 </r>
       <r>     6.7083     0.0000  2772.0000 </r>
       <r>     6.7510     0.0000  2772.0000 </r>
       <r>     6.7937     0.0000  2772.0000 </r>
      </set>
     </set>
    </array>
   </total>
  </dos>
 </calculation>
 <structure name="finalpos" >
  <crystal>
   <varray name="basis" >
    <v>       9.72667804       0.00000000       0.00000000 </v>
    <v>       0.00000000       8.42355028       0.00000000 </v>
    <v>       0.00000000       0.00000000      45.00000000 </v>
   </varray>
   <i name="volume">   3686.99226691 </i>
   <varray name="rec_basis" >
    <v>       0.10281002       0.00000000       0.00000000 </v>
    <v>       0.00000000       0.11871479       0.00000000 </v>
    <v>       0.00000000       0.00000000       0.02222222 </v>
   </varray>
  </crystal>
  <varray name="positions" >
   <v>       0.06107258       0.03307302       0.12469431 </v>
   <v>       0.31420851       0.87467201       0.65480663 </v>
   <v>       0.18685219       0.12332247       0.78848782 </v>
   <v>       0.44020173       0.28797431       0.38929903 </v>
   <v>       0.31567926       0.71057413       0.83349394 </v>
   <v>       0.81523273       0.21227892       0.83358531 </v>
   <v>       0.19048835       0.96103331       0.83358249 </v>
   <v>       0.56159747       0.20648865       0.56576818 </v>
   <v>       0.06389935       0.04065211       0.74409130 </v>
   <v>       0.81123843       0.87202127       0.52171021 </v>
   <v>       0.18924759       0.29086425       0.74411690 </v>
   <v>       0.93625115       0.45391763       0.34471834 </v>
   <v>       0.93965783       0.28781626       0.38916041 </v>
   <v>       0.81235245       0.04235395       0.87534705 </v>
   <v>       0.18540345       0.78878376       0.61053098 </v>
   <v>       0.06535145       0.04247776       0.87543094 </v>
   <v>       0.94054803       0.96151109       0.83364929 </v>
   <v>       0.31427955       0.54267385       0.87551449 </v>
   <v>       0.68890079       0.29067504       0.74407192 </v>
   <v>       0.18400898       0.61604656       0.16664978 </v>
   <v>       0.81210862       0.20531148       0.47834537 </v>
   <v>       0.81032311       0.53874968       0.61059112 </v>
   <v>       0.31272027       0.87110757       0.43419773 </v>
   <v>       0.81132736       0.03788898       0.25603997 </v>
   <v>       0.68642847       0.95357022       0.34468296 </v>
   <v>       0.93296719       0.11603479       0.16687694 </v>
   <v>       0.06233823       0.87221439       0.52161515 </v>
   <v>       0.56114546       0.53828475       0.25603882 </v>
   <v>       0.68617094       0.79364867       0.87550975 </v>
   <v>       0.55796983       0.36702302       0.16649284 </v>
   <v>       0.43919034       0.79096980       0.74416673 </v>
   <v>       0.81160309       0.70619241       0.56577339 </v>
   <v>       0.56100658       0.87300648       0.78856028 </v>
   <v>       0.68638551       0.12210387       0.52164772 </v>
   <v>       0.81425062       0.37423940       0.65489875 </v>
   <v>       0.94069238       0.46160912       0.83363413 </v>
   <v>       0.06142732       0.20766155       0.69956120 </v>
   <v>       0.43659978       0.95754247       0.69960614 </v>
   <v>       0.31566267       0.21075044       0.83365396 </v>
   <v>       0.43941236       0.62414361       0.65480144 </v>
   <v>       0.31053869       0.53884371       0.61047845 </v>
   <v>       0.93678647       0.45583218       0.56582529 </v>
   <v>       0.68880207       0.79103065       0.74411650 </v>
   <v>       0.93374554       0.78443485       0.12489460 </v>
   <v>       0.69017444       0.78802820       0.38918746 </v>
   <v>       0.93922965       0.79079193       0.74417836 </v>
   <v>       0.06149472       0.20410089       0.34473948 </v>
   <v>       0.68680887       0.45374377       0.34468048 </v>
   <v>       0.43609895       0.12342047       0.78878971 </v>
   <v>       0.06345735       0.20429539       0.21176118 </v>
   <v>       0.05705589       0.36652286       0.16665859 </v>
   <v>       0.93578822       0.78827062       0.25590477 </v>
   <v>       0.56167537       0.20745604       0.69957313 </v>
   <v>       0.68644083       0.95760990       0.69958969 </v>
   <v>       0.81078373       0.87378963       0.78846807 </v>
   <v>       0.43679032       0.95645348       0.56573689 </v>
   <v>       0.81091431       0.37393161       0.78843027 </v>
   <v>       0.68623480       0.28819535       0.25607240 </v>
   <v>       0.18683845       0.45610715       0.56576608 </v>
   <v>       0.05797128       0.86656994       0.16664075 </v>
   <v>       0.18572023       0.28903576       0.61061268 </v>
   <v>       0.06193717       0.20649466       0.56574634 </v>
   <v>       0.31183608       0.20759718       0.69964218 </v>
   <v>       0.56341965       0.54276893       0.87549982 </v>
   <v>       0.06170287       0.70602234       0.56575341 </v>
   <v>       0.68543797       0.62356031       0.78843273 </v>
   <v>       0.31443137       0.53786291       0.38922279 </v>
   <v>       0.18695458       0.62231119       0.52167669 </v>
   <v>       0.56271182       0.87114261       0.43420297 </v>
   <v>       0.43673743       0.45625762       0.56580653 </v>
   <v>       0.43928787       0.29101838       0.74416979 </v>
   <v>       0.81642120       0.87312794       0.30008359 </v>
   <v>       0.81150372       0.70339452       0.34477703 </v>
   <v>       0.44031627       0.46066324       0.83360208 </v>
   <v>       0.68757247       0.95495323       0.47835491 </v>
   <v>       0.68644374       0.45723405       0.69961106 </v>
   <v>       0.56179244       0.87231676       0.52167137 </v>
   <v>       0.56465098       0.37392438       0.65477637 </v>
   <v>       0.81427815       0.87426732       0.65490498 </v>
   <v>       0.81213496       0.37075761       0.43403655 </v>
   <v>       0.81103312       0.53790494       0.25607562 </v>
   <v>       0.68992368       0.46128523       0.83351078 </v>
   <v>       0.18527739       0.78438037       0.12444374 </v>
   <v>       0.68986946       0.28743151       0.38911554 </v>
   <v>       0.31413162       0.37405238       0.65481469 </v>
   <v>       0.31152802       0.20365145       0.34481467 </v>
   <v>       0.81420100       0.54061571       0.74402189 </v>
   <v>       0.69001326       0.96131130       0.83354813 </v>
   <v>       0.56444412       0.87441055       0.65490864 </v>
   <v>       0.31178063       0.70643759       0.56573882 </v>
   <v>       0.31122996       0.53436780       0.12451939 </v>
   <v>       0.68868951       0.95424421       0.21190246 </v>
   <v>       0.31175100       0.20648440       0.56576355 </v>
   <v>       0.18722467       0.95521403       0.47836649 </v>
   <v>       0.68706884       0.95637737       0.56578806 </v>
   <v>       0.43550359       0.78886433       0.61047076 </v>
   <v>       0.68255831       0.61492902       0.16668134 </v>
   <v>       0.31615861       0.87279228       0.30007343 </v>
   <v>       0.31210909       0.70515047       0.47826398 </v>
   <v>       0.93531734       0.28884452       0.61054556 </v>
   <v>       0.44156067       0.62305718       0.30030461 </v>
   <v>       0.80777917       0.86563595       0.16691113 </v>
   <v>       0.56454384       0.20350138       0.21197241 </v>
   <v>       0.93429825       0.61535758       0.16687801 </v>
   <v>       0.43730290       0.95481987       0.47832598 </v>
   <v>       0.56112617       0.37319673       0.78859236 </v>
   <v>       0.06162553       0.37268296       0.52158417 </v>
   <v>       0.30818432       0.36626715       0.16660945 </v>
   <v>       0.69169506       0.12279836       0.30027044 </v>
   <v>       0.44052290       0.96087919       0.83359214 </v>
   <v>       0.18490567       0.28453242       0.12484365 </v>
   <v>       0.18596748       0.28779103       0.25609437 </v>
   <v>       0.31242536       0.37072239       0.43420773 </v>
   <v>       0.56117551       0.03359995       0.12473268 </v>
   <v>       0.43539754       0.28909518       0.61050604 </v>
   <v>       0.18617666       0.45372656       0.34478130 </v>
   <v>       0.43407404       0.28453943       0.12476674 </v>
   <v>       0.68617492       0.78821454       0.25603885 </v>
   <v>       0.43683211       0.12268323       0.52161775 </v>
   <v>       0.18962651       0.29365529       0.87572938 </v>
   <v>       0.18920431       0.12438711       0.65490947 </v>
   <v>       0.93931206       0.12408540       0.65492461 </v>
   <v>       0.81504352       0.53772024       0.38916719 </v>
   <v>       0.06460674       0.03795791       0.38915991 </v>
   <v>       0.18344019       0.11527638       0.16679559 </v>
   <v>       0.06038437       0.53873930       0.61054482 </v>
   <v>       0.93606759       0.28811986       0.25605031 </v>
   <v>       0.56043292       0.53885929       0.61045169 </v>
   <v>       0.93679321       0.95600297       0.56578604 </v>
   <v>       0.69149027       0.62370311       0.30029000 </v>
   <v>       0.93751892       0.62060501       0.43412149 </v>
   <v>       0.93603331       0.62455712       0.78836357 </v>
   <v>       0.56127539       0.70716233       0.69966696 </v>
   <v>       0.06506861       0.71221011       0.83366207 </v>
   <v>       0.94146663       0.12310309       0.30018254 </v>
   <v>       0.93527070       0.78839272       0.61063759 </v>
   <v>       0.43638648       0.78842558       0.25612817 </v>
   <v>       0.31166799       0.37262194       0.78860320 </v>
   <v>       0.43915544       0.45447667       0.21190122 </v>
   <v>       0.18690790       0.12225092       0.52163742 </v>
   <v>       0.81140998       0.70754177       0.69958253 </v>
   <v>       0.06031673       0.03901428       0.61052664 </v>
   <v>       0.56433360       0.21111952       0.83347098 </v>
   <v>       0.31177992       0.87219952       0.52171722 </v>
   <v>       0.68568676       0.28439716       0.12457127 </v>
   <v>       0.18824532       0.95522065       0.21197989 </v>
   <v>       0.68517040       0.28920243       0.61064885 </v>
   <v>       0.31046222       0.03903528       0.61058733 </v>
   <v>       0.93610977       0.12458699       0.78841632 </v>
   <v>       0.43803758       0.79326917       0.87555301 </v>
   <v>       0.81406436       0.04086069       0.74402270 </v>
   <v>       0.93651601       0.45724426       0.69955140 </v>
   <v>       0.18919525       0.62426044       0.65483266 </v>
   <v>       0.31174503       0.70732014       0.69958069 </v>
   <v>       0.93408848       0.28417330       0.12468339 </v>
   <v>       0.43715101       0.45468976       0.47824190 </v>
   <v>       0.06243411       0.70449972       0.47828239 </v>
   <v>       0.93729585       0.12115461       0.43443858 </v>
   <v>       0.44169342       0.12252105       0.30024283 </v>
   <v>       0.18737212       0.12089724       0.43400221 </v>
   <v>       0.56341993       0.04347378       0.87548145 </v>
   <v>       0.18655295       0.95657981       0.56578504 </v>
   <v>       0.68485461       0.78447728       0.12494967 </v>
   <v>       0.56168658       0.70390236       0.34484801 </v>
   <v>       0.31500396       0.03779327       0.38922317 </v>
   <v>       0.68424231       0.11560518       0.16695762 </v>
   <v>       0.81430652       0.20384098       0.21189022 </v>
   <v>       0.06089614       0.53832228       0.25592375 </v>
   <v>       0.56235513       0.70515406       0.47832813 </v>
   <v>       0.43478282       0.78406273       0.12449333 </v>
   <v>       0.56619070       0.37341401       0.30013544 </v>
   <v>       0.43616532       0.95365751       0.34467340 </v>
   <v>       0.18651975       0.95770612       0.69964474 </v>
   <v>       0.43392008       0.61560846       0.16658711 </v>
   <v>       0.93898301       0.45501862       0.21204576 </v>
   <v>       0.06061139       0.53348848       0.12461464 </v>
   <v>       0.81180110       0.37266878       0.52160287 </v>
   <v>       0.94163228       0.62338516       0.30011673 </v>
   <v>       0.31124792       0.03811097       0.25592334 </v>
   <v>       0.68539322       0.78860013       0.61058392 </v>
   <v>       0.19071660       0.46097237       0.83362199 </v>
   <v>       0.43419198       0.11500675       0.16689403 </v>
   <v>       0.31155263       0.37238674       0.52166036 </v>
   <v>       0.43640270       0.62347528       0.78872588 </v>
   <v>       0.06053955       0.03818287       0.25601456 </v>
   <v>       0.56161058       0.70625286       0.56576098 </v>
   <v>       0.93920228       0.29043853       0.74406950 </v>
   <v>       0.68517846       0.12378415       0.78849563 </v>
   <v>       0.18776151       0.45465751       0.21174706 </v>
   <v>       0.93936048       0.78720996       0.38910965 </v>
   <v>       0.68621963       0.29405064       0.87560316 </v>
   <v>       0.55728909       0.86581063       0.16675012 </v>
   <v>       0.43666705       0.45725279       0.69963514 </v>
   <v>       0.93678059       0.95327793       0.34474383 </v>
   <v>       0.68651150       0.62220663       0.52160847 </v>
   <v>       0.06420005       0.87433595       0.65486484 </v>
   <v>       0.06180704       0.87369666       0.78849212 </v>
   <v>       0.06411838       0.37402802       0.65489225 </v>
   <v>       0.68721584       0.45472359       0.47814797 </v>
   <v>       0.18587521       0.78860123       0.25610176 </v>
   <v>       0.43723044       0.12105300       0.43425893 </v>
   <v>       0.81129163       0.03358207       0.12481001 </v>
   <v>       0.93658228       0.62214397       0.52160266 </v>
   <v>       0.43946132       0.12433128       0.65485551 </v>
   <v>       0.81133341       0.53381336       0.12439106 </v>
   <v>       0.43656376       0.45394760       0.34477073 </v>
   <v>       0.81136591       0.20351644       0.34476807 </v>
   <v>       0.31158243       0.70358947       0.34469682 </v>
   <v>       0.68933033       0.12423443       0.65493712 </v>
   <v>       0.56661536       0.87300185       0.30026625 </v>
   <v>       0.06395546       0.54056506       0.74402624 </v>
   <v>       0.93920456       0.95455873       0.21185201 </v>
   <v>       0.81450734       0.70400431       0.21190943 </v>
   <v>       0.06610609       0.87300584       0.30034293 </v>
   <v>       0.19127508       0.12327343       0.30017908 </v>
   <v>       0.06128448       0.70365312       0.34472768 </v>
   <v>       0.81055506       0.03895741       0.61057549 </v>
   <v>       0.06270534       0.37078328       0.43406806 </v>
   <v>       0.56177552       0.20349773       0.34478449 </v>
   <v>       0.81650391       0.37348307       0.30020981 </v>
   <v>       0.56168191       0.03839927       0.25606165 </v>
   <v>       0.56474969       0.53748661       0.38920731 </v>
   <v>       0.06257094       0.20504387       0.47829879 </v>
   <v>       0.31168107       0.87289933       0.78853233 </v>
   <v>       0.93643876       0.95782193       0.69953140 </v>
   <v>       0.06659440       0.37341405       0.30027151 </v>
   <v>       0.68940506       0.62415154       0.65484523 </v>
   <v>       0.68653966       0.45620642       0.56576096 </v>
   <v>       0.43900948       0.95513659       0.21204509 </v>
   <v>       0.31208962       0.20485468       0.47833429 </v>
   <v>       0.81247716       0.54214421       0.87539623 </v>
   <v>       0.68816735       0.62048325       0.43411507 </v>
   <v>       0.81157847       0.20760841       0.69955722 </v>
   <v>       0.81232457       0.70495369       0.47826220 </v>
   <v>       0.81164224       0.87101105       0.43409952 </v>
   <v>       0.93731126       0.95470043       0.47835268 </v>
   <v>       0.56237615       0.20479485       0.47833931 </v>
   <v>       0.18704517       0.62045039       0.43421430 </v>
   <v>       0.31416048       0.04086982       0.74424043 </v>
   <v>       0.93920970       0.62427840       0.65479674 </v>
   <v>       0.56467584       0.71076976       0.83343713 </v>
   <v>       0.31632947       0.37285569       0.30029520 </v>
   <v>       0.56430922       0.70417883       0.21180377 </v>
   <v>       0.18753367       0.45479109       0.47825775 </v>
   <v>       0.31418172       0.04366914       0.87546476 </v>
   <v>       0.18634940       0.45733331       0.69956346 </v>
   <v>       0.56197135       0.37246236       0.52166056 </v>
   <v>       0.18940101       0.28794317       0.38925913 </v>
   <v>       0.31403674       0.20452029       0.21175764 </v>
   <v>       0.06427749       0.70398612       0.21165264 </v>
   <v>       0.56249644       0.37059886       0.43416971 </v>
   <v>       0.43679437       0.62239296       0.52154793 </v>
   <v>       0.81515481       0.71202670       0.83353210 </v>
   <v>       0.06206879       0.37368747       0.78848805 </v>
   <v>       0.43784216       0.29339665       0.87574273 </v>
   <v>       0.31122180       0.03354954       0.12438828 </v>
   <v>       0.68773121       0.12122693       0.43414792 </v>
   <v>       0.18612866       0.95349583       0.34480807 </v>
   <v>       0.06531522       0.21244482       0.83362669 </v>
   <v>       0.56047057       0.03905301       0.61058632 </v>
   <v>       0.68842708       0.45484944       0.21204086 </v>
   <v>       0.18914419       0.79076740       0.74415791 </v>
   <v>       0.19134031       0.62290809       0.30022153 </v>
   <v>       0.44032301       0.78743150       0.38916262 </v>
   <v>       0.43617291       0.28821440       0.25597974 </v>
   <v>       0.06553571       0.54203961       0.87543727 </v>
   <v>       0.56440677       0.04085262       0.74415737 </v>
   <v>       0.18929204       0.79359485       0.87561573 </v>
   <v>       0.93731324       0.45441570       0.47822241 </v>
   <v>       0.56435845       0.54079441       0.74414093 </v>
   <v>       0.81146977       0.20653818       0.56579097 </v>
   <v>       0.18670507       0.62327403       0.78848255 </v>
   <v>       0.06541184       0.53834078       0.38930796 </v>
   <v>       0.06171747       0.70734805       0.69959413 </v>
   <v>       0.31045511       0.53783223       0.25600790 </v>
   <v>       0.31426126       0.70362893       0.21216624 </v>
   <v>       0.30717850       0.86599088       0.16617662 </v>
   <v>       0.43679605       0.62037253       0.43408235 </v>
   <v>       0.81676804       0.03804708       0.38924861 </v>
   <v>       0.93763308       0.29363742       0.87535860 </v>
   <v>       0.93792791       0.79311531       0.87529966 </v>
   <v>       0.56450561       0.03815224       0.38910817 </v>
   <v>       0.56204846       0.53319441       0.12472111 </v>
   <v>       0.80707567       0.36683974       0.16624680 </v>
   <v>       0.06219248       0.87108092       0.43410642 </v>
   <v>       0.93682931       0.12256042       0.52153506 </v>
   <v>       0.19074654       0.78683764       0.38905566 </v>
   <v>       0.31465924       0.54075590       0.74421956 </v>
  </varray>
 </structure>
</modeling>
