unknown system                          
           1
     9.726678    0.000000    0.000000
     0.000000    8.423550    0.000000
     0.000000    0.000000   45.000000
   Fe   Mn
 274  14
Direct configuration=     1
   0.06152460  0.03187222  0.12431755
   0.31658057  0.87495383  0.65488561
   0.18480078  0.12171256  0.78828025
   0.44133873  0.28785119  0.38913201
   0.31764629  0.71261473  0.83278416
   0.81782031  0.21393642  0.83334984
   0.19124983  0.96260182  0.83329401
   0.56230980  0.20709720  0.56551739
   0.06548851  0.03973072  0.74397069
   0.81163386  0.87134032  0.52138071
   0.19103168  0.29048526  0.74393837
   0.93359380  0.45249731  0.34490739
   0.94104569  0.28658089  0.38902871
   0.81293408  0.03991664  0.87542698
   0.18361905  0.78813055  0.61087646
   0.56635705  0.03780260  0.38907669
   0.94174132  0.96321834  0.83356896
   0.31429836  0.53879568  0.87577293
   0.69057733  0.29051029  0.74392641
   0.18192382  0.61369747  0.16663568
   0.81220589  0.20573689  0.47868873
   0.80874466  0.53791547  0.61091850
   0.31199397  0.87039036  0.43452759
   0.80922078  0.03828035  0.25614821
   0.68388057  0.95162503  0.34489735
   0.93187833  0.11420467  0.16717241
   0.06162320  0.87133237  0.52139723
   0.55880563  0.53842563  0.25603496
   0.68461119  0.79545011  0.87545348
   0.55609698  0.36541294  0.16684923
   0.43982942  0.79072159  0.74406654
   0.81149805  0.70658688  0.56545152
   0.55993970  0.87224408  0.78828942
   0.68665246  0.12152200  0.52138267
   0.81653196  0.37485007  0.65491827
   0.94158059  0.46280076  0.83351190
   0.06037364  0.20796253  0.69955716
   0.43501853  0.95790308  0.69954408
   0.31684069  0.21196798  0.83329210
   0.44154170  0.62494559  0.65488684
   0.30872336  0.53794423  0.61089879
   0.93655016  0.45653383  0.56558065
   0.69008045  0.79108355  0.74404785
   0.93367338  0.78789219  0.12468356
   0.69171430  0.78778050  0.38909454
   0.94055271  0.79009955  0.74413508
   0.05900962  0.20298285  0.34504952
   0.68358566  0.45228413  0.34502344
   0.43500097  0.12131719  0.78861185
   0.06513943  0.20535729  0.21151950
   0.05566714  0.36545738  0.16679920
   0.93341770  0.78851998  0.25584818
   0.56044925  0.20775863  0.69959085
   0.68481213  0.95793706  0.69960573
   0.80993420  0.87233338  0.78822723
   0.43691590  0.95703356  0.56536169
   0.81019447  0.37324475  0.78819623
   0.68394741  0.28939872  0.25605625
   0.18724391  0.45710749  0.56545636
   0.05560986  0.86549303  0.16679439
   0.18371568  0.28793983  0.61093202
   0.06226876  0.20714263  0.56538196
   0.31036303  0.20804552  0.69965994
   0.56346667  0.53921275  0.87568028
   0.06188162  0.70630626  0.56550988
   0.68481921  0.62158642  0.78820803
   0.31599040  0.53769516  0.38911683
   0.18690829  0.62120089  0.52148516
   0.56240511  0.87054148  0.43448565
   0.43690346  0.45709738  0.56549705
   0.43986102  0.29093559  0.74404228
   0.81912413  0.87509101  0.30037992
   0.80893720  0.70279486  0.34510928
   0.44160877  0.46233334  0.83314374
   0.68743588  0.95567546  0.47870280
   0.68493659  0.45812039  0.69961792
   0.56186376  0.87188175  0.52143016
   0.56658934  0.37485386  0.65489450
   0.81643968  0.87494563  0.65493230
   0.81169296  0.37120959  0.43424079
   0.80882333  0.53860261  0.25627079
   0.69176259  0.46157729  0.83306850
   0.18568327  0.78861031  0.12429106
   0.69128647  0.28745140  0.38907172
   0.31644301  0.37482947  0.65487942
   0.30902924  0.20273448  0.34491745
   0.81569561  0.53986078  0.74395167
   0.69147820  0.96191532  0.83313402
   0.56630576  0.87476285  0.65493984
   0.31145020  0.70705314  0.56549554
   0.31210290  0.53119462  0.12426732
   0.68961512  0.95582463  0.21193619
   0.31141245  0.20664312  0.56550407
   0.18735606  0.95570070  0.47872514
   0.68745357  0.95715746  0.56548209
   0.43371488  0.78797977  0.61086493
   0.68197167  0.61325568  0.16668159
   0.31897536  0.87464852  0.30011637
   0.31219151  0.70573711  0.47867124
   0.93370558  0.28786175  0.61088120
   0.44519508  0.62487883  0.30041841
   0.80674993  0.86436097  0.16721409
   0.56615697  0.20336614  0.21175909
   0.93257471  0.61425183  0.16698730
   0.43724459  0.95565234  0.47863062
   0.56023282  0.37188749  0.78835988
   0.06138089  0.37197421  0.52136647
   0.30679692  0.36490204  0.16681251
   0.69498316  0.12373279  0.30029614
   0.44276444  0.96195036  0.83309317
   0.18424553  0.28774889  0.12441460
   0.18403337  0.28933860  0.25610975
   0.31252699  0.37053732  0.43448331
   0.56240110  0.03326408  0.12452665
   0.43374320  0.28794758  0.61087544
   0.18389389  0.45287268  0.34511483
   0.43517378  0.28735107  0.12443714
   0.68393786  0.78871365  0.25606237
   0.43663410  0.12143305  0.52138028
   0.18842377  0.29439676  0.87574889
   0.19143620  0.12501737  0.65488917
   0.94155124  0.12498545  0.65490583
   0.81638953  0.53773968  0.38905919
   0.06634656  0.03787999  0.38913158
   0.18244054  0.11231862  0.16672678
   0.05863254  0.53778368  0.61092957
   0.93421622  0.28896006  0.25605075
   0.55857559  0.53798989  0.61088080
   0.93689220  0.95725652  0.56548395
   0.69398453  0.62467994  0.30035092
   0.93732039  0.62023564  0.43446846
   0.93394240  0.62310803  0.78797265
   0.56032721  0.70760111  0.69958324
   0.06597293  0.71516500  0.83363740
   0.94475338  0.12373731  0.30029105
   0.93374344  0.78765322  0.61092698
   0.43344559  0.78917520  0.25593816
   0.31053461  0.37212035  0.78821731
   0.43969776  0.45595205  0.21188372
   0.18665262  0.12149002  0.52139400
   0.81029041  0.70795250  0.69954849
   0.05864965  0.03804250  0.61086207
   0.56611227  0.21295572  0.83300336
   0.31169278  0.87161020  0.52141380
   0.68624915  0.28717987  0.12444228
   0.18982756  0.95629400  0.21205040
   0.68360663  0.28805505  0.61093263
   0.30863871  0.03807172  0.61098026
   0.93505171  0.12265078  0.78831192
   0.43689654  0.79535334  0.87570078
   0.81545691  0.04034372  0.74387857
   0.93498986  0.45803129  0.69961597
   0.19127136  0.62502508  0.65492011
   0.31024372  0.70776590  0.69955458
   0.93520977  0.28704812  0.12432583
   0.43726030  0.45585957  0.47861963
   0.06223918  0.70569751  0.47858130
   0.93707035  0.11993763  0.43456482
   0.44415380  0.12490883  0.30051527
   0.18737683  0.11931376  0.43439759
   0.56342696  0.03910707  0.87579406
   0.18692851  0.95714904  0.56546557
   0.68469414  0.78798272  0.12470217
   0.55827670  0.70213745  0.34502845
   0.31640014  0.03716284  0.38905025
   0.68182949  0.11405596  0.16722242
   0.81527459  0.20537612  0.21153272
   0.05972019  0.53823746  0.25589984
   0.56220228  0.70582098  0.47862962
   0.43508354  0.78798769  0.12453156
   0.56933425  0.37383493  0.30037608
   0.43375475  0.95279059  0.34511078
   0.18509662  0.95804440  0.69969373
   0.43170898  0.61364054  0.16657661
   0.93966797  0.45553466  0.21186820
   0.06172075  0.53116093  0.12426594
   0.81175013  0.37183086  0.52136224
   0.94457266  0.62394389  0.30005984
   0.30892265  0.03774828  0.25575677
   0.68371110  0.78785745  0.61088655
   0.19170813  0.46263887  0.83316948
   0.43196157  0.11265569  0.16667434
   0.31149246  0.37151143  0.52140295
   0.43404013  0.62164960  0.78851359
   0.05893547  0.03862947  0.25603655
   0.56207553  0.70708652  0.56552217
   0.94003221  0.28974005  0.74402347
   0.68335272  0.12201101  0.78833876
   0.18990051  0.45516582  0.21166130
   0.94109372  0.78765527  0.38908197
   0.68608966  0.29759936  0.87573345
   0.55590997  0.86456063  0.16671572
   0.43525089  0.45800933  0.69958840
   0.93407198  0.95156289  0.34492104
   0.68647690  0.62135500  0.52129370
   0.06647896  0.87483190  0.65489363
   0.05996085  0.87281851  0.78821162
   0.06629565  0.37485226  0.65489908
   0.68691868  0.45555894  0.47868334
   0.18434013  0.78940003  0.25597832
   0.43709188  0.12002494  0.43451119
   0.81329734  0.03174241  0.12435460
   0.93647782  0.62152252  0.52141945
   0.44156203  0.12483211  0.65483091
   0.81277078  0.53080227  0.12436550
   0.80561736  0.36588437  0.16705421
   0.80937006  0.20237128  0.34508922
   0.30926816  0.70203358  0.34494323
   0.69114167  0.12491361  0.65490943
   0.56919237  0.87473717  0.30052977
   0.06547435  0.53980677  0.74399196
   0.94085704  0.95576053  0.21162870
   0.81659410  0.70560807  0.21182794
   0.06902091  0.87456947  0.30044022
   0.19430893  0.12435706  0.30044670
   0.05872951  0.70254905  0.34504685
   0.80878523  0.03786703  0.61089728
   0.06288833  0.37105448  0.43444460
   0.55887925  0.20287363  0.34494981
   0.81937565  0.37461355  0.30038403
   0.55966962  0.03909210  0.25591781
   0.56646602  0.53759448  0.38908859
   0.06239990  0.20576684  0.47866356
   0.31130794  0.87146035  0.78805505
   0.93507896  0.95832881  0.69956490
   0.06895715  0.37501331  0.30041573
   0.69123714  0.62504863  0.65494331
   0.68682774  0.45682188  0.56540103
   0.44041576  0.95682284  0.21227671
   0.31231684  0.20551657  0.47874790
   0.81336822  0.53871304  0.87558507
   0.68795733  0.62006867  0.43449187
   0.81049408  0.20789414  0.69964804
   0.81239436  0.70574977  0.47863660
   0.81121656  0.87091020  0.43426702
   0.93713517  0.95520761  0.47872316
   0.56225698  0.20560526  0.47866674
   0.18685827  0.62016400  0.43447155
   0.31530544  0.04069100  0.74388256
   0.94158860  0.62516600  0.65487082
   0.56632685  0.71276424  0.83308330
   0.31995716  0.37360293  0.30034780
   0.56539573  0.70504767  0.21177836
   0.18730610  0.45568259  0.47869540
   0.31459077  0.04018107  0.87551678
   0.18487584  0.45805483  0.69959047
   0.56155266  0.37145441  0.52138759
   0.19123241  0.28764585  0.38901137
   0.31554622  0.20541472  0.21159411
   0.06707085  0.70588054  0.21162279
   0.56201533  0.37096985  0.43442616
   0.43652644  0.62178043  0.52132726
   0.81680869  0.71428489  0.83303850
   0.06071995  0.37316521  0.78812162
   0.43664074  0.29639808  0.87601608
   0.31129156  0.03161085  0.12447381
   0.68757547  0.11965410  0.43439911
   0.18374060  0.95267453  0.34510918
   0.06645996  0.21359947  0.83365804
   0.55889583  0.03824309  0.61097739
   0.69028962  0.45572191  0.21181286
   0.19044573  0.79035275  0.74398272
   0.19408460  0.62452277  0.30042058
   0.44134406  0.78756021  0.38909402
   0.43382005  0.28943639  0.25606356
   0.06460914  0.53861434  0.87555174
   0.56600202  0.04042332  0.74390853
   0.18752903  0.79523450  0.87567269
   0.93735476  0.45550315  0.47864101
   0.56553881  0.54058629  0.74387709
   0.81133987  0.20676957  0.56543647
   0.18534152  0.62076356  0.78808568
   0.06664287  0.53830899  0.38916157
   0.06045252  0.70781449  0.69957150
   0.30854496  0.53869566  0.25562087
   0.31521863  0.70360812  0.21236140
   0.30524154  0.86503734  0.16614025
   0.43677761  0.62055662  0.43438399
   0.81790197  0.03888353  0.38927637
   0.93515680  0.29610788  0.87528102
   0.93760714  0.79369988  0.87520444
   0.06555687  0.03759197  0.87534136
   0.56351476  0.52976178  0.12485069
   0.43306043  0.45290411  0.34517708
   0.06231450  0.87094415  0.43444525
   0.93646791  0.12142363  0.52145335
   0.19279126  0.78733027  0.38907001
   0.31559464  0.54027223  0.74412632
Direct configuration=     2
   0.06138958  0.03224010  0.12437113
   0.31611708  0.87482899  0.65493210
   0.18512216  0.12195394  0.78814619
   0.44121997  0.28792596  0.38921170
   0.31721383  0.71250642  0.83288446
   0.81748617  0.21343806  0.83336751
   0.19089865  0.96248042  0.83337044
   0.56221481  0.20689844  0.56555316
   0.06515595  0.03995647  0.74386891
   0.81153001  0.87148366  0.52145305
   0.19061391  0.29036030  0.74383132
   0.93406739  0.45270028  0.34494303
   0.94077111  0.28681114  0.38908958
   0.81293970  0.04069755  0.87538125
   0.18395022  0.78826700  0.61085681
   0.56602087  0.03789946  0.38914116
   0.94159337  0.96324550  0.83360496
   0.31421324  0.53942252  0.87572399
   0.69021495  0.29039769  0.74386264
   0.18230962  0.61409733  0.16662789
   0.81215894  0.20564440  0.47863021
   0.80907117  0.53809918  0.61089540
   0.31210801  0.87052013  0.43451767
   0.80964245  0.03826249  0.25612248
   0.68437918  0.95202493  0.34491375
   0.93209393  0.11455903  0.16709796
   0.06177875  0.87150008  0.52144027
   0.55928557  0.53839296  0.25602386
   0.68500006  0.79528783  0.87546162
   0.55648408  0.36558672  0.16680718
   0.43979164  0.79094257  0.74395790
   0.81155956  0.70654290  0.56549663
   0.56038054  0.87267770  0.78815130
   0.68661087  0.12160213  0.52143122
   0.81613722  0.37476831  0.65499282
   0.94134891  0.46231911  0.83356096
   0.06054989  0.20794819  0.69958268
   0.43531654  0.95781107  0.69957789
   0.31661538  0.21147312  0.83338771
   0.44106621  0.62482669  0.65494709
   0.30900955  0.53816333  0.61088906
   0.93659052  0.45640843  0.56561197
   0.68977647  0.79107969  0.74395083
   0.93359145  0.78730843  0.12471280
   0.69146933  0.78768243  0.38915481
   0.94029934  0.79020304  0.74399610
   0.05946361  0.20315224  0.34505042
   0.68429563  0.45242620  0.34503748
   0.43550830  0.12157690  0.78845376
   0.06489169  0.20513680  0.21159059
   0.05589820  0.36557699  0.16675952
   0.93387395  0.78860050  0.25585858
   0.56068649  0.20772874  0.69962493
   0.68516750  0.95781908  0.69964312
   0.80993535  0.87283390  0.78811368
   0.43690266  0.95687067  0.56542800
   0.81031869  0.37304524  0.78810237
   0.68432820  0.28910985  0.25603864
   0.18709041  0.45690583  0.56550246
   0.05596357  0.86573930  0.16674939
   0.18404985  0.28812861  0.61092555
   0.06216752  0.20698306  0.56543694
   0.31059203  0.20799151  0.69967605
   0.56365630  0.53991119  0.87564011
   0.06181503  0.70626794  0.56554595
   0.68505602  0.62191618  0.78806313
   0.31574862  0.53754543  0.38919530
   0.18686875  0.62147994  0.52151755
   0.56244499  0.87065796  0.43445135
   0.43686614  0.45691951  0.56553911
   0.43982886  0.29078573  0.74393382
   0.81861366  0.87480194  0.30035339
   0.80940425  0.70294089  0.34511790
   0.44154471  0.46179515  0.83325662
   0.68745181  0.95552366  0.47865289
   0.68526684  0.45799004  0.69964230
   0.56187531  0.87197200  0.52146761
   0.56618501  0.37471223  0.65494916
   0.81605573  0.87475958  0.65500163
   0.81170364  0.37111334  0.43421462
   0.80924897  0.53851885  0.25623516
   0.69175231  0.46120092  0.83314198
   0.18552891  0.78785003  0.12432091
   0.69092118  0.28758024  0.38912696
   0.31596878  0.37472244  0.65493804
   0.30948093  0.20292403  0.34495259
   0.81534418  0.53995991  0.74383273
   0.69134069  0.96212169  0.83319244
   0.56589482  0.87461739  0.65499213
   0.31147236  0.70697019  0.56553826
   0.31188700  0.53188852  0.12432427
   0.68943725  0.95563374  0.21195682
   0.31144630  0.20656548  0.56554153
   0.18732776  0.95555332  0.47868112
   0.68742240  0.95697818  0.56553190
   0.43401742  0.78817894  0.61084656
   0.68203519  0.61366150  0.16669017
   0.31844834  0.87437210  0.30014421
   0.31212508  0.70560040  0.47860324
   0.93404967  0.28803693  0.61085903
   0.44452322  0.62459174  0.30041579
   0.80685364  0.86467731  0.16713856
   0.56578985  0.20342947  0.21180807
   0.93280836  0.61452961  0.16696111
   0.43723521  0.95546529  0.47858097
   0.56066287  0.37179775  0.78821830
   0.06142583  0.37210965  0.52142007
   0.30706904  0.36514338  0.16676034
   0.69436684  0.12367852  0.30031170
   0.44256768  0.96185915  0.83318540
   0.18429222  0.28698860  0.12449501
   0.18435896  0.28892188  0.25609128
   0.31257350  0.37060670  0.43445012
   0.56222513  0.03341507  0.12455950
   0.43402943  0.28810681  0.61085725
   0.18426008  0.45305019  0.34511523
   0.43509492  0.28663459  0.12451787
   0.68435596  0.78871641  0.25606611
   0.43666976  0.12165073  0.52141930
   0.18843624  0.29385778  0.87575769
   0.19103869  0.12491446  0.65496078
   0.94115560  0.12484111  0.65497174
   0.81610498  0.53764916  0.38912381
   0.06607894  0.03798774  0.38918291
   0.18259110  0.11296952  0.16674780
   0.05895000  0.53797198  0.61090267
   0.93460928  0.28871832  0.25603719
   0.55892709  0.53821015  0.61085696
   0.93687237  0.95697918  0.56552997
   0.69347043  0.62444875  0.30037625
   0.93734253  0.62034799  0.43441981
   0.93417424  0.62325822  0.78788374
   0.56055909  0.70748342  0.69960943
   0.06566671  0.71472226  0.83366264
   0.94407991  0.12367856  0.30029102
   0.93405341  0.78781680  0.61090797
   0.43398968  0.78922217  0.25594536
   0.31078825  0.37186389  0.78808303
   0.43965394  0.45565094  0.21188008
   0.18669918  0.12160633  0.52143924
   0.81050843  0.70781188  0.69957610
   0.05895820  0.03819980  0.61083304
   0.56608017  0.21233103  0.83304629
   0.31168027  0.87172746  0.52146771
   0.68618693  0.28650759  0.12452279
   0.18957027  0.95622382  0.21205072
   0.68392559  0.28825136  0.61092131
   0.30895738  0.03816050  0.61095600
   0.93501976  0.12298634  0.78821818
   0.43714940  0.79507591  0.87566661
   0.81512286  0.04053371  0.74381272
   0.93524123  0.45793385  0.69962459
   0.19089800  0.62487632  0.65497946
   0.31046605  0.70776604  0.69955607
   0.93501826  0.28637237  0.12441590
   0.43724425  0.45557038  0.47855282
   0.06230678  0.70543912  0.47854536
   0.93712685  0.12014972  0.43456138
   0.44368316  0.12459546  0.30048990
   0.18738084  0.11962124  0.43435508
   0.56359836  0.03986696  0.87573140
   0.18680805  0.95698209  0.56551799
   0.68482907  0.78743813  0.12474435
   0.55890140  0.70241950  0.34505415
   0.31615688  0.03730555  0.38912782
   0.68214157  0.11438298  0.16717349
   0.81503997  0.20518022  0.21160547
   0.05989875  0.53822631  0.25589646
   0.56224485  0.70564892  0.47858057
   0.43507915  0.78731051  0.12452463
   0.56876341  0.37368286  0.30035107
   0.43423815  0.95297243  0.34509409
   0.18531382  0.95796631  0.69970309
   0.43203159  0.61397970  0.16660039
   0.93944499  0.45538382  0.21190522
   0.06152895  0.53171002  0.12432533
   0.81176676  0.37197742  0.52141342
   0.94400298  0.62388621  0.30009416
   0.30933600  0.03794074  0.25577939
   0.68404016  0.78804662  0.61086088
   0.19128857  0.46234869  0.83329107
   0.43236852  0.11319297  0.16672573
   0.31147824  0.37167254  0.52144256
   0.43475510  0.62208396  0.78834949
   0.05926484  0.03861231  0.25602305
   0.56204185  0.70695993  0.56555817
   0.93986870  0.28974878  0.74391058
   0.68385413  0.12228911  0.78822901
   0.18951822  0.45505411  0.21167940
   0.94075888  0.78756000  0.38914249
   0.68637352  0.29661568  0.87567719
   0.55626996  0.86480884  0.16671325
   0.43558025  0.45784446  0.69959261
   0.93462867  0.95191125  0.34495034
   0.68650253  0.62156631  0.52135560
   0.06609655  0.87465907  0.65495884
   0.06023683  0.87311509  0.78811200
   0.06591718  0.37473202  0.65496273
   0.68694502  0.45537289  0.47858903
   0.18458318  0.78936692  0.25599026
   0.43715235  0.12023662  0.43449103
   0.81290643  0.03208926  0.12442569
   0.93651506  0.62167055  0.52146287
   0.44110856  0.12472956  0.65490171
   0.81258515  0.53142261  0.12440464
   0.80593469  0.36603158  0.16697412
   0.80974015  0.20257653  0.34508124
   0.30973572  0.70237674  0.34494316
   0.69079493  0.12478392  0.65497971
   0.56870444  0.87449592  0.30050757
   0.06501905  0.53982893  0.74384432
   0.94052547  0.95569221  0.21170261
   0.81614832  0.70544890  0.21186168
   0.06842045  0.87434071  0.30043863
   0.19371521  0.12423024  0.30040498
   0.05922314  0.70278789  0.34505065
   0.80914311  0.03803441  0.61086325
   0.06285752  0.37100473  0.43438978
   0.55952801  0.20298829  0.34499077
   0.81882374  0.37434656  0.30037753
   0.56000411  0.03909702  0.25594451
   0.56617397  0.53749616  0.38916388
   0.06244255  0.20555688  0.47861374
   0.31153052  0.87186301  0.78793034
   0.93530339  0.95820769  0.69957958
   0.06852332  0.37469083  0.30040537
   0.69087988  0.62490909  0.65501259
   0.68685500  0.45671395  0.56544967
   0.44014916  0.95659171  0.21224798
   0.31228304  0.20541554  0.47867198
   0.81356568  0.53931985  0.87555189
   0.68798441  0.62014620  0.43445121
   0.81070280  0.20785446  0.69966209
   0.81236351  0.70556769  0.47857920
   0.81131902  0.87091764  0.43426871
   0.93718463  0.95508124  0.47866786
   0.56226731  0.20548653  0.47860693
   0.18687936  0.62021843  0.43446353
   0.31508701  0.04080765  0.74381391
   0.94118254  0.62500863  0.65494596
   0.56619198  0.71261095  0.83313292
   0.31923617  0.37345051  0.30036463
   0.56517083  0.70493881  0.21178397
   0.18739069  0.45551220  0.47862412
   0.31476261  0.04101409  0.87549057
   0.18503164  0.45791060  0.69958105
   0.56165948  0.37164940  0.52142821
   0.19091642  0.28773025  0.38909589
   0.31527438  0.20522312  0.21163985
   0.06656860  0.70560825  0.21165392
   0.56208382  0.37094766  0.43439861
   0.43659290  0.62195155  0.52135812
   0.81658035  0.71387214  0.83307644
   0.06077184  0.37315224  0.78801326
   0.43687171  0.29553285  0.87597819
   0.31123119  0.03206085  0.12444560
   0.68757737  0.12005367  0.43437209
   0.18413437  0.95285484  0.34510340
   0.06590055  0.21307003  0.83366197
   0.55918440  0.03832729  0.61093787
   0.68999826  0.45551567  0.21184290
   0.19015310  0.79056118  0.74386193
   0.19357341  0.62426756  0.30042486
   0.44116670  0.78744268  0.38914536
   0.43426318  0.28913834  0.25604509
   0.06447688  0.53919349  0.87555844
   0.56579973  0.04057653  0.74387270
   0.18753679  0.79491721  0.87565933
   0.93729064  0.45530908  0.47858437
   0.56548669  0.54064966  0.74377955
   0.81140427  0.20670669  0.56548290
   0.18544399  0.62138361  0.78798442
   0.06638029  0.53822990  0.38922943
   0.06064218  0.70772594  0.69958078
   0.30890113  0.53855714  0.25567468
   0.31505023  0.70381012  0.21231095
   0.30561015  0.86519304  0.16616857
   0.43678145  0.62045067  0.43435786
   0.81756328  0.03880093  0.38930819
   0.93534870  0.29555295  0.87530428
   0.93763348  0.79339087  0.87528093
   0.06534777  0.03847155  0.87534575
   0.56334312  0.53050300  0.12483240
   0.43360497  0.45302757  0.34518323
   0.06224205  0.87103285  0.43441901
   0.93655250  0.12162634  0.52146816
   0.19235581  0.78719136  0.38910792
   0.31540377  0.54030554  0.74397018
Direct configuration=     3
   0.06116354  0.03285599  0.12446085
   0.31534112  0.87461998  0.65500994
   0.18566022  0.12235805  0.78792175
   0.44102114  0.28805116  0.38934510
   0.31648982  0.71232509  0.83305238
   0.81692675  0.21260372  0.83339709
   0.19031070  0.96227717  0.83349838
   0.56205578  0.20656566  0.56561304
   0.06459917  0.04033443  0.74369851
   0.81135613  0.87172364  0.52157415
   0.18991449  0.29015110  0.74365210
   0.93486027  0.45304008  0.34500271
   0.94031141  0.28719661  0.38919149
   0.81294910  0.04200494  0.87530468
   0.18450466  0.78849545  0.61082391
   0.56545804  0.03806162  0.38924909
   0.94134567  0.96329098  0.83366521
   0.31407073  0.54047195  0.87564207
   0.68960825  0.29020919  0.74375587
   0.18295554  0.61476678  0.16661485
   0.81208034  0.20548956  0.47853223
   0.80961780  0.53840675  0.61085672
   0.31229895  0.87073741  0.43450107
   0.81034840  0.03823260  0.25607940
   0.68521396  0.95269443  0.34494122
   0.93245487  0.11515229  0.16697332
   0.06203917  0.87178086  0.52151232
   0.56008907  0.53833826  0.25600527
   0.68565111  0.79501614  0.87547526
   0.55713215  0.36587768  0.16673678
   0.43972840  0.79131253  0.74377602
   0.81166255  0.70646927  0.56557217
   0.56111860  0.87340367  0.78792006
   0.68654124  0.12173628  0.52151250
   0.81547636  0.37463144  0.65511763
   0.94096103  0.46151273  0.83364311
   0.06084497  0.20792418  0.69962541
   0.43581546  0.95765703  0.69963447
   0.31623815  0.21064463  0.83354778
   0.44027016  0.62462763  0.65504796
   0.30948867  0.53853015  0.61087277
   0.93665809  0.45619849  0.56566439
   0.68926755  0.79107323  0.74378841
   0.93345429  0.78633112  0.12476174
   0.69105921  0.78751824  0.38925572
   0.93987515  0.79037632  0.74376341
   0.06022367  0.20343582  0.34505192
   0.68548424  0.45266406  0.34506099
   0.43635767  0.12201171  0.78818908
   0.06447693  0.20476766  0.21170960
   0.05628505  0.36577723  0.16669308
   0.93463780  0.78873532  0.25587598
   0.56108367  0.20767870  0.69968200
   0.68576246  0.95762156  0.69970570
   0.80993727  0.87367185  0.78792359
   0.43688049  0.95659797  0.56553902
   0.81052667  0.37271124  0.78794523
   0.68496571  0.28862624  0.25600917
   0.18683342  0.45656822  0.56557963
   0.05655573  0.86615159  0.16667406
   0.18460930  0.28844465  0.61091471
   0.06199802  0.20671591  0.56552900
   0.31097541  0.20790108  0.69970303
   0.56397379  0.54108052  0.87557285
   0.06170356  0.70620377  0.56560634
   0.68545249  0.62246827  0.78782054
   0.31534383  0.53729474  0.38932668
   0.18680256  0.62194713  0.52157179
   0.56251176  0.87085298  0.43439393
   0.43680365  0.45662173  0.56560954
   0.43977501  0.29053483  0.74375225
   0.81775905  0.87431797  0.30030897
   0.81018619  0.70318537  0.34513234
   0.44143747  0.46089413  0.83344561
   0.68747849  0.95526953  0.47856933
   0.68581975  0.45777182  0.69968313
   0.56189465  0.87212308  0.52153032
   0.56550809  0.37447513  0.65504067
   0.81541293  0.87444811  0.65511771
   0.81172152  0.37095221  0.43417081
   0.80996158  0.53837862  0.25617551
   0.69173509  0.46057081  0.83326499
   0.18527049  0.78657718  0.12437089
   0.69030963  0.28779595  0.38921942
   0.31517483  0.37454326  0.65503619
   0.31023715  0.20324138  0.34501141
   0.81475582  0.54012588  0.74363360
   0.69111048  0.96246718  0.83329025
   0.56520684  0.87437388  0.65507968
   0.31150947  0.70683131  0.56560978
   0.31152555  0.53305022  0.12441961
   0.68913946  0.95531414  0.21199136
   0.31150295  0.20643548  0.56560425
   0.18728037  0.95530659  0.47860742
   0.68737020  0.95667801  0.56561530
   0.43452392  0.78851239  0.61081581
   0.68214154  0.61434093  0.16670454
   0.31756602  0.87390932  0.30019084
   0.31201386  0.70537151  0.47848938
   0.93462573  0.28833020  0.61082192
   0.44339840  0.62411110  0.30041140
   0.80702727  0.86520693  0.16701210
   0.56517523  0.20353549  0.21189007
   0.93319954  0.61499467  0.16691725
   0.43721949  0.95515215  0.47849783
   0.56138287  0.37164751  0.78798126
   0.06150107  0.37233639  0.52150980
   0.30752463  0.36554742  0.16667299
   0.69333502  0.12358765  0.30033775
   0.44223827  0.96170646  0.83333981
   0.18437038  0.28571574  0.12462964
   0.18490406  0.28822421  0.25606037
   0.31265138  0.37072287  0.43439454
   0.56193051  0.03366786  0.12461450
   0.43450864  0.28837338  0.61082680
   0.18487316  0.45334737  0.34511590
   0.43496289  0.28543508  0.12465304
   0.68505594  0.78872103  0.25607238
   0.43672945  0.12201516  0.52148463
   0.18845711  0.29295543  0.87577243
   0.19037319  0.12474217  0.65508067
   0.94049323  0.12459945  0.65508210
   0.81562859  0.53749761  0.38923198
   0.06563089  0.03816815  0.38926884
   0.18284316  0.11405926  0.16678301
   0.05948149  0.53828725  0.61085764
   0.93526733  0.28831362  0.25601448
   0.55951557  0.53857891  0.61081706
   0.93683917  0.95651485  0.56560700
   0.69260972  0.62406170  0.30041866
   0.93737961  0.62053608  0.43433835
   0.93456237  0.62350968  0.78773491
   0.56094729  0.70728637  0.69965329
   0.06515404  0.71398103  0.83370489
   0.94295239  0.12358022  0.30029097
   0.93457237  0.78809067  0.61087615
   0.43490058  0.78930082  0.25595742
   0.31121288  0.37143453  0.78785822
   0.43958059  0.45514681  0.21187398
   0.18677713  0.12180107  0.52151499
   0.81087343  0.70757647  0.69962233
   0.05947478  0.03846316  0.61078445
   0.56602643  0.21128518  0.83311817
   0.31165934  0.87192377  0.52155796
   0.68608276  0.28538207  0.12465759
   0.18913952  0.95610633  0.21205125
   0.68445959  0.28858003  0.61090236
   0.30949090  0.03830913  0.61091539
   0.93496627  0.12354812  0.78806123
   0.43757272  0.79461145  0.87560940
   0.81456359  0.04085179  0.74370248
   0.93566207  0.45777072  0.69963904
   0.19027292  0.62462728  0.65507882
   0.31083828  0.70776629  0.69955857
   0.93469763  0.28524105  0.12456668
   0.43721739  0.45508623  0.47844097
   0.06241995  0.70500652  0.47848519
   0.93722144  0.12050479  0.43455562
   0.44289523  0.12407083  0.30044741
   0.18738754  0.12013602  0.43428390
   0.56388532  0.04113915  0.87562650
   0.18660638  0.95670257  0.56560576
   0.68505496  0.78652639  0.12481495
   0.55994726  0.70289171  0.34509717
   0.31574963  0.03754446  0.38925768
   0.68266404  0.11493047  0.16709157
   0.81464718  0.20485223  0.21172727
   0.06019771  0.53820764  0.25589080
   0.56231612  0.70536086  0.47849844
   0.43507180  0.78617677  0.12451303
   0.56780772  0.37342827  0.30030919
   0.43504747  0.95327687  0.34506615
   0.18567747  0.95783558  0.69971876
   0.43257171  0.61454753  0.16664019
   0.93907168  0.45513130  0.21196720
   0.06120784  0.53262930  0.12442477
   0.81179461  0.37222279  0.52149911
   0.94304923  0.62378964  0.30015161
   0.31002801  0.03826296  0.25581726
   0.68459106  0.78836332  0.61081789
   0.19058616  0.46186289  0.83349464
   0.43304983  0.11409246  0.16681177
   0.31145445  0.37194228  0.52150887
   0.43595208  0.62281116  0.78807475
   0.05981626  0.03858356  0.25600045
   0.56198546  0.70674799  0.56561845
   0.93959494  0.28976338  0.74372157
   0.68469357  0.12275471  0.78804526
   0.18887820  0.45486708  0.21170972
   0.94019829  0.78740051  0.38924380
   0.68684876  0.29496881  0.87558302
   0.55687263  0.86522440  0.16670911
   0.43613166  0.45756845  0.69959966
   0.93556067  0.95249447  0.34499940
   0.68654543  0.62192010  0.52145924
   0.06545632  0.87436974  0.65506802
   0.06069886  0.87361162  0.78794522
   0.06528355  0.37453071  0.65506930
   0.68698913  0.45506140  0.47843112
   0.18499008  0.78931149  0.25601025
   0.43725361  0.12059101  0.43445728
   0.81225199  0.03266996  0.12454471
   0.93657740  0.62191839  0.52153558
   0.44034936  0.12455786  0.65502025
   0.81227438  0.53246118  0.12447018
   0.80646597  0.36627804  0.16684004