 288 288   0   0
  0.1280206E+02  0.9726678E-09  0.8423550E-09  0.4500000E-08  0.2500000E-15
   1.0000000000000000E-004
  CAR 
 unknown system                          
      6.74089029     -6.06134826  301      4.30740105      1.00000000
     -6.061  0.0000E+00  0.0000E+00
     -6.019  0.0000E+00  0.0000E+00
     -5.976  0.0000E+00  0.0000E+00
     -5.933  0.0000E+00  0.0000E+00
     -5.891  0.0000E+00  0.0000E+00
     -5.848  0.0000E+00  0.0000E+00
     -5.805  0.0000E+00  0.0000E+00
     -5.763  0.0000E+00  0.0000E+00
     -5.720  0.0000E+00  0.0000E+00
     -5.677  0.0000E+00  0.0000E+00
     -5.635  0.0000E+00  0.0000E+00
     -5.592  0.0000E+00  0.0000E+00
     -5.549  0.0000E+00  0.0000E+00
     -5.507  0.0000E+00  0.0000E+00
     -5.464  0.0000E+00  0.0000E+00
     -5.421  0.1626E-17  0.6939E-19
     -5.379  0.3675E-16  0.1638E-17
     -5.336  0.7902E-15  0.3536E-16
     -5.293  0.1441E-13  0.6502E-15
     -5.251  0.2239E-12  0.1021E-13
     -5.208  0.2965E-11  0.1367E-12
     -5.165  0.3347E-10  0.1565E-11
     -5.123  0.3221E-09  0.1531E-10
     -5.080  0.2643E-08  0.1281E-09
     -5.037  0.1852E-07  0.9183E-09
     -4.994  0.1108E-06  0.5647E-08
     -4.952  0.5672E-06  0.2985E-07
     -4.909  0.2489E-05  0.1361E-06
     -4.866  0.9397E-05  0.5371E-06
     -4.824  0.3065E-04  0.1845E-05
     -4.781  0.8694E-04  0.5555E-05
     -4.738  0.2164E-03  0.1479E-04
     -4.696  0.4782E-03  0.3520E-04
     -4.653  0.9495E-03  0.7571E-04
     -4.610  0.1716E-02  0.1489E-03
     -4.568  0.2854E-02  0.2708E-03
     -4.525  0.4404E-02  0.4587E-03
     -4.482  0.6340E-02  0.7292E-03
     -4.440  0.8559E-02  0.1094E-02
     -4.397  0.1088E-01  0.1559E-02
     -4.354  0.1308E-01  0.2117E-02
     -4.312  0.1495E-01  0.2755E-02
     -4.269  0.1635E-01  0.3453E-02
     -4.226  0.1729E-01  0.4191E-02
     -4.184  0.1793E-01  0.4956E-02
     -4.141  0.1855E-01  0.5748E-02
     -4.098  0.1947E-01  0.6578E-02
     -4.056  0.2092E-01  0.7471E-02
     -4.013  0.2297E-01  0.8451E-02
     -3.970  0.2543E-01  0.9536E-02
     -3.928  0.2793E-01  0.1073E-01
     -3.885  0.3003E-01  0.1201E-01
     -3.842  0.3137E-01  0.1335E-01
     -3.800  0.3178E-01  0.1470E-01
     -3.757  0.3143E-01  0.1605E-01
     -3.714  0.3074E-01  0.1736E-01
     -3.672  0.3025E-01  0.1865E-01
     -3.629  0.3042E-01  0.1995E-01
     -3.586  0.3150E-01  0.2129E-01
     -3.544  0.3340E-01  0.2272E-01
     -3.501  0.3579E-01  0.2424E-01
     -3.458  0.3821E-01  0.2587E-01
     -3.416  0.4019E-01  0.2759E-01
     -3.373  0.4145E-01  0.2936E-01
     -3.330  0.4193E-01  0.3115E-01
     -3.288  0.4183E-01  0.3293E-01
     -3.245  0.4152E-01  0.3470E-01
     -3.202  0.4145E-01  0.3647E-01
     -3.160  0.4203E-01  0.3827E-01
     -3.117  0.4344E-01  0.4012E-01
     -3.074  0.4559E-01  0.4207E-01
     -3.031  0.4816E-01  0.4412E-01
     -2.989  0.5067E-01  0.4628E-01
     -2.946  0.5264E-01  0.4853E-01
     -2.903  0.5373E-01  0.5082E-01
     -2.861  0.5394E-01  0.5312E-01
     -2.818  0.5365E-01  0.5541E-01
     -2.775  0.5345E-01  0.5769E-01
     -2.733  0.5380E-01  0.5999E-01
     -2.690  0.5471E-01  0.6233E-01
     -2.647  0.5573E-01  0.6470E-01
     -2.605  0.5623E-01  0.6710E-01
     -2.562  0.5598E-01  0.6949E-01
     -2.519  0.5542E-01  0.7186E-01
     -2.477  0.5554E-01  0.7423E-01
     -2.434  0.5733E-01  0.7667E-01
     -2.391  0.6119E-01  0.7928E-01
     -2.349  0.6652E-01  0.8212E-01
     -2.306  0.7173E-01  0.8518E-01
     -2.263  0.7501E-01  0.8839E-01
     -2.221  0.7527E-01  0.9160E-01
     -2.178  0.7290E-01  0.9471E-01
     -2.135  0.6966E-01  0.9768E-01
     -2.093  0.6775E-01  0.1006E+00
     -2.050  0.6868E-01  0.1035E+00
     -2.007  0.7258E-01  0.1066E+00
     -1.965  0.7826E-01  0.1099E+00
     -1.922  0.8379E-01  0.1135E+00
     -1.879  0.8749E-01  0.1172E+00
     -1.837  0.8868E-01  0.1210E+00
     -1.794  0.8803E-01  0.1248E+00
     -1.751  0.8696E-01  0.1285E+00
     -1.709  0.8673E-01  0.1322E+00
     -1.666  0.8777E-01  0.1359E+00
     -1.623  0.8975E-01  0.1398E+00
     -1.581  0.9212E-01  0.1437E+00
     -1.538  0.9461E-01  0.1477E+00
     -1.495  0.9730E-01  0.1519E+00
     -1.453  0.1002E+00  0.1562E+00
     -1.410  0.1032E+00  0.1606E+00
     -1.367  0.1056E+00  0.1651E+00
     -1.325  0.1074E+00  0.1697E+00
     -1.282  0.1095E+00  0.1743E+00
     -1.239  0.1137E+00  0.1792E+00
     -1.196  0.1213E+00  0.1844E+00
     -1.154  0.1320E+00  0.1900E+00
     -1.111  0.1433E+00  0.1961E+00
     -1.068  0.1518E+00  0.2026E+00
     -1.026  0.1558E+00  0.2093E+00
     -0.983  0.1563E+00  0.2159E+00
     -0.940  0.1570E+00  0.2226E+00
     -0.898  0.1622E+00  0.2295E+00
     -0.855  0.1746E+00  0.2370E+00
     -0.812  0.1941E+00  0.2453E+00
     -0.770  0.2193E+00  0.2546E+00
     -0.727  0.2491E+00  0.2653E+00
     -0.684  0.2838E+00  0.2774E+00
     -0.642  0.3236E+00  0.2912E+00
     -0.599  0.3672E+00  0.3069E+00
     -0.556  0.4110E+00  0.3244E+00
     -0.514  0.4502E+00  0.3436E+00
     -0.471  0.4816E+00  0.3642E+00
     -0.428  0.5049E+00  0.3857E+00
     -0.386  0.5225E+00  0.4080E+00
     -0.343  0.5372E+00  0.4309E+00
     -0.300  0.5505E+00  0.4544E+00
     -0.258  0.5619E+00  0.4784E+00
     -0.215  0.5698E+00  0.5027E+00
     -0.172  0.5734E+00  0.5272E+00
     -0.130  0.5740E+00  0.5517E+00
     -0.087  0.5743E+00  0.5762E+00
     -0.044  0.5772E+00  0.6008E+00
     -0.002  0.5847E+00  0.6258E+00
      0.041  0.5982E+00  0.6513E+00
      0.084  0.6187E+00  0.6777E+00
      0.126  0.6461E+00  0.7053E+00
      0.169  0.6792E+00  0.7343E+00
      0.212  0.7146E+00  0.7647E+00
      0.254  0.7487E+00  0.7967E+00
      0.297  0.7786E+00  0.8299E+00
      0.340  0.8032E+00  0.8642E+00
      0.382  0.8229E+00  0.8993E+00
      0.425  0.8387E+00  0.9351E+00
      0.468  0.8508E+00  0.9714E+00
      0.510  0.8585E+00  0.1008E+01
      0.553  0.8612E+00  0.1045E+01
      0.596  0.8593E+00  0.1081E+01
      0.638  0.8535E+00  0.1118E+01
      0.681  0.8441E+00  0.1154E+01
      0.724  0.8307E+00  0.1189E+01
      0.767  0.8135E+00  0.1224E+01
      0.809  0.7945E+00  0.1258E+01
      0.852  0.7776E+00  0.1291E+01
      0.895  0.7660E+00  0.1324E+01
      0.937  0.7606E+00  0.1356E+01
      0.980  0.7590E+00  0.1389E+01
      1.023  0.7571E+00  0.1421E+01
      1.065  0.7515E+00  0.1453E+01
      1.108  0.7413E+00  0.1485E+01
      1.151  0.7293E+00  0.1516E+01
      1.193  0.7205E+00  0.1547E+01
      1.236  0.7190E+00  0.1577E+01
      1.279  0.7246E+00  0.1608E+01
      1.321  0.7317E+00  0.1639E+01
      1.364  0.7327E+00  0.1671E+01
      1.407  0.7236E+00  0.1702E+01
      1.449  0.7063E+00  0.1732E+01
      1.492  0.6875E+00  0.1761E+01
      1.535  0.6747E+00  0.1790E+01
      1.577  0.6724E+00  0.1819E+01
      1.620  0.6813E+00  0.1848E+01
      1.663  0.6992E+00  0.1877E+01
      1.705  0.7226E+00  0.1908E+01
      1.748  0.7479E+00  0.1940E+01
      1.791  0.7725E+00  0.1973E+01
      1.833  0.7945E+00  0.2007E+01
      1.876  0.8131E+00  0.2042E+01
      1.919  0.8287E+00  0.2077E+01
      1.961  0.8429E+00  0.2113E+01
      2.004  0.8574E+00  0.2150E+01
      2.047  0.8731E+00  0.2187E+01
      2.089  0.8897E+00  0.2225E+01
      2.132  0.9062E+00  0.2264E+01
      2.175  0.9218E+00  0.2303E+01
      2.217  0.9371E+00  0.2343E+01
      2.260  0.9543E+00  0.2384E+01
      2.303  0.9763E+00  0.2425E+01
      2.345  0.1006E+01  0.2468E+01
      2.388  0.1043E+01  0.2513E+01
      2.431  0.1086E+01  0.2559E+01
      2.473  0.1132E+01  0.2607E+01
      2.516  0.1177E+01  0.2658E+01
      2.559  0.1218E+01  0.2710E+01
      2.601  0.1251E+01  0.2763E+01
      2.644  0.1274E+01  0.2817E+01
      2.687  0.1287E+01  0.2872E+01
      2.730  0.1295E+01  0.2927E+01
      2.772  0.1302E+01  0.2983E+01
      2.815  0.1314E+01  0.3039E+01
      2.858  0.1336E+01  0.3096E+01
      2.900  0.1367E+01  0.3154E+01
      2.943  0.1397E+01  0.3214E+01
      2.986  0.1412E+01  0.3274E+01
      3.028  0.1396E+01  0.3334E+01
      3.071  0.1344E+01  0.3391E+01
      3.114  0.1262E+01  0.3445E+01
      3.156  0.1167E+01  0.3495E+01
      3.199  0.1076E+01  0.3541E+01
      3.242  0.1000E+01  0.3584E+01
      3.284  0.9464E+00  0.3624E+01
      3.327  0.9132E+00  0.3663E+01
      3.370  0.8967E+00  0.3701E+01
      3.412  0.8911E+00  0.3739E+01
      3.455  0.8896E+00  0.3777E+01
      3.498  0.8852E+00  0.3815E+01
      3.540  0.8733E+00  0.3852E+01
      3.583  0.8545E+00  0.3889E+01
      3.626  0.8358E+00  0.3924E+01
      3.668  0.8266E+00  0.3960E+01
      3.711  0.8332E+00  0.3995E+01
      3.754  0.8551E+00  0.4032E+01
      3.796  0.8861E+00  0.4069E+01
      3.839  0.9185E+00  0.4109E+01
      3.882  0.9471E+00  0.4149E+01
      3.924  0.9706E+00  0.4191E+01
      3.967  0.9898E+00  0.4233E+01
      4.010  0.1006E+01  0.4276E+01
      4.052  0.1019E+01  0.4319E+01
      4.095  0.1027E+01  0.4363E+01
      4.138  0.1030E+01  0.4407E+01
      4.180  0.1026E+01  0.4451E+01
      4.223  0.1016E+01  0.4494E+01
      4.266  0.1002E+01  0.4537E+01
      4.308  0.9890E+00  0.4579E+01
      4.351  0.9797E+00  0.4621E+01
      4.394  0.9760E+00  0.4663E+01
      4.436  0.9776E+00  0.4704E+01
      4.479  0.9821E+00  0.4746E+01
      4.522  0.9858E+00  0.4788E+01
      4.565  0.9859E+00  0.4830E+01
      4.607  0.9823E+00  0.4872E+01
      4.650  0.9774E+00  0.4914E+01
      4.693  0.9756E+00  0.4956E+01
      4.735  0.9809E+00  0.4997E+01
      4.778  0.9945E+00  0.5040E+01
      4.821  0.1015E+01  0.5083E+01
      4.863  0.1041E+01  0.5128E+01
      4.906  0.1067E+01  0.5173E+01
      4.949  0.1093E+01  0.5220E+01
      4.991  0.1112E+01  0.5267E+01
      5.034  0.1112E+01  0.5315E+01
      5.077  0.1079E+01  0.5361E+01
      5.119  0.9981E+00  0.5403E+01
      5.162  0.8643E+00  0.5440E+01
      5.205  0.6894E+00  0.5470E+01
      5.247  0.4997E+00  0.5491E+01
      5.290  0.3254E+00  0.5505E+01
      5.333  0.1888E+00  0.5513E+01
      5.375  0.9689E-01  0.5517E+01
      5.418  0.4376E-01  0.5519E+01
      5.461  0.1731E-01  0.5520E+01
      5.503  0.5982E-02  0.5520E+01
      5.546  0.1800E-02  0.5520E+01
      5.589  0.4705E-03  0.5520E+01
      5.631  0.1066E-03  0.5520E+01
      5.674  0.2092E-04  0.5520E+01
      5.717  0.3548E-05  0.5520E+01
      5.759  0.5193E-06  0.5520E+01
      5.802  0.6552E-07  0.5520E+01
      5.845  0.7118E-08  0.5520E+01
      5.887  0.6650E-09  0.5520E+01
      5.930  0.5339E-10  0.5520E+01
      5.973  0.3680E-11  0.5520E+01
      6.015  0.2176E-12  0.5520E+01
      6.058  0.1103E-13  0.5520E+01
      6.101  0.4637E-15  0.5520E+01
      6.143  0.1106E-16  0.5520E+01
      6.186  0.0000E+00  0.5520E+01
      6.229  0.0000E+00  0.5520E+01
      6.271  0.0000E+00  0.5520E+01
      6.314  0.0000E+00  0.5520E+01
      6.357  0.0000E+00  0.5520E+01
      6.399  0.0000E+00  0.5520E+01
      6.442  0.0000E+00  0.5520E+01
      6.485  0.0000E+00  0.5520E+01
      6.528  0.0000E+00  0.5520E+01
      6.570  0.0000E+00  0.5520E+01
      6.613  0.0000E+00  0.5520E+01
      6.656  0.0000E+00  0.5520E+01
      6.698  0.0000E+00  0.5520E+01
      6.741  0.0000E+00  0.5520E+01
