unknown system                          
            1
     9.726678    0.000000    0.000000
     0.000000    8.423550    0.000000
     0.000000    0.000000   45.000000
   Fe   Mn
 273  15
Direct configuration=     1
   0.06217450  0.70503581  0.47860826
   0.81238411  0.70724045  0.83098318
   0.93736277  0.12253331  0.43487978
   0.18781403  0.79002192  0.87325197
   0.31262896  0.20486244  0.56481372
   0.81237017  0.53898182  0.74227680
   0.56250615  0.20548096  0.21374260
   0.06247235  0.87250753  0.43489346
   0.43748149  0.95555104  0.34637754
   0.81243462  0.03833063  0.12687191
   0.68766960  0.78896994  0.74220548
   0.43758266  0.45546047  0.21369337
   0.81244214  0.20548296  0.21374359
   0.06225287  0.37186426  0.52136941
   0.81276034  0.37197176  0.43487827
   0.68733083  0.78886437  0.39016376
   0.68753972  0.12245838  0.30193549
   0.43734036  0.95544228  0.21376252
   0.18760227  0.95532236  0.69801394
   0.93730790  0.62151806  0.16895210
   0.31235427  0.87241824  0.52124588
   0.31250876  0.37198967  0.30190482
   0.68773100  0.12175709  0.52129959
   0.56272372  0.20607309  0.47868847
   0.81247831  0.37157309  0.16902775
   0.43702793  0.95627701  0.83104910
   0.81252438  0.37182427  0.52133162
   0.93780496  0.45560474  0.47860479
   0.06252874  0.70533746  0.56503195
   0.43805644  0.12214118  0.43475902
   0.31253907  0.03844637  0.12684254
   0.81239790  0.70544502  0.21370707
   0.93761442  0.28917948  0.74213877
   0.43733023  0.12237400  0.78618211
   0.06250603  0.87221191  0.52130935
   0.81236318  0.70584086  0.34632707
   0.06229396  0.20579694  0.34634751
   0.81214213  0.20578123  0.47855757
   0.68779605  0.78982413  0.87330229
   0.06241967  0.70609314  0.83107403
   0.43747371  0.95554120  0.69808477
   0.31231289  0.20621274  0.83107588
   0.68743894  0.62171565  0.16904235
   0.18757605  0.45614787  0.83103634
   0.18685187  0.12192988  0.52122536
   0.81264082  0.53869068  0.60976415
   0.31245451  0.70541865  0.34639645
   0.43719687  0.28862442  0.60975312
   0.43743822  0.78914476  0.74222276
   0.56243698  0.03912407  0.25787153
   0.31274455  0.37209583  0.43511697
   0.43739287  0.12166774  0.16905466
   0.68729333  0.28861146  0.39020318
   0.68704357  0.95554128  0.47863348
   0.56240332  0.87155687  0.16905358
   0.31260813  0.70543241  0.21370220
   0.06252469  0.87265478  0.78631389
   0.18761913  0.78904503  0.74218251
   0.68746512  0.62226278  0.43479243
   0.31277239  0.53950989  0.87328034
   0.81229350  0.87188280  0.52126322
   0.81249482  0.03900010  0.74220453
   0.68767705  0.12199070  0.43493727
   0.43793283  0.45585180  0.47859324
   0.06264468  0.37219686  0.43471621
   0.93735236  0.45555109  0.21369861
   0.81247523  0.53891911  0.39019219
   0.06250338  0.20551906  0.69817729
   0.81248568  0.87260618  0.30186182
   0.18754761  0.45538159  0.34633006
   0.43763510  0.12202997  0.65370082
   0.43789797  0.45614290  0.83110698
   0.06250199  0.70533572  0.69782079
   0.56241780  0.03901293  0.39017227
   0.81263066  0.53846930  0.12687458
   0.06240638  0.04011803  0.87328284
   0.31258775  0.37185031  0.16903611
   0.68761539  0.95510278  0.56511912
   0.93739241  0.45565802  0.56500363
   0.56285144  0.03840144  0.60971258
   0.93809708  0.12257907  0.78620556
   0.56254554  0.03970558  0.87331990
   0.18733389  0.12262057  0.78634297
   0.81225064  0.37236593  0.65384604
   0.56241281  0.87293052  0.78631184
   0.93724650  0.95521647  0.56483392
   0.43761574  0.45541501  0.34622324
   0.93758998  0.12214355  0.52124686
   0.06258238  0.37259614  0.78625172
   0.31262145  0.03952349  0.87333324
   0.56251998  0.03833766  0.12688556
   0.18777236  0.95618088  0.83115365
   0.93720677  0.62244456  0.43483141
   0.43804579  0.12192281  0.52126787
   0.68745313  0.62291172  0.78609819
   0.56251619  0.70554920  0.69785434
   0.68748812  0.95561767  0.34634452
   0.93763182  0.62281695  0.30184342
   0.81254278  0.70497684  0.47863655
   0.93717135  0.28873301  0.25788504
   0.93763170  0.78895860  0.60969201
   0.93762240  0.28940285  0.39014039
   0.56309224  0.20675609  0.83118864
   0.68746975  0.28815398  0.12687056
   0.56245437  0.37238087  0.30197031
   0.06225886  0.53851579  0.60976356
   0.81246598  0.53840481  0.25785083
   0.18749009  0.45564925  0.21378013
   0.93734249  0.28919116  0.60975144
   0.56283077  0.70536314  0.47861441
   0.68745002  0.78881082  0.25782655
   0.68751341  0.45566927  0.69802600
   0.06251311  0.53879890  0.25783594
   0.68738074  0.12284022  0.78635534
   0.31266831  0.53956622  0.74219364
   0.43762760  0.45571234  0.56516749
   0.81251021  0.87160054  0.16906898
   0.31248033  0.53901938  0.39011521
   0.56249648  0.53900528  0.74215959
   0.56246069  0.70508291  0.56503403
   0.68750146  0.45571135  0.83110032
   0.56261360  0.70678878  0.83109048
   0.81252157  0.37252672  0.78634306
   0.43744956  0.28932828  0.39022287
   0.56261534  0.20569855  0.69813599
   0.06265755  0.70575025  0.34623262
   0.31255020  0.87256845  0.43482470
   0.93747634  0.62203407  0.52129562
   0.93753235  0.95531649  0.69811278
   0.81212288  0.87214420  0.43485804
   0.06251397  0.03892491  0.25782411
   0.18733024  0.12200786  0.65374999
   0.68750823  0.78855686  0.60968116
   0.56249818  0.53865596  0.25787563
   0.18771361  0.28986254  0.87330785
   0.31251979  0.70672079  0.83099205
   0.56229857  0.53846587  0.12687316
   0.43755301  0.62195710  0.65367827
   0.43755414  0.95503846  0.47856674
   0.93734960  0.12257995  0.30187348
   0.31277578  0.87206479  0.65367781
   0.06241001  0.53837234  0.12681949
   0.18766609  0.62198097  0.30187908
   0.68753582  0.62201427  0.52131505
   0.68740127  0.62216834  0.65366206
   0.56257016  0.20560228  0.34632991
   0.06241168  0.03839585  0.12684513
   0.93748502  0.78835200  0.12682904
   0.06272690  0.20609421  0.47866995
   0.43765516  0.78870196  0.39019310
   0.31245227  0.53894120  0.25789303
   0.43760126  0.12221235  0.30196425
   0.06250591  0.20571206  0.21374651
   0.56248951  0.03915160  0.74224976
   0.81257511  0.20578515  0.69799431
   0.06283221  0.87210664  0.65365526
   0.06240464  0.53903642  0.74218172
   0.31261184  0.87229242  0.30194020
   0.18731205  0.45578353  0.47862595
   0.06259669  0.87225306  0.30185920
   0.43746458  0.45553621  0.69806101
   0.18790842  0.95511192  0.47851618
   0.31252962  0.70543701  0.47863946
   0.93746558  0.45554201  0.69803203
   0.68747304  0.12173003  0.16905015
   0.81212271  0.20558816  0.56506326
   0.18733727  0.78874310  0.60976088
   0.68739586  0.28902500  0.74215799
   0.06238252  0.70550036  0.21373665
   0.93752016  0.62229139  0.78627368
   0.68745689  0.78830339  0.12686861
   0.18753697  0.62259495  0.52129227
   0.68747632  0.12192320  0.65360623
   0.18755579  0.95558263  0.21375702
   0.93761327  0.12211758  0.65362939
   0.43733109  0.62223721  0.30184922
   0.18800320  0.28932675  0.39020675
   0.43780677  0.28878998  0.25787644
   0.18753120  0.45540128  0.69808975
   0.43724489  0.95461118  0.56512205
   0.18753009  0.62163363  0.65366828
   0.93817367  0.29045563  0.87328442
   0.06270446  0.53936488  0.39018565
   0.56287005  0.87216465  0.52132643
   0.18795908  0.28901116  0.60965829
   0.81250190  0.03877269  0.60971581
   0.93746280  0.62194987  0.65363150
   0.68745704  0.95546965  0.21373981
   0.06237610  0.37190426  0.16901788
   0.81251619  0.20602015  0.34627856
   0.93725784  0.45570754  0.34627995
   0.31254858  0.20558037  0.34633875
   0.18746448  0.12201141  0.30192805
   0.18733769  0.45578067  0.56520777
   0.31263011  0.03920207  0.74228086
   0.31261240  0.37207115  0.65379134
   0.93736226  0.78978712  0.87328045
   0.56227407  0.87231218  0.30186656
   0.18774300  0.78907009  0.39012922
   0.56228704  0.37187346  0.65370440
   0.56253254  0.70529423  0.21375864
   0.31236723  0.53796602  0.60968645
   0.93745204  0.28836142  0.12684103
   0.93743039  0.95635755  0.83107062
   0.93744300  0.95586806  0.34637202
   0.31250567  0.87168297  0.16902695
   0.06244921  0.03887636  0.74239341
   0.18699826  0.12182005  0.43475103
   0.06218863  0.03871343  0.60978782
   0.43748759  0.28834626  0.12685330
   0.43773283  0.78892384  0.25789051
   0.56197227  0.53867279  0.39018839
   0.31251967  0.03887523  0.25787255
   0.18749102  0.28816700  0.12686664
   0.06249625  0.87171369  0.16901882
   0.43757464  0.78852274  0.60973308
   0.18750678  0.28888111  0.25784227
   0.43751236  0.78836157  0.12683941
   0.31254754  0.70528672  0.69813935
   0.18749754  0.62174967  0.16900607
   0.43758449  0.28945708  0.74216293
   0.68742843  0.28873678  0.25781022
   0.68748879  0.95566695  0.69803902
   0.93701732  0.45610601  0.83111988
   0.31255513  0.53831060  0.12683965
   0.43704149  0.78985294  0.87328497
   0.68770196  0.95693009  0.83133474
   0.06238448  0.03886370  0.39025179
   0.68766955  0.45564089  0.56505104
   0.31228274  0.20574898  0.69808196
   0.43766742  0.62152215  0.16896580
   0.56216545  0.87210852  0.65365177
   0.56264009  0.37183016  0.52133427
   0.68750321  0.45538902  0.21373336
   0.31230450  0.03959842  0.39027237
   0.81244474  0.03906668  0.25787150
   0.56287125  0.53850433  0.60981408
   0.43768751  0.62220520  0.78620702
   0.06250854  0.37226728  0.30192693
   0.18801057  0.95483397  0.56518417
   0.18743321  0.28948645  0.74225221
   0.18748978  0.12200806  0.16895769
   0.31249099  0.37229175  0.78633382
   0.18744423  0.78832188  0.12684202
   0.06229474  0.53987478  0.87325189
   0.68738389  0.45572896  0.34629287
   0.68721015  0.45556946  0.47856554
   0.06267855  0.20601639  0.83107839
   0.93756930  0.95546896  0.21372468
   0.56264464  0.87247252  0.43490105
   0.93727666  0.78891814  0.74221968
   0.68741584  0.28914100  0.60975440
   0.81256297  0.03911440  0.87337383
   0.93753275  0.12172451  0.16904352
   0.31252338  0.70507618  0.56511109
   0.81248386  0.37302979  0.30189918
   0.81246819  0.70577678  0.69808339
   0.31248709  0.20570852  0.21375831
   0.81198050  0.20677936  0.83119743
   0.56242475  0.70560649  0.34633092
   0.81259632  0.70517706  0.56520243
   0.18745284  0.95564829  0.34623701
   0.43661376  0.29048140  0.87325949
   0.68728679  0.62255917  0.30184178
   0.81351832  0.53937886  0.87320943
   0.56246589  0.37157492  0.16904797
   0.93727296  0.78871520  0.25784204
   0.43777147  0.62252040  0.43474905
   0.56244068  0.37257998  0.78627139
   0.56151342  0.53979563  0.87319261
   0.43760230  0.62247100  0.52138728
   0.56223903  0.37187807  0.43469394
   0.18735010  0.62201474  0.78633030
   0.93765814  0.95539089  0.47872031
   0.81226987  0.87197111  0.65358515
   0.81219136  0.03928565  0.39009668
   0.56230513  0.20533438  0.56523939
   0.06263718  0.37177838  0.65367921
   0.68768482  0.29004267  0.87303374
   0.18742709  0.78893817  0.25776540
   0.18736790  0.62284255  0.43469631
   0.31254104  0.03866809  0.60978677
   0.81266200  0.87267478  0.78601413
   0.06286062  0.20571433  0.56538042
   0.31265134  0.37194974  0.52133265
   0.93794826  0.78838375  0.39019009
   0.31247765  0.20566689  0.47852577
   0.31257076  0.87232779  0.78609637
Direct configuration=     2
   0.06221361  0.70494845  0.47834876
   0.81350987  0.70612974  0.83105725
   0.93632285  0.12259191  0.43488091
   0.18816681  0.79012342  0.87287320
   0.31245738  0.20534673  0.56470712
   0.81252936  0.53871421  0.74226994
   0.56224875  0.20564288  0.21389094
   0.06230934  0.87255863  0.43498399
   0.43829382  0.95631044  0.34611109
   0.81334988  0.03796560  0.12696533
   0.68700120  0.78895333  0.74229404
   0.43724622  0.45521929  0.21364768
   0.81276930  0.20576920  0.21369661
   0.06261572  0.37142109  0.52125194
   0.81167705  0.37165888  0.43490705
   0.68707234  0.78894273  0.39024362
   0.68665590  0.12277896  0.30175791
   0.43649388  0.95554007  0.21382745
   0.18783116  0.95550410  0.69840537
   0.93774312  0.62166631  0.16884778
   0.31237731  0.87349959  0.52094740
   0.31410670  0.37105145  0.30165686
   0.68793476  0.12189602  0.52099653
   0.56253159  0.20590549  0.47844463
   0.81299153  0.37198219  0.16892878
   0.43515967  0.95680730  0.83111647
   0.81269059  0.37115220  0.52117712
   0.93711814  0.45552922  0.47841594
   0.06227012  0.70530795  0.56503290
   0.43888920  0.12246223  0.43486159
   0.31153264  0.03787147  0.12677900
   0.81291923  0.70511359  0.21350982
   0.93819133  0.28882779  0.74215602
   0.43642858  0.12215877  0.78649343
   0.06241872  0.87324565  0.52118620
   0.81134026  0.70623149  0.34618387
   0.06180365  0.20536135  0.34633850
   0.81163188  0.20572680  0.47831892
   0.68810495  0.78947678  0.87303341
   0.06363172  0.70515649  0.83118439
   0.43746036  0.95584777  0.69841293
   0.31128265  0.20585173  0.83121399
   0.68803360  0.62148519  0.16892596
   0.18729159  0.45643426  0.83121762
   0.18750509  0.12254083  0.52101062
   0.81302743  0.53785661  0.60976275
   0.31325191  0.70579008  0.34624258
   0.43688368  0.28804798  0.60989439
   0.43741947  0.78881923  0.74237293
   0.56222647  0.03983681  0.25802236
   0.31345995  0.37221665  0.43523224
   0.43673978  0.12170723  0.16902542
   0.68733414  0.28853871  0.39025718
   0.68726970  0.95585005  0.47830420
   0.56237121  0.87106299  0.16894151
   0.31234598  0.70538735  0.21336053
   0.06369598  0.87247287  0.78670517
   0.18735395  0.78868286  0.74238167
   0.68754784  0.62210364  0.43483414
   0.31108459  0.53957698  0.87293455
   0.81252995  0.87234358  0.52102392
   0.81282459  0.03970182  0.74220476
   0.68759636  0.12228851  0.43498502
   0.43794143  0.45533988  0.47841866
   0.06228596  0.37266488  0.43471565
   0.93768613  0.45583376  0.21341020
   0.81179651  0.53835113  0.39027464
   0.06283171  0.20584114  0.69868807
   0.81134993  0.87342629  0.30173098
   0.18791828  0.45483937  0.34627037
   0.43745648  0.12255058  0.65415230
   0.43607120  0.45607766  0.83122035
   0.06296352  0.70490557  0.69825542
   0.56269117  0.03913646  0.39016154
   0.81339464  0.53894340  0.12687656
   0.06437172  0.04001206  0.87287410
   0.31182556  0.37211999  0.16897046
   0.68820703  0.95589257  0.56503751
   0.93723993  0.45456282  0.56496339
   0.56264506  0.03885723  0.60985322
   0.93945713  0.12251478  0.78634400
   0.56122487  0.03949635  0.87301684
   0.18768190  0.12253800  0.78674317
   0.81176895  0.37194639  0.65425792
   0.56114234  0.87288050  0.78658095
   0.93723805  0.95593915  0.56469947
   0.43847488  0.45467530  0.34597799
   0.93737468  0.12224763  0.52112493
   0.06344399  0.37276707  0.78661680
   0.31135877  0.03980271  0.87323654
   0.56213039  0.03816715  0.12691570
   0.18835409  0.95600292  0.83141749
   0.93649849  0.62224886  0.43494835
   0.43739522  0.12269635  0.52098248
   0.68678150  0.62349478  0.78634046
   0.56192984  0.70471132  0.69819650
   0.68723139  0.95629337  0.34607739
   0.93641367  0.62282866  0.30163173
   0.81210600  0.70531321  0.47832296
   0.93648016  0.28823533  0.25770372
   0.93796507  0.78949681  0.60974940
   0.93700388  0.28926556  0.39017603
   0.56175953  0.20666714  0.83126846
   0.68780212  0.28905271  0.12689971
   0.56289990  0.37117726  0.30172720
   0.06222446  0.53765717  0.60967778
   0.81176904  0.53784861  0.25772089
   0.18727104  0.45576777  0.21348369
   0.93754397  0.28868066  0.60971778
   0.56302648  0.70535203  0.47833728
   0.68709600  0.78918499  0.25783335
   0.68671328  0.45511013  0.69840821
   0.06199610  0.53791258  0.25746260
   0.68652546  0.12267062  0.78649334
   0.31260611  0.53920346  0.74229328
   0.43740635  0.45447290  0.56496665
   0.81335358  0.87108591  0.16897479
   0.31262736  0.53894647  0.39024204
   0.56196233  0.53911020  0.74214927
   0.56270447  0.70471995  0.56493562
   0.68778018  0.45632133  0.83122491
   0.56201644  0.70669430  0.83108370
   0.81324580  0.37280496  0.78659158
   0.43817650  0.28893840  0.39023955
   0.56219090  0.20636859  0.69846698
   0.06248127  0.70587819  0.34610130
   0.31302209  0.87260686  0.43494946
   0.93717321  0.62192278  0.52102184
   0.93786553  0.95573278  0.69855974
   0.81103375  0.87214870  0.43495957
   0.06235576  0.03987816  0.25755899
   0.18788560  0.12221284  0.65408838
   0.68767423  0.78916964  0.60978275
   0.56271179  0.53777054  0.25787088
   0.18845944  0.29008650  0.87301071
   0.31085208  0.70633935  0.83118293
   0.56218114  0.53880084  0.12685600
   0.43744291  0.62190102  0.65433184
   0.43760745  0.95588563  0.47836123
   0.93607065  0.12236136  0.30167834
   0.31287067  0.87205695  0.65407716
   0.06252718  0.53898112  0.12678753
   0.18832474  0.62157505  0.30182157
   0.68772865  0.62170727  0.52095572
   0.68688701  0.62171449  0.65425279
   0.56306861  0.20523689  0.34598687
   0.06287899  0.03758777  0.12681306
   0.93848263  0.78772707  0.12678127
   0.06291795  0.20577079  0.47866184
   0.43835053  0.78900516  0.39021168
   0.31344182  0.53774986  0.25765944
   0.43887512  0.12231113  0.30169729
   0.06292503  0.20559037  0.21352900
   0.56218290  0.03952988  0.74231945
   0.81233432  0.20636081  0.69840906
   0.06338527  0.87214736  0.65400394
   0.06285769  0.53885073  0.74229325
   0.31426490  0.87358787  0.30182285
   0.18783688  0.45548170  0.47848046
   0.06179269  0.87337031  0.30177885
   0.43747799  0.45517255  0.69842391
   0.18832045  0.95556087  0.47841988
   0.31272672  0.70528573  0.47840445
   0.93759623  0.45509121  0.69853079
   0.68803246  0.12199495  0.16898753
   0.81246321  0.20603846  0.56505863
   0.18726627  0.78986062  0.60996358
   0.68735113  0.28880964  0.74201752
   0.06223110  0.70543487  0.21324300
   0.93865263  0.62247049  0.78669175
   0.68792965  0.78753625  0.12690524
   0.18787993  0.62166020  0.52105914
   0.68697053  0.12263398  0.65405840
   0.18746826  0.95621170  0.21346639
   0.93769470  0.12245711  0.65398175
   0.43838131  0.62215839  0.30163463
   0.18785634  0.28901648  0.39019873
   0.43851136  0.28790882  0.25790676
   0.18817490  0.45519986  0.69858217
   0.43691137  0.95593100  0.56505618
   0.18801152  0.62214940  0.65421432
   0.93938195  0.29153056  0.87291273
   0.06253734  0.53874687  0.39031056
   0.56272505  0.87288301  0.52099674
   0.18788052  0.28821207  0.60967827
   0.81282965  0.03975219  0.60968054
   0.93762136  0.62201587  0.65410563
   0.68762068  0.95542941  0.21376313
   0.06246816  0.37234678  0.16898717
   0.81154171  0.20573886  0.34605678
   0.93624808  0.45516907  0.34625293
   0.31348788  0.20528351  0.34612662
   0.18838868  0.12159224  0.30160906
   0.18734177  0.45424366  0.56507664
   0.31238718  0.03973327  0.74243838
   0.31318658  0.37156998  0.65430906
   0.93853300  0.78884967  0.87291560
   0.56256485  0.87355502  0.30168447
   0.18826060  0.78917410  0.39025084
   0.56184659  0.37142958  0.65424639
   0.56243504  0.70495931  0.21372052
   0.31202431  0.53684830  0.60981882
   0.93804589  0.28891048  0.12689798
   0.93907779  0.95586688  0.83125752
   0.93665975  0.95649775  0.34614585
   0.31159657  0.87138893  0.16892873
   0.06269624  0.03921930  0.74257622
   0.18735464  0.12178597  0.43480113
   0.06244574  0.03938169  0.60983954
   0.43684756  0.28902901  0.12682809
   0.43889873  0.78972407  0.25780723
   0.56267234  0.53854010  0.39027865
   0.31353953  0.04001063  0.25773390
   0.18719733  0.28835271  0.12683178
   0.06259101  0.87141624  0.16892944
   0.43720304  0.78963199  0.61001211
   0.18816019  0.28804924  0.25755156
   0.43649851  0.78789275  0.12676086
   0.31279666  0.70478214  0.69851726
   0.18694217  0.62199973  0.16891178
   0.43717457  0.28956866  0.74212859
   0.68680272  0.28822885  0.25793293
   0.68694837  0.95622287  0.69843276
   0.93884119  0.45718202  0.83120138
   0.31179702  0.53881994  0.12675894
   0.43515215  0.79024384  0.87287650
   0.68740987  0.95663197  0.83151017
   0.06235799  0.03968583  0.39025888
   0.68803763  0.45472018  0.56497486
   0.31264322  0.20656776  0.69845635
   0.43718062  0.62146631  0.16882136
   0.56143917  0.87212251  0.65410554
   0.56197038  0.37143817  0.52111652
   0.68773671  0.45525479  0.21370410
   0.31275876  0.03987534  0.39023679
   0.81177423  0.03956397  0.25789512
   0.56282541  0.53729245  0.60986214
   0.43701168  0.62265599  0.78647901
   0.06211524  0.37159772  0.30170722
   0.18779245  0.95586279  0.56518412
   0.18730541  0.28934921  0.74232573
   0.18696908  0.12199333  0.16893665
   0.31183365  0.37210502  0.78677843
   0.18699255  0.78799123  0.12672920
   0.06340384  0.53985478  0.87302781
   0.68717842  0.45496023  0.34608278
   0.68732253  0.45539358  0.47820827
   0.06420494  0.20669386  0.83123405
   0.93835902  0.95536085  0.21354885
   0.56348101  0.87279148  0.43495397
   0.93820091  0.78895631  0.74234748
   0.68768678  0.28874839  0.60980796
   0.81312435  0.03881666  0.87310205
   0.93813822  0.12173722  0.16901856
   0.31236900  0.70507188  0.56500900
   0.81083599  0.37208711  0.30169737
   0.81232959  0.70530748  0.69846923
   0.31199980  0.20540274  0.21372722
   0.81278367  0.20723739  0.83134919
   0.56294037  0.70613098  0.34617169
   0.81278099  0.70507271  0.56511846
   0.18770106  0.95611624  0.34614625
   0.43466215  0.28999422  0.87289580
   0.68680274  0.62224686  0.30167279
   0.81460139  0.53925167  0.87299392
   0.56261504  0.37180747  0.16894084
   0.93608915  0.78932365  0.25759402
   0.43832999  0.62204403  0.43480221
   0.56155298  0.37275883  0.78647701
   0.56079470  0.53954900  0.87290803
   0.43736770  0.62131794  0.52103826
   0.56300050  0.37163343  0.43477900
   0.18748131  0.62206608  0.78676541
   0.93680503  0.95547065  0.47849706
   0.81239185  0.87240813  0.65404081
   0.81131577  0.03993906  0.39014695
   0.56193557  0.20584202  0.56516989
   0.06301831  0.37103161  0.65408887
   0.68779572  0.29069019  0.87257036
   0.18788068  0.79026787  0.25733226
   0.18738886  0.62254397  0.43479371
   0.31208292  0.03943438  0.60983048
   0.81312023  0.87194817  0.78616090
   0.06303757  0.20598609  0.56540383
   0.31286365  0.37084346  0.52120488
   0.93683779  0.78841300  0.39030540
   0.31309404  0.20545276  0.47857299
   0.31228024  0.87219487  0.78644652
Direct configuration=     3
   0.06220651  0.70496431  0.47839587
   0.81330551  0.70633137  0.83104380
   0.93651163  0.12258127  0.43488070
   0.18810277  0.79010499  0.87294196
   0.31248852  0.20525881  0.56472647
   0.81250046  0.53876279  0.74227119
   0.56229547  0.20561349  0.21386401
   0.06233893  0.87254935  0.43496755
   0.43814636  0.95617259  0.34615945
   0.81318373  0.03803186  0.12694837
   0.68712254  0.78895634  0.74227796
   0.43730729  0.45526307  0.21365598
   0.81270991  0.20571724  0.21370514
   0.06254985  0.37150154  0.52127327
   0.81187370  0.37171567  0.43490183
   0.68711926  0.78892851  0.39022912
   0.68681634  0.12272077  0.30179014
   0.43664754  0.95552232  0.21381566
   0.18778961  0.95547111  0.69833432
   0.93766412  0.62163940  0.16886672
   0.31237313  0.87330329  0.52100158
   0.31381663  0.37122176  0.30170187
   0.68789777  0.12187080  0.52105154
   0.56256647  0.20593591  0.47848889
   0.81289836  0.37190793  0.16894675
   0.43549881  0.95671104  0.83110424
   0.81266042  0.37127420  0.52120516
   0.93724282  0.45554293  0.47845022
   0.06231707  0.70531331  0.56503273
   0.43873803  0.12240395  0.43484297
   0.31171534  0.03797583  0.12679053
   0.81282460  0.70517375  0.21354563
   0.93808660  0.28889163  0.74215289
   0.43659225  0.12219784  0.78643692
   0.06243457  0.87305799  0.52120856
   0.81152595  0.70616058  0.34620986
   0.06189265  0.20544042  0.34634014
   0.81172451  0.20573668  0.47836224
   0.68804887  0.78953984  0.87308222
   0.06341170  0.70532652  0.83116436
   0.43746279  0.95579212  0.69835336
   0.31146967  0.20591727  0.83118892
   0.68792565  0.62152703  0.16894709
   0.18734323  0.45638227  0.83118471
   0.18738651  0.12242993  0.52104960
   0.81295725  0.53800802  0.60976301
   0.31310716  0.70572265  0.34627051
   0.43694054  0.28815262  0.60986874
   0.43742287  0.78887832  0.74234567
   0.56226468  0.03970742  0.25799498
   0.31333009  0.37219472  0.43521131
   0.43685834  0.12170006  0.16903073
   0.68732673  0.28855192  0.39024738
   0.68722865  0.95579400  0.47836397
   0.56237704  0.87115264  0.16896185
   0.31239357  0.70539553  0.21342255
   0.06348335  0.87250589  0.78663414
   0.18740208  0.78874861  0.74234552
   0.68753283  0.62213253  0.43482657
   0.31139098  0.53956480  0.87299732
   0.81248702  0.87225994  0.52106736
   0.81276473  0.03957444  0.74220472
   0.68761101  0.12223445  0.43497636
   0.43793987  0.45543281  0.47845035
   0.06235108  0.37257992  0.43471575
   0.93762555  0.45578245  0.21346256
   0.81191972  0.53845423  0.39025967
   0.06277211  0.20578267  0.69859535
   0.81155610  0.87327742  0.30175473
   0.18785099  0.45493780  0.34628120
   0.43748891  0.12245608  0.65407034
   0.43640282  0.45608950  0.83119977
   0.06287974  0.70498365  0.69817652
   0.56264154  0.03911403  0.39016349
   0.81325595  0.53885733  0.12687620
   0.06401495  0.04003130  0.87294830
   0.31196392  0.37207104  0.16898238
   0.68809963  0.95574920  0.56505232
   0.93726761  0.45476164  0.56497069
   0.56268253  0.03877449  0.60982769
   0.93921024  0.12252645  0.78631887
   0.56146461  0.03953433  0.87307185
   0.18761873  0.12255299  0.78667053
   0.81185639  0.37202255  0.65418315
   0.56137296  0.87288958  0.78653210
   0.93723959  0.95580796  0.56472388
   0.43831892  0.45480958  0.34602251
   0.93741377  0.12222873  0.52114707
   0.06328758  0.37273604  0.78655053
   0.31158799  0.03975203  0.87325410
   0.56220111  0.03819810  0.12691023
   0.18824849  0.95603523  0.83136960
   0.93662706  0.62228438  0.43492713
   0.43751332  0.12255593  0.52103428
   0.68690342  0.62338894  0.78629648
   0.56203628  0.70486342  0.69813439
   0.68727799  0.95617071  0.34612588
   0.93663480  0.62282653  0.30167016
   0.81218529  0.70525215  0.47837988
   0.93660563  0.28832567  0.25773663
   0.93790456  0.78939911  0.60973898
   0.93711616  0.28929048  0.39016956
   0.56200145  0.20668329  0.83125397
   0.68774178  0.28888957  0.12689442
   0.56281902  0.37139575  0.30177133
   0.06223070  0.53781303  0.60969335
   0.81189555  0.53794958  0.25774448
   0.18731080  0.45574626  0.21353750
   0.93750740  0.28877333  0.60972389
   0.56299096  0.70535404  0.47838758
   0.68716026  0.78911706  0.25783212
   0.68685853  0.45521163  0.69833882
   0.06208995  0.53807348  0.25753037
   0.68668072  0.12270141  0.78646829
   0.31261741  0.53926932  0.74227520
   0.43744651  0.45469790  0.56500311
   0.81320048  0.87117933  0.16899189
   0.31260067  0.53895971  0.39021902
   0.56205930  0.53909115  0.74215114
   0.56266022  0.70478584  0.56495348
   0.68772958  0.45621060  0.83120230
   0.56212484  0.70671145  0.83108493
   0.81311433  0.37275445  0.78654646
   0.43804454  0.28900917  0.39023652
   0.56226795  0.20624696  0.69840689
   0.06251327  0.70585497  0.34612514
   0.31293643  0.87259989  0.43492681
   0.93722824  0.62194298  0.52107154
   0.93780505  0.95565721  0.69847861
   0.81123146  0.87214788  0.43494114
   0.06238448  0.03970512  0.25760711
   0.18778479  0.12217563  0.65402695
   0.68764409  0.78905840  0.60976431
   0.56267301  0.53793127  0.25787174
   0.18832405  0.29004584  0.87306465
   0.31115482  0.70640860  0.83114828
   0.56220246  0.53874003  0.12685912
   0.43746290  0.62191120  0.65421320
   0.43759777  0.95573184  0.47839854
   0.93630281  0.12240104  0.30171376
   0.31285344  0.87205837  0.65400467
   0.06250591  0.53887061  0.12679333
   0.18820518  0.62164874  0.30183201
   0.68769365  0.62176300  0.52102095
   0.68698037  0.62179688  0.65414555
   0.56297812  0.20530321  0.34604914
   0.06279416  0.03773446  0.12681888
   0.93830153  0.78784052  0.12678994
   0.06288327  0.20582950  0.47866331
   0.43822430  0.78895012  0.39020831
   0.31326219  0.53796612  0.25770185
   0.43864388  0.12229320  0.30174575
   0.06284895  0.20561246  0.21356848
   0.56223856  0.03946121  0.74230680
   0.81237803  0.20625631  0.69833377
   0.06328487  0.87213997  0.65394065
   0.06277545  0.53888443  0.74227300
   0.31396482  0.87335270  0.30184415
   0.18774160  0.45553649  0.47850687
   0.06193864  0.87316750  0.30179343
   0.43747556  0.45523856  0.69835804
   0.18824566  0.95547937  0.47843736
   0.31269094  0.70531319  0.47844711
   0.93757251  0.45517304  0.69844025
   0.68793091  0.12194686  0.16899890
   0.81240140  0.20595672  0.56505947
   0.18727916  0.78965776  0.60992678
   0.68735925  0.28884874  0.74204302
   0.06225859  0.70544676  0.21333261
   0.93844705  0.62243797  0.78661585
   0.68784383  0.78767551  0.12689859
   0.18781767  0.62182988  0.52110146
   0.68706234  0.12250496  0.65397631
   0.18748415  0.95609750  0.21351915
   0.93767992  0.12239548  0.65391778
   0.43819066  0.62217270  0.30167358
   0.18788300  0.28907280  0.39020019
   0.43838345  0.28806878  0.25790125
   0.18805805  0.45523642  0.69849278
   0.43697192  0.95569141  0.56506814
   0.18792412  0.62205577  0.65411520
   0.93916261  0.29133543  0.87298020
   0.06256768  0.53885906  0.39028789
   0.56275137  0.87275261  0.52105658
   0.18789478  0.28835713  0.60967464
   0.81277015  0.03957438  0.60968694
   0.93759258  0.62200389  0.65401956
   0.68759097  0.95543672  0.21375890
   0.06245145  0.37226645  0.16899275
   0.81171861  0.20578992  0.34609704
   0.93643138  0.45526682  0.34625784
   0.31331737  0.20533740  0.34616513
   0.18822091  0.12166833  0.30166697
   0.18734103  0.45452267  0.56510045
   0.31243128  0.03963684  0.74240978
   0.31308235  0.37166096  0.65421508
   0.93832047  0.78901984  0.87298183
   0.56251206  0.87332941  0.30171752
   0.18816664  0.78915522  0.39022876
   0.56192654  0.37151016  0.65414800
   0.56245274  0.70502011  0.21372744
   0.31208656  0.53705120  0.60979479
   0.93793809  0.28881081  0.12688764
   0.93877874  0.95595596  0.83122359
   0.93680193  0.95638344  0.34618690
   0.31176160  0.87144230  0.16894656