<?xml version="1.0" encoding="ISO-8859-1"?>
<modeling>
 <generator>
  <i name="program" type="string">vasp </i>
  <i name="version" type="string">5.4.4.18Apr17-6-g9f103f2a35  </i>
  <i name="subversion" type="string">(build Sep 27 2018 12:46:37) complex + VL-xray_ parallel </i>
  <i name="platform" type="string">LLNL_Quartz_ifc </i>
  <i name="date" type="string">2021 09 27 </i>
  <i name="time" type="string">00:38:33 </i>
 </generator>
 <incar>
  <i type="int" name="ISTART">     2</i>
  <i type="string" name="PREC">accurate</i>
  <i type="string" name="ALGO"> Fast</i>
  <i type="int" name="ICHARG">     2</i>
  <i type="int" name="INIWAV">     1</i>
  <i type="int" name="NELM">   100</i>
  <i type="int" name="NELMIN">     4</i>
  <i type="int" name="IBRION">     2</i>
  <i name="EDIFF">      0.00000100</i>
  <i type="int" name="NSW">     5</i>
  <i type="int" name="ISIF">     2</i>
  <i type="int" name="ISYM">     2</i>
  <i name="ENCUT">    450.00000000</i>
  <i name="POTIM">      0.25000000</i>
  <i type="string" name="LREAL"> Auto</i>
  <i type="int" name="ISMEAR">     0</i>
  <i name="SIGMA">      0.15000000</i>
  <i type="logical" name="LWAVE"> F  </i>
  <i type="logical" name="LCHARG"> F  </i>
  <i type="int" name="ICORELEVEL">     0</i>
  <i type="int" name="CLNT">     1</i>
  <i type="int" name="CLN">     1</i>
  <i type="int" name="INCAR     ">     0</i>
  <i name="CLZ">      0.00000000</i>
  <v type="int" name="KPOINT_BSE">    -1     0     0     0</v>
  <i type="int" name="NELM">   100</i>
 </incar>
 <structure name="primitive_cell" >
  <crystal>
   <varray name="basis" >
    <v>       9.72667804       0.00000000       0.00000000 </v>
    <v>       0.00000000       8.42355028       0.00000000 </v>
    <v>       0.00000000       0.00000000      45.00000000 </v>
   </varray>
   <i name="volume">   3686.99226691 </i>
   <varray name="rec_basis" >
    <v>       0.10281002       0.00000000       0.00000000 </v>
    <v>       0.00000000       0.11871479       0.00000000 </v>
    <v>       0.00000000       0.00000000       0.02222222 </v>
   </varray>
  </crystal>
  <varray name="positions" >
   <v>       0.06264768       0.03028291       0.12415528 </v>
   <v>       0.18319017       0.11222690       0.16649826 </v>
   <v>       0.05676261      -0.13482115       0.16669667 </v>
   <v>       0.18608513      -0.21208684       0.12414812 </v>
   <v>      -0.06527147      -0.21182660       0.12440968 </v>
   <v>      -0.06878246       0.11442001       0.16688158 </v>
   <v>       0.31166579       0.03031185       0.12414267 </v>
   <v>      -0.18642142       0.03121329       0.12410387 </v>
   <v>       0.18495008       0.28677691       0.12419071 </v>
   <v>      -0.06581740       0.28706079       0.12408899 </v>
   <v>       0.30572310      -0.13541016       0.16605435 </v>
   <v>       0.05541827       0.36525409       0.16668546 </v>
   <v>      -0.19264881      -0.13685890       0.16679408 </v>
   <v>       0.43304795       0.11227085       0.16654121 </v>
   <v>       0.30699240       0.36372045       0.16665138 </v>
   <v>      -0.05945203      -0.04612862       0.21129131 </v>
   <v>       0.43515852      -0.21290097       0.12425121 </v>
   <v>       0.18229042      -0.38637190       0.16675748 </v>
   <v>       0.06546448       0.20381245       0.21108847 </v>
   <v>       0.19029841      -0.04509854       0.21171723 </v>
   <v>      -0.06732744      -0.38707564       0.16666105 </v>
   <v>      -0.31548189      -0.21235798       0.12448006 </v>
   <v>       0.43419991       0.28642544       0.12422040 </v>
   <v>       0.06189600      -0.46984250       0.12412617 </v>
   <v>      -0.19460043       0.36564062       0.16590844 </v>
   <v>      -0.31752277       0.11378725       0.16676287 </v>
   <v>      -0.31346139       0.28632332       0.12396086 </v>
   <v>       0.06675334      -0.29679743       0.21121551 </v>
   <v>      -0.18403700       0.20333428       0.21130014 </v>
   <v>       0.31572245       0.20352077       0.21125914 </v>
   <v>      -0.18676129      -0.47008240       0.12410460 </v>
   <v>       0.31181119      -0.46986372       0.12410586 </v>
   <v>      -0.43740496       0.03206590       0.12436527 </v>
   <v>      -0.44334359      -0.13775479       0.16647703 </v>
   <v>      -0.18342386      -0.29649118       0.21147619 </v>
   <v>       0.43157354      -0.38706985       0.16623488 </v>
   <v>      -0.30934119      -0.04512867       0.21178256 </v>
   <v>       0.31541730      -0.29618980       0.21161747 </v>
   <v>       0.44138208      -0.04498960       0.21193560 </v>
   <v>       0.19004552       0.45365396       0.21126162 </v>
   <v>      -0.31767773      -0.38785888       0.16616660 </v>
   <v>      -0.05977089       0.45450084       0.21173979 </v>
   <v>      -0.44359786       0.36492019       0.16658127 </v>
   <v>       0.05879472       0.03740011       0.25560711 </v>
   <v>       0.18366629      -0.21270539       0.25552575 </v>
   <v>      -0.06660430      -0.21250723       0.25570452 </v>
   <v>       0.30894114       0.03728957       0.25578467 </v>
   <v>      -0.43360877       0.20314965       0.21145893 </v>
   <v>      -0.19065693       0.03762999       0.25588194 </v>
   <v>       0.18385306       0.28800644       0.25583937 </v>
   <v>      -0.43780103      -0.47072124       0.12449415 </v>
   <v>      -0.06631767       0.28756605       0.25582675 </v>
   <v>      -0.31070184       0.45459934       0.21174120 </v>
   <v>       0.44013646       0.45332007       0.21122371 </v>
   <v>      -0.43406405      -0.29633394       0.21202479 </v>
   <v>       0.43294602      -0.21253939       0.25560283 </v>
   <v>       0.05947779      -0.46295157       0.25556892 </v>
   <v>       0.43285614       0.28774465       0.25567763 </v>
   <v>      -0.31693944      -0.21195254       0.25582112 </v>
   <v>      -0.31611913       0.28737614       0.25581392 </v>
   <v>       0.30828614      -0.46292054       0.25573312 </v>
   <v>      -0.44032797       0.03763728       0.25546578 </v>
   <v>      -0.19146749      -0.46279393       0.25588875 </v>
   <v>       0.07059286      -0.12692043       0.30007646 </v>
   <v>      -0.05470229       0.12270941       0.30007904 </v>
   <v>       0.19503842       0.12379066       0.30006588 </v>
   <v>      -0.17907598      -0.12639848       0.30018844 </v>
   <v>       0.31914294      -0.12620860       0.30015331 </v>
   <v>       0.06948466       0.37424673       0.30001594 </v>
   <v>      -0.44167956      -0.46244152       0.25558893 </v>
   <v>      -0.05514223      -0.37635001       0.29984123 </v>
   <v>      -0.30452995       0.12315059       0.30027115 </v>
   <v>       0.19552858      -0.37717429       0.30018897 </v>
   <v>      -0.18003397       0.37403516       0.30011510 </v>
   <v>       0.44439056       0.12305037       0.30025598 </v>
   <v>       0.32014888       0.37269056       0.30003936 </v>
   <v>      -0.30530793      -0.37595549       0.30005577 </v>
   <v>      -0.43060794      -0.12596642       0.30018157 </v>
   <v>       0.44627109      -0.37645907       0.30013082 </v>
   <v>      -0.43021412       0.37209300       0.30014692 </v>
   <v>       0.18378340      -0.04799307       0.34492762 </v>
   <v>      -0.06606313      -0.04861185       0.34477399 </v>
   <v>       0.05866853       0.20267962       0.34495950 </v>
   <v>       0.05856362      -0.29767202       0.34490187 </v>
   <v>       0.30902202       0.20257484       0.34476637 </v>
   <v>      -0.19116298       0.20223808       0.34489019 </v>
   <v>       0.30881379      -0.29855290       0.34480013 </v>
   <v>       0.43366986      -0.04754775       0.34491755 </v>
   <v>      -0.19137999      -0.29746047       0.34491610 </v>
   <v>      -0.31717548      -0.04789897       0.34477191 </v>
   <v>       0.18365390       0.45254996       0.34489367 </v>
   <v>      -0.06666672       0.45214338       0.34480850 </v>
   <v>      -0.44128718       0.20250182       0.34474789 </v>
   <v>       0.43354487       0.45247310       0.34497934 </v>
   <v>       0.06546124       0.03939903      -0.12410101 </v>
   <v>      -0.31640272       0.45240267       0.34495836 </v>
   <v>      -0.44106475      -0.29756789       0.34486566 </v>
   <v>       0.18825669      -0.20461536      -0.12414293 </v>
   <v>      -0.06253000      -0.20524625      -0.12453924 </v>
   <v>       0.31417219       0.04268863      -0.12426136 </v>
   <v>      -0.18645449       0.04213644      -0.12438413 </v>
   <v>       0.18846449       0.29749011      -0.12371062 </v>
   <v>      -0.06494469       0.29854217      -0.12426080 </v>
   <v>       0.06389434      -0.45874407      -0.12412285 </v>
   <v>       0.43837803      -0.20479246      -0.12413759 </v>
   <v>       0.06663803       0.03809388       0.38916026 </v>
   <v>      -0.31592389      -0.20345919      -0.12417651 </v>
   <v>       0.43569096       0.29723436      -0.12356400 </v>
   <v>      -0.31388241       0.29832760      -0.12393419 </v>
   <v>      -0.05879790      -0.21214252       0.38885812 </v>
   <v>       0.19332468      -0.21225676       0.38874416 </v>
   <v>       0.31337889      -0.45933969      -0.12390671 </v>
   <v>      -0.18731028      -0.45962772      -0.12404362 </v>
   <v>      -0.18186971       0.03904781       0.38902012 </v>
   <v>       0.31639529       0.03736332       0.38878784 </v>
   <v>      -0.05900208       0.28657074       0.38891790 </v>
   <v>       0.19120736       0.28752378       0.38887035 </v>
   <v>      -0.43693428       0.03927145      -0.12401468 </v>
   <v>      -0.30840148      -0.21225713       0.38906265 </v>
   <v>       0.06717567      -0.46119206       0.38914119 </v>
   <v>      -0.30856792       0.28726392       0.38905741 </v>
   <v>       0.44139020      -0.21226134       0.38909448 </v>
   <v>       0.44161866       0.28767496       0.38908239 </v>
   <v>      -0.18368301      -0.46239183       0.38897877 </v>
   <v>       0.31592908      -0.46181412       0.38893181 </v>
   <v>      -0.43342317       0.03781396       0.38903718 </v>
   <v>      -0.43735062      -0.45890087      -0.12410094 </v>
   <v>      -0.05723658      -0.03571782      -0.16592677 </v>
   <v>       0.19113079      -0.03640639      -0.16636761 </v>
   <v>       0.06667935       0.21490090      -0.16600110 </v>
   <v>       0.06632649      -0.28374306      -0.16622668 </v>
   <v>      -0.18259032       0.21471172      -0.16620262 </v>
   <v>       0.31688243       0.21251095      -0.16649165 </v>
   <v>      -0.43367392      -0.46231645       0.38902958 </v>
   <v>      -0.18269350      -0.28436925      -0.16691822 </v>
   <v>      -0.30864409      -0.03730415      -0.16640423 </v>
   <v>       0.31667672      -0.28677176      -0.16703935 </v>
   <v>       0.44301608      -0.03634494      -0.16652989 </v>
   <v>      -0.05794624       0.46394223      -0.16621287 </v>
   <v>       0.19165753       0.46332938      -0.16648336 </v>
   <v>      -0.43371773       0.21288668      -0.16649134 </v>
   <v>       0.06202194      -0.12841118       0.43443927 </v>
   <v>       0.18692977       0.12011291       0.43428219 </v>
   <v>      -0.06308707       0.11975402       0.43461611 </v>
   <v>      -0.30783320       0.46264506      -0.16665981 </v>
   <v>       0.44256273       0.46310150      -0.16667251 </v>
   <v>      -0.43403543      -0.28566739      -0.16659814 </v>
   <v>      -0.18837648      -0.12871903       0.43425832 </v>
   <v>       0.31207283      -0.12947720       0.43445677 </v>
   <v>       0.06270185       0.37194154       0.43431192 </v>
   <v>      -0.06255458      -0.37971822       0.43441912 </v>
   <v>       0.18722364      -0.38008901       0.43445443 </v>
   <v>       0.43686621       0.12084233       0.43438959 </v>
   <v>      -0.31239084       0.11990948       0.43439312 </v>
   <v>      -0.18821617       0.37139167       0.43421234 </v>
   <v>       0.31240557       0.37059628       0.43445479 </v>
   <v>       0.43677319      -0.37901812       0.43441455 </v>
   <v>      -0.31208448      -0.37948160       0.43443663 </v>
   <v>      -0.43762633      -0.12948928       0.43439075 </v>
   <v>      -0.43812369       0.37095835       0.43436738 </v>
   <v>       0.05916470      -0.12550347      -0.21147624 </v>
   <v>       0.18325953       0.12256468      -0.21138363 </v>
   <v>      -0.06512231       0.12391923      -0.21146919 </v>
   <v>       0.30975668      -0.12764712      -0.21169157 </v>
   <v>      -0.19093523      -0.12662096      -0.21166071 </v>
   <v>       0.05916180       0.37427391      -0.21141831 </v>
   <v>       0.43481959       0.12236996      -0.21112882 </v>
   <v>       0.18501680      -0.37747793      -0.21150282 </v>
   <v>      -0.06658534      -0.37626688      -0.21161630 </v>
   <v>       0.30951304       0.37451319      -0.21130647 </v>
   <v>      -0.31767531       0.12252638      -0.21144316 </v>
   <v>      -0.19081111       0.37536422      -0.21142199 </v>
   <v>       0.43290403      -0.37760823      -0.21125234 </v>
   <v>      -0.44036750      -0.12592069      -0.21146418 </v>
   <v>      -0.31591115      -0.37759278      -0.21169489 </v>
   <v>       0.18750893      -0.04425635       0.47871239 </v>
   <v>      -0.06270973      -0.04478724       0.47873536 </v>
   <v>       0.06243854       0.20592346       0.47867859 </v>
   <v>      -0.44077722       0.37419692      -0.21131788 </v>
   <v>       0.06228838      -0.29416418       0.47859549 </v>
   <v>       0.31232303       0.20568645       0.47869285 </v>
   <v>      -0.18777275       0.20583976       0.47868467 </v>
   <v>       0.31221117      -0.29411860       0.47863648 </v>
   <v>      -0.18757192      -0.29421686       0.47865580 </v>
   <v>       0.43725438      -0.04417039       0.47866646 </v>
   <v>      -0.31241525      -0.04407140       0.47872725 </v>
   <v>       0.18738883       0.45567723       0.47865089 </v>
   <v>      -0.06259256       0.45571444       0.47864708 </v>
   <v>      -0.43770643       0.20566227       0.47865841 </v>
   <v>       0.43739830       0.45603880       0.47858271 </v>
   <v>      -0.31287565       0.45581035       0.47864641 </v>
   <v>      -0.43756049      -0.29428700       0.47869591 </v>
   <v>       0.06545022       0.04026121      -0.25577932 </v>
   <v>      -0.06030432      -0.20878908      -0.25535048 </v>
   <v>       0.18931831      -0.20807607      -0.25551371 </v>
   <v>      -0.18448607       0.04133931      -0.25583847 </v>
   <v>      -0.06071966       0.29098472      -0.25567962 </v>
   <v>       0.19038972       0.29119976      -0.25570549 </v>
   <v>       0.31501203       0.04167802      -0.25596198 </v>
   <v>       0.06528324      -0.45898754      -0.25571210 </v>
   <v>      -0.31042061      -0.20794098      -0.25561544 </v>
   <v>       0.43959622      -0.20780195      -0.25545104 </v>
   <v>      -0.30953428       0.29128568      -0.25580404 </v>
   <v>       0.43943348       0.29168836      -0.25566586 </v>
   <v>      -0.18438222      -0.45967898      -0.25564189 </v>
   <v>       0.31504457      -0.45848516      -0.25576587 </v>
   <v>      -0.43470250       0.04131213      -0.25579610 </v>
   <v>       0.06189270      -0.12834139      -0.47854639 </v>
   <v>       0.18686733       0.12202265      -0.47860026 </v>
   <v>      -0.06341891       0.12191387      -0.47843084 </v>
   <v>       0.31180758      -0.12820151      -0.47854257 </v>
   <v>      -0.18834163      -0.12861795      -0.47858700 </v>
   <v>       0.06159272       0.37225218      -0.47860585 </v>
   <v>      -0.43483079      -0.45852755      -0.25575707 </v>
   <v>      -0.06324826      -0.37800447      -0.47857821 </v>
   <v>       0.18691826      -0.37847786      -0.47855505 </v>
   <v>       0.43694599       0.12164948      -0.47855257 </v>
   <v>      -0.31301964       0.12175649      -0.47853962 </v>
   <v>       0.31179784       0.37194915      -0.47858827 </v>
   <v>      -0.18802658       0.37220694      -0.47862145 </v>
   <v>       0.43665771      -0.37797396      -0.47862851 </v>
   <v>      -0.31338217      -0.37849173      -0.47865184 </v>
   <v>      -0.43789491      -0.12768940      -0.47851926 </v>
   <v>      -0.43811689       0.37196864      -0.47858791 </v>
   <v>       0.18538823      -0.04239522      -0.30023863 </v>
   <v>      -0.06478585      -0.04186482      -0.30032806 </v>
   <v>       0.06057794       0.20779576      -0.30027178 </v>
   <v>       0.06043943      -0.29217738      -0.30035924 </v>
   <v>       0.31062692       0.20746623      -0.30010513 </v>
   <v>      -0.18929179       0.20772075      -0.30006809 </v>
   <v>       0.31043002      -0.29301233      -0.30018623 </v>
   <v>      -0.18950361      -0.29255308      -0.30026422 </v>
   <v>       0.43537787      -0.04190770      -0.30031072 </v>
   <v>      -0.31475009      -0.04262292      -0.30026075 </v>
   <v>       0.18527787       0.45804036      -0.30031468 </v>
   <v>      -0.06463093       0.45811071      -0.30035448 </v>
   <v>      -0.43920254       0.20759160      -0.30023776 </v>
   <v>       0.43547692       0.45803508      -0.30031537 </v>
   <v>      -0.31475474       0.45808668      -0.30030403 </v>
   <v>      -0.43939085      -0.29239408      -0.30031253 </v>
   <v>      -0.06360008      -0.04291196      -0.43450971 </v>
   <v>       0.18670685      -0.04308394      -0.43445500 </v>
   <v>       0.06210954       0.20725974      -0.43459130 </v>
   <v>       0.06207758      -0.29354824      -0.43441993 </v>
   <v>       0.31138865       0.20638545      -0.43450592 </v>
   <v>      -0.18882499       0.20699391      -0.43452456 </v>
   <v>       0.31139347      -0.29321194      -0.43451060 </v>
   <v>      -0.18855712      -0.29339856      -0.43452156 </v>
   <v>       0.43643971      -0.04270707      -0.43459919 </v>
   <v>      -0.31260250      -0.04324370      -0.43445282 </v>
   <v>       0.18721373       0.45702205      -0.43448271 </v>
   <v>      -0.06347279       0.45635326      -0.43437782 </v>
   <v>      -0.43778754       0.20698307      -0.43446468 </v>
   <v>      -0.31342805       0.45713252      -0.43455846 </v>
   <v>       0.43641161       0.45684130      -0.43444690 </v>
   <v>      -0.43761451      -0.29288543      -0.43445261 </v>
   <v>       0.06640718      -0.12522087      -0.34506943 </v>
   <v>       0.19108196       0.12487540      -0.34495884 </v>
   <v>      -0.05867997       0.12481282      -0.34506844 </v>
   <v>      -0.18380790      -0.12523754      -0.34485995 </v>
   <v>       0.31619435      -0.12523786      -0.34490036 </v>
   <v>       0.06600551       0.37402406      -0.34499892 </v>
   <v>       0.19123072      -0.37491065      -0.34478617 </v>
   <v>      -0.05884676      -0.37486365      -0.34502049 </v>
   <v>      -0.30892535       0.12494335      -0.34497254 </v>
   <v>      -0.18396006       0.37514331      -0.34494883 </v>
   <v>       0.44132527       0.12456123      -0.34504659 </v>
   <v>       0.31591267       0.37413548      -0.34498060 </v>
   <v>      -0.30884129      -0.37505113      -0.34480721 </v>
   <v>       0.44106618      -0.37504643      -0.34490757 </v>
   <v>      -0.43388918      -0.12542299      -0.34509179 </v>
   <v>      -0.43397962       0.37426914      -0.34497346 </v>
   <v>       0.05885774       0.03834259      -0.38905590 </v>
   <v>       0.18374155      -0.21200598      -0.38906919 </v>
   <v>      -0.06626026      -0.21226537      -0.38907936 </v>
   <v>       0.30897332       0.03854964      -0.38890826 </v>
   <v>      -0.06617953       0.28816943      -0.38905637 </v>
   <v>      -0.19086974       0.03838486      -0.38894935 </v>
   <v>       0.18415692       0.28859475      -0.38891797 </v>
   <v>       0.43390148      -0.21162232      -0.38899889 </v>
   <v>       0.05871970      -0.46174405      -0.38898652 </v>
   <v>      -0.31631956      -0.21218726      -0.38908751 </v>
   <v>       0.43402282       0.28843908      -0.38901728 </v>
   <v>      -0.31620498       0.28848806      -0.38898746 </v>
   <v>       0.30888257      -0.46182808      -0.38904186 </v>
   <v>      -0.19111460      -0.46167934      -0.38896042 </v>
   <v>      -0.44078230       0.03841530      -0.38891946 </v>
   <v>      -0.44107042      -0.46183533      -0.38900575 </v>
  </varray>
 </structure>
 <varray name="primitive_index" >
  <v type="int" >        1 </v>
  <v type="int" >      125 </v>
  <v type="int" >       60 </v>
  <v type="int" >       83 </v>
  <v type="int" >       44 </v>
  <v type="int" >       26 </v>
  <v type="int" >      256 </v>
  <v type="int" >      202 </v>
  <v type="int" >      111 </v>
  <v type="int" >      155 </v>
  <v type="int" >      277 </v>
  <v type="int" >       51 </v>
  <v type="int" >      102 </v>
  <v type="int" >      182 </v>
  <v type="int" >      108 </v>
  <v type="int" >      212 </v>
  <v type="int" >      170 </v>
  <v type="int" >       20 </v>
  <v type="int" >       50 </v>
  <v type="int" >      146 </v>
  <v type="int" >      104 </v>
  <v type="int" >      163 </v>
  <v type="int" >      117 </v>
  <v type="int" >      176 </v>
  <v type="int" >      284 </v>
  <v type="int" >      166 </v>
  <v type="int" >      145 </v>
  <v type="int" >      250 </v>
  <v type="int" >      167 </v>
  <v type="int" >      249 </v>
  <v type="int" >      205 </v>
  <v type="int" >       91 </v>
  <v type="int" >      114 </v>
  <v type="int" >      192 </v>
  <v type="int" >      213 </v>
  <v type="int" >      174 </v>
  <v type="int" >       92 </v>
  <v type="int" >      161 </v>
  <v type="int" >      229 </v>
  <v type="int" >      189 </v>
  <v type="int" >       97 </v>
  <v type="int" >      175 </v>
  <v type="int" >       30 </v>
  <v type="int" >      185 </v>
  <v type="int" >      200 </v>
  <v type="int" >       52 </v>
  <v type="int" >      179 </v>
  <v type="int" >      103 </v>
  <v type="int" >       24 </v>
  <v type="int" >      112 </v>
  <v type="int" >      283 </v>
  <v type="int" >      127 </v>
  <v type="int" >      261 </v>
  <v type="int" >      139 </v>
  <v type="int" >      288 </v>
  <v type="int" >      137 </v>
  <v type="int" >      168 </v>
  <v type="int" >      265 </v>
  <v type="int" >      118 </v>
  <v type="int" >       58 </v>
  <v type="int" >      275 </v>
  <v type="int" >      221 </v>
  <v type="int" >       81 </v>
  <v type="int" >      214 </v>
  <v type="int" >      135 </v>
  <v type="int" >      215 </v>
  <v type="int" >       72 </v>
  <v type="int" >       98 </v>
  <v type="int" >      226 </v>
  <v type="int" >       28 </v>
  <v type="int" >      178 </v>
  <v type="int" >      109 </v>
  <v type="int" >      263 </v>
  <v type="int" >      220 </v>
  <v type="int" >      159 </v>
  <v type="int" >      242 </v>
  <v type="int" >      130 </v>
  <v type="int" >      210 </v>
  <v type="int" >      101 </v>
  <v type="int" >      171 </v>
  <v type="int" >      258 </v>
  <v type="int" >      194 </v>
  <v type="int" >       47 </v>
  <v type="int" >      216 </v>
  <v type="int" >       86 </v>
  <v type="int" >      207 </v>
  <v type="int" >      208 </v>
  <v type="int" >      172 </v>
  <v type="int" >       73 </v>
  <v type="int" >       25 </v>
  <v type="int" >      116 </v>
  <v type="int" >       12 </v>
  <v type="int" >      219 </v>
  <v type="int" >      206 </v>
  <v type="int" >      282 </v>
  <v type="int" >       48 </v>
  <v type="int" >      164 </v>
  <v type="int" >      268 </v>
  <v type="int" >      281 </v>
  <v type="int" >      245 </v>
  <v type="int" >       14 </v>
  <v type="int" >      120 </v>
  <v type="int" >      280 </v>
  <v type="int" >      266 </v>
  <v type="int" >      150 </v>
  <v type="int" >      124 </v>
  <v type="int" >       29 </v>
  <v type="int" >      255 </v>
  <v type="int" >      191 </v>
  <v type="int" >      190 </v>
  <v type="int" >      287 </v>
  <v type="int" >       18 </v>
  <v type="int" >      231 </v>
  <v type="int" >      279 </v>
  <v type="int" >      165 </v>
  <v type="int" >       13 </v>
  <v type="int" >      248 </v>
  <v type="int" >      276 </v>
  <v type="int" >       45 </v>
  <v type="int" >      273 </v>
  <v type="int" >       84 </v>
  <v type="int" >      264 </v>
  <v type="int" >        4 </v>
  <v type="int" >      123 </v>
  <v type="int" >       67 </v>
  <v type="int" >       16 </v>
  <v type="int" >       64 </v>
  <v type="int" >       17 </v>
  <v type="int" >        7 </v>
  <v type="int" >      259 </v>
  <v type="int" >      134 </v>
  <v type="int" >        6 </v>
  <v type="int" >       39 </v>
  <v type="int" >      222 </v>
  <v type="int" >      253 </v>
  <v type="int" >       88 </v>
  <v type="int" >        5 </v>
  <v type="int" >      110 </v>
  <v type="int" >       36 </v>
  <v type="int" >      181 </v>
  <v type="int" >      143 </v>
  <v type="int" >      285 </v>
  <v type="int" >      160 </v>
  <v type="int" >      158 </v>
  <v type="int" >       82 </v>
  <v type="int" >       74 </v>
  <v type="int" >      241 </v>
  <v type="int" >      235 </v>
  <v type="int" >       23 </v>
  <v type="int" >      218 </v>
  <v type="int" >      131 </v>
  <v type="int" >      238 </v>
  <v type="int" >      201 </v>
  <v type="int" >      257 </v>
  <v type="int" >       80 </v>
  <v type="int" >      113 </v>
  <v type="int" >      278 </v>
  <v type="int" >      232 </v>
  <v type="int" >       69 </v>
  <v type="int" >      251 </v>
  <v type="int" >      197 </v>
  <v type="int" >        3 </v>
  <v type="int" >      149 </v>
  <v type="int" >      224 </v>
  <v type="int" >       55 </v>
  <v type="int" >      254 </v>
  <v type="int" >       49 </v>
  <v type="int" >      272 </v>
  <v type="int" >      132 </v>
  <v type="int" >      138 </v>
  <v type="int" >      188 </v>
  <v type="int" >       57 </v>
  <v type="int" >      184 </v>
  <v type="int" >       33 </v>
  <v type="int" >       66 </v>
  <v type="int" >       94 </v>
  <v type="int" >      236 </v>
  <v type="int" >      223 </v>
  <v type="int" >      106 </v>
  <v type="int" >      157 </v>
  <v type="int" >      230 </v>
  <v type="int" >       21 </v>
  <v type="int" >       99 </v>
  <v type="int" >      234 </v>
  <v type="int" >      105 </v>
  <v type="int" >       75 </v>
  <v type="int" >      244 </v>
  <v type="int" >      269 </v>
  <v type="int" >      237 </v>
  <v type="int" >      156 </v>
  <v type="int" >      199 </v>
  <v type="int" >      169 </v>
  <v type="int" >        9 </v>
  <v type="int" >       46 </v>
  <v type="int" >      262 </v>
  <v type="int" >      151 </v>
  <v type="int" >      187 </v>
  <v type="int" >       11 </v>
  <v type="int" >      239 </v>
  <v type="int" >      211 </v>
  <v type="int" >       43 </v>
  <v type="int" >       31 </v>
  <v type="int" >       19 </v>
  <v type="int" >       71 </v>
  <v type="int" >       87 </v>
  <v type="int" >      243 </v>
  <v type="int" >      267 </v>
  <v type="int" >       27 </v>
  <v type="int" >      140 </v>
  <v type="int" >      286 </v>
  <v type="int" >      144 </v>
  <v type="int" >       10 </v>
  <v type="int" >      107 </v>
  <v type="int" >      270 </v>
  <v type="int" >      203 </v>
  <v type="int" >       68 </v>
  <v type="int" >      119 </v>
  <v type="int" >       34 </v>
  <v type="int" >      183 </v>
  <v type="int" >      177 </v>
  <v type="int" >      252 </v>
  <v type="int" >      195 </v>
  <v type="int" >       77 </v>
  <v type="int" >      247 </v>
  <v type="int" >      173 </v>
  <v type="int" >      225 </v>
  <v type="int" >       37 </v>
  <v type="int" >      274 </v>
  <v type="int" >       63 </v>
  <v type="int" >      233 </v>
  <v type="int" >      154 </v>
  <v type="int" >      141 </v>
  <v type="int" >       38 </v>
  <v type="int" >       54 </v>
  <v type="int" >      246 </v>
  <v type="int" >      152 </v>
  <v type="int" >       53 </v>
  <v type="int" >      193 </v>
  <v type="int" >       76 </v>
  <v type="int" >      133 </v>
  <v type="int" >      129 </v>
  <v type="int" >      162 </v>
  <v type="int" >       62 </v>
  <v type="int" >       65 </v>
  <v type="int" >       93 </v>
  <v type="int" >      271 </v>
  <v type="int" >       90 </v>
  <v type="int" >       32 </v>
  <v type="int" >       56 </v>
  <v type="int" >       95 </v>
  <v type="int" >       59 </v>
  <v type="int" >       42 </v>
  <v type="int" >        8 </v>
  <v type="int" >      228 </v>
  <v type="int" >       70 </v>
  <v type="int" >      186 </v>
  <v type="int" >      196 </v>
  <v type="int" >      121 </v>
  <v type="int" >      122 </v>
  <v type="int" >       79 </v>
  <v type="int" >        2 </v>
  <v type="int" >      198 </v>
  <v type="int" >      153 </v>
  <v type="int" >      240 </v>
  <v type="int" >      209 </v>
  <v type="int" >       35 </v>
  <v type="int" >      204 </v>
  <v type="int" >       85 </v>
  <v type="int" >      227 </v>
  <v type="int" >       40 </v>
  <v type="int" >       89 </v>
  <v type="int" >       78 </v>
  <v type="int" >      142 </v>
  <v type="int" >       15 </v>
  <v type="int" >      136 </v>
  <v type="int" >      148 </v>
  <v type="int" >      100 </v>
  <v type="int" >      217 </v>
  <v type="int" >       61 </v>
  <v type="int" >       96 </v>
  <v type="int" >      126 </v>
  <v type="int" >      180 </v>
  <v type="int" >      115 </v>
  <v type="int" >      147 </v>
  <v type="int" >       41 </v>
  <v type="int" >       22 </v>
  <v type="int" >      260 </v>
  <v type="int" >      128 </v>
 </varray>
 <kpoints>
  <generation param="Gamma">
   <v type="int" name="divisions">       4        4        1 </v>
   <v name="usershift">      0.00000000       0.00000000       0.00000000 </v>
   <v name="genvec1">      0.25000000       0.00000000       0.00000000 </v>
   <v name="genvec2">      0.00000000       0.25000000       0.00000000 </v>
   <v name="genvec3">      0.00000000       0.00000000       1.00000000 </v>
   <v name="shift">      0.00000000       0.00000000       0.00000000 </v>
  </generation>
  <varray name="kpointlist" >
   <v>       0.00000000       0.00000000       0.00000000 </v>
   <v>       0.25000000       0.00000000       0.00000000 </v>
   <v>       0.50000000       0.00000000       0.00000000 </v>
   <v>       0.00000000       0.25000000       0.00000000 </v>
   <v>       0.25000000       0.25000000       0.00000000 </v>
   <v>       0.50000000       0.25000000       0.00000000 </v>
   <v>      -0.25000000       0.25000000       0.00000000 </v>
   <v>       0.00000000       0.50000000       0.00000000 </v>
   <v>       0.25000000       0.50000000       0.00000000 </v>
   <v>       0.50000000       0.50000000       0.00000000 </v>
  </varray>
  <varray name="weights" >
   <v>       0.06250000 </v>
   <v>       0.12500000 </v>
   <v>       0.06250000 </v>
   <v>       0.12500000 </v>
   <v>       0.12500000 </v>
   <v>       0.12500000 </v>
   <v>       0.12500000 </v>
   <v>       0.06250000 </v>
   <v>       0.12500000 </v>
   <v>       0.06250000 </v>
  </varray>
 </kpoints>
 <parameters>
  <separator name="general" >
   <i type="string" name="SYSTEM">unknown system</i>
   <i type="logical" name="LCOMPAT"> F  </i>
  </separator>
  <separator name="electronic" >
   <i type="string" name="PREC">accura</i>
   <i name="ENMAX">    450.00000000</i>
   <i name="ENAUG">    838.43500000</i>
   <i name="EDIFF">      0.00000100</i>
   <i type="int" name="IALGO">    68</i>
   <i type="int" name="IWAVPR">    11</i>
   <i type="int" name="NBANDS">  1386</i>
   <i name="NELECT">   2290.00000000</i>
   <i type="int" name="TURBO">     0</i>
   <i type="int" name="IRESTART">     0</i>
   <i type="int" name="NREBOOT">     0</i>
   <i type="int" name="NMIN">     0</i>
   <i name="EREF">      0.00000000</i>
   <separator name="electronic smearing" >
    <i type="int" name="ISMEAR">     0</i>
    <i name="SIGMA">      0.15000000</i>
    <i name="KSPACING">      0.50000000</i>
    <i type="logical" name="KGAMMA"> T  </i>
   </separator>
   <separator name="electronic projectors" >
    <i type="logical" name="LREAL"> T  </i>
    <v name="ROPT">     -0.00025000     -0.00025000</v>
    <i type="int" name="LMAXPAW">  -100</i>
    <i type="int" name="LMAXMIX">     2</i>
    <i type="logical" name="NLSPLINE"> F  </i>
   </separator>
   <separator name="electronic startup" >
    <i type="int" name="ISTART">     0</i>
    <i type="int" name="ICHARG">     2</i>
    <i type="int" name="INIWAV">     1</i>
   </separator>
   <separator name="electronic spin" >
    <i type="int" name="ISPIN">     1</i>
    <i type="logical" name="LNONCOLLINEAR"> F  </i>
    <v name="MAGMOM">      1.00000000      1.00000000      1.00000000      1.00000000      1.00000000      1.00000000      1.00000000      1.00000000      1.00000000      1.00000000      1.00000000      1.00000000      1.00000000      1.00000000      1.00000000      1.00000000      1.00000000      1.00000000      1.00000000      1.00000000
      1.00000000      1.00000000      1.00000000      1.00000000      1.00000000      1.00000000      1.00000000      1.00000000      1.00000000      1.00000000      1.00000000      1.00000000      1.00000000      1.00000000      1.00000000      1.00000000      1.00000000      1.00000000      1.00000000      1.00000000
      1.00000000      1.00000000      1.00000000      1.00000000      1.00000000      1.00000000      1.00000000      1.00000000      1.00000000      1.00000000      1.00000000      1.00000000      1.00000000      1.00000000      1.00000000      1.00000000      1.00000000      1.00000000      1.00000000      1.00000000
      1.00000000      1.00000000      1.00000000      1.00000000      1.00000000      1.00000000      1.00000000      1.00000000      1.00000000      1.00000000      1.00000000      1.00000000      1.00000000      1.00000000      1.00000000      1.00000000      1.00000000      1.00000000      1.00000000      1.00000000
      1.00000000      1.00000000      1.00000000      1.00000000      1.00000000      1.00000000      1.00000000      1.00000000      1.00000000      1.00000000      1.00000000      1.00000000      1.00000000      1.00000000      1.00000000      1.00000000      1.00000000      1.00000000      1.00000000      1.00000000
      1.00000000      1.00000000      1.00000000      1.00000000      1.00000000      1.00000000      1.00000000      1.00000000      1.00000000      1.00000000      1.00000000      1.00000000      1.00000000      1.00000000      1.00000000      1.00000000      1.00000000      1.00000000      1.00000000      1.00000000
      1.00000000      1.00000000      1.00000000      1.00000000      1.00000000      1.00000000      1.00000000      1.00000000      1.00000000      1.00000000      1.00000000      1.00000000      1.00000000      1.00000000      1.00000000      1.00000000      1.00000000      1.00000000      1.00000000      1.00000000
      1.00000000      1.00000000      1.00000000      1.00000000      1.00000000      1.00000000      1.00000000      1.00000000      1.00000000      1.00000000      1.00000000      1.00000000      1.00000000      1.00000000      1.00000000      1.00000000      1.00000000      1.00000000      1.00000000      1.00000000
      1.00000000      1.00000000      1.00000000      1.00000000      1.00000000      1.00000000      1.00000000      1.00000000      1.00000000      1.00000000      1.00000000      1.00000000      1.00000000      1.00000000      1.00000000      1.00000000      1.00000000      1.00000000      1.00000000      1.00000000
      1.00000000      1.00000000      1.00000000      1.00000000      1.00000000      1.00000000      1.00000000      1.00000000      1.00000000      1.00000000      1.00000000      1.00000000      1.00000000      1.00000000      1.00000000      1.00000000      1.00000000      1.00000000      1.00000000      1.00000000
      1.00000000      1.00000000      1.00000000      1.00000000      1.00000000      1.00000000      1.00000000      1.00000000      1.00000000      1.00000000      1.00000000      1.00000000      1.00000000      1.00000000      1.00000000      1.00000000      1.00000000      1.00000000      1.00000000      1.00000000
      1.00000000      1.00000000      1.00000000      1.00000000      1.00000000      1.00000000      1.00000000      1.00000000      1.00000000      1.00000000      1.00000000      1.00000000      1.00000000      1.00000000      1.00000000      1.00000000      1.00000000      1.00000000      1.00000000      1.00000000
      1.00000000      1.00000000      1.00000000      1.00000000      1.00000000      1.00000000      1.00000000      1.00000000      1.00000000      1.00000000      1.00000000      1.00000000      1.00000000      1.00000000      1.00000000      1.00000000      1.00000000      1.00000000      1.00000000      1.00000000
      1.00000000      1.00000000      1.00000000      1.00000000      1.00000000      1.00000000      1.00000000      1.00000000      1.00000000      1.00000000      1.00000000      1.00000000      1.00000000      1.00000000      1.00000000      1.00000000      1.00000000      1.00000000      1.00000000      1.00000000
      1.00000000      1.00000000      1.00000000      1.00000000      1.00000000      1.00000000      1.00000000      1.00000000</v>
    <i name="NUPDOWN">     -1.00000000</i>
    <i type="logical" name="LSORBIT"> F  </i>
    <v name="SAXIS">      0.00000000      0.00000000      1.00000000</v>
    <i type="logical" name="LSPIRAL"> F  </i>
    <v name="QSPIRAL">      0.00000000      0.00000000      0.00000000</v>
    <i type="logical" name="LZEROZ"> F  </i>
   </separator>
   <separator name="electronic exchange-correlation" >
    <i type="logical" name="LASPH"> F  </i>
    <i type="logical" name="LMETAGGA"> F  </i>
   </separator>
   <separator name="electronic convergence" >
    <i type="int" name="NELM">   100</i>
    <i type="int" name="NELMDL">     0</i>
    <i type="int" name="NELMIN">     4</i>
    <i name="ENINI">    450.00000000</i>
    <separator name="electronic convergence detail" >
     <i type="logical" name="LDIAG"> T  </i>
     <i type="logical" name="LSUBROT"> F  </i>
     <i name="WEIMIN">      0.00100000</i>
     <i name="EBREAK">      0.00000000</i>
     <i name="DEPER">      0.30000000</i>
     <i type="int" name="NRMM">     4</i>
     <i name="TIME">      0.40000000</i>
    </separator>
   </separator>
   <separator name="electronic mixer" >
    <i name="AMIX">      0.40000000</i>
    <i name="BMIX">      1.00000000</i>
    <i name="AMIN">      0.10000000</i>
    <i name="AMIX_MAG">      1.60000000</i>
    <i name="BMIX_MAG">      1.00000000</i>
    <separator name="electronic mixer details" >
     <i type="int" name="IMIX">     4</i>
     <i type="logical" name="MIXFIRST"> F  </i>
     <i type="int" name="MAXMIX">   -45</i>
     <i name="WC">    100.00000000</i>
     <i type="int" name="INIMIX">     1</i>
     <i type="int" name="MIXPRE">     1</i>
     <i type="int" name="MREMOVE">     5</i>
    </separator>
   </separator>
   <separator name="electronic dipolcorrection" >
    <i type="logical" name="LDIPOL"> F  </i>
    <i type="logical" name="LMONO"> F  </i>
    <i type="int" name="IDIPOL">     0</i>
    <i name="EPSILON">      1.00000000</i>
    <v name="DIPOL">   -100.00000000   -100.00000000   -100.00000000</v>
    <i name="EFIELD">      0.00000000</i>
   </separator>
  </separator>
  <separator name="grids" >
   <i type="int" name="NGX">    70</i>
   <i type="int" name="NGY">    60</i>
   <i type="int" name="NGZ">   320</i>
   <i type="int" name="NGXF">   140</i>
   <i type="int" name="NGYF">   120</i>
   <i type="int" name="NGZF">   640</i>
   <i type="logical" name="ADDGRID"> F  </i>
  </separator>
  <separator name="ionic" >
   <i type="int" name="NSW">     5</i>
   <i type="int" name="IBRION">     2</i>
   <i type="int" name="MDALGO">     0</i>
   <i type="int" name="ISIF">     2</i>
   <i name="PSTRESS">      0.00000000</i>
   <i name="EDIFFG">      0.00001000</i>
   <i type="int" name="NFREE">     1</i>
   <i name="POTIM">      0.25000000</i>
   <i name="SMASS">     -3.00000000</i>
   <i name="SCALEE">      1.00000000</i>
  </separator>
  <separator name="ionic md" >
   <i name="TEBEG">      0.00010000</i>
   <i name="TEEND">      0.00010000</i>
   <i type="int" name="NBLOCK">     1</i>
   <i type="int" name="KBLOCK">     5</i>
   <i type="int" name="NPACO">   256</i>
   <i name="APACO">     16.00000000</i>
  </separator>
  <separator name="symmetry" >
   <i type="int" name="ISYM">     2</i>
   <i name="SYMPREC">      0.00001000</i>
  </separator>
  <separator name="dos" >
   <i type="int" name="LORBIT">     0</i>
   <v name="RWIGS">     -1.00000000     -1.00000000</v>
   <i type="int" name="NEDOS">   301</i>
   <i name="EMIN">     10.00000000</i>
   <i name="EMAX">    -10.00000000</i>
   <i name="EFERMI">      0.00000000</i>
  </separator>
  <separator name="writing" >
   <i type="int" name="NWRITE">     2</i>
   <i type="logical" name="LWAVE"> F  </i>
   <i type="logical" name="LDOWNSAMPLE"> F  </i>
   <i type="logical" name="LCHARG"> F  </i>
   <i type="logical" name="LPARD"> F  </i>
   <i type="logical" name="LVTOT"> F  </i>
   <i type="logical" name="LVHAR"> F  </i>
   <i type="logical" name="LELF"> F  </i>
   <i type="logical" name="LOPTICS"> F  </i>
   <v name="STM">      0.00000000      0.00000000      0.00000000      0.00000000      0.00000000      0.00000000      0.00000000</v>
  </separator>
  <separator name="performance" >
   <i type="int" name="NPAR">    14</i>
   <i type="int" name="NSIM">     4</i>
   <i type="int" name="NBLK">    -1</i>
   <i type="logical" name="LPLANE"> T  </i>
   <i type="logical" name="LSCALAPACK"> T  </i>
   <i type="logical" name="LSCAAWARE"> T  </i>
   <i type="logical" name="LSCALU"> F  </i>
   <i type="logical" name="LASYNC"> F  </i>
   <i type="logical" name="LORBITALREAL"> F  </i>
  </separator>
  <separator name="miscellaneous" >
   <i type="int" name="IDIOT">     3</i>
   <i type="int" name="ISPECIAL">     0</i>
   <i type="logical" name="LMUSIC"> F  </i>
   <v name="POMASS">     55.84700000     54.93800000</v>
   <v name="DARWINR">      0.00000000      0.00000000</v>
   <v name="DARWINV">      1.00000000      1.00000000</v>
   <i type="logical" name="LCORR"> T  </i>
  </separator>
  <i type="logical" name="GGA_COMPAT"> T  </i>
  <i type="logical" name="LBERRY"> F  </i>
  <i type="int" name="ICORELEVEL">     0</i>
  <i type="logical" name="LDAU"> F  </i>
  <i type="int" name="I_CONSTRAINED_M">     0</i>
  <separator name="electronic exchange-correlation" >
   <i type="string" name="GGA">--</i>
   <i type="int" name="VOSKOWN">     0</i>
   <i type="logical" name="LHFCALC"> F  </i>
   <i type="string" name="PRECFOCK"></i>
   <i type="logical" name="LSYMGRAD"> F  </i>
   <i type="logical" name="LHFONE"> F  </i>
   <i type="logical" name="LRHFCALC"> F  </i>
   <i type="logical" name="LTHOMAS"> F  </i>
   <i type="logical" name="LMODELHF"> F  </i>
   <i name="ENCUT4O">     -1.00000000</i>
   <i type="int" name="EXXOEP">     0</i>
   <i type="int" name="FOURORBIT">     0</i>
   <i name="AEXX">      0.00000000</i>
   <i name="HFALPHA">      0.00000000</i>
   <i name="MCALPHA">      0.00000000</i>
   <i name="ALDAX">      1.00000000</i>
   <i name="AGGAX">      1.00000000</i>
   <i name="ALDAC">      1.00000000</i>
   <i name="AGGAC">      1.00000000</i>
   <i type="int" name="NKREDX">     1</i>
   <i type="int" name="NKREDY">     1</i>
   <i type="int" name="NKREDZ">     1</i>
   <i type="logical" name="SHIFTRED"> F  </i>
   <i type="logical" name="ODDONLY"> F  </i>
   <i type="logical" name="EVENONLY"> F  </i>
   <i type="int" name="LMAXFOCK">     0</i>
   <i type="int" name="NMAXFOCKAE">     0</i>
   <i type="logical" name="LFOCKAEDFT"> F  </i>
   <i name="HFSCREEN">      0.00000000</i>
   <i name="HFSCREENC">      0.00000000</i>
   <i type="int" name="NBANDSGWLOW">     0</i>
  </separator>
  <separator name="vdW DFT" >
   <i type="logical" name="LUSE_VDW"> F  </i>
   <i name="Zab_VDW">     -0.84910000</i>
   <i name="PARAM1">      0.12340000</i>
   <i name="PARAM2">      1.00000000</i>
   <i name="PARAM3">      0.00000000</i>
  </separator>
  <separator name="model GW" >
   <i type="int" name="MODEL_GW">     0</i>
   <i name="MODEL_EPS0">      7.68123389</i>
   <i name="MODEL_ALPHA">      1.00000000</i>
  </separator>
  <separator name="linear response parameters" >
   <i type="logical" name="LEPSILON"> F  </i>
   <i type="logical" name="LRPA"> F  </i>
   <i type="logical" name="LNABLA"> F  </i>
   <i type="logical" name="LVEL"> F  </i>
   <i type="int" name="KINTER">     0</i>
   <i name="CSHIFT">      0.10000000</i>
   <i name="OMEGAMAX">     -1.00000000</i>
   <i name="DEG_THRESHOLD">      0.00200000</i>
   <i name="RTIME">     -0.10000000</i>
   <i name="WPLASMAI">      0.00000000</i>
   <v name="DFIELD">      0.00000000      0.00000000      0.00000000</v>
   <v name="WPLASMA">      0.00000000      0.00000000      0.00000000      0.00000000      0.00000000      0.00000000      0.00000000      0.00000000      0.00000000</v>
  </separator>
  <separator name="orbital magnetization" >
   <i type="logical" name="NUCIND"> F  </i>
   <v name="MAGPOS">      0.00000000      0.00000000      0.00000000</v>
   <i type="logical" name="LNICSALL"> T  </i>
   <i type="logical" name="ORBITALMAG"> F  </i>
   <i type="logical" name="LMAGBLOCH"> F  </i>
   <i type="logical" name="LCHIMAG"> F  </i>
   <i type="logical" name="LGAUGE"> T  </i>
   <i type="int" name="MAGATOM">     0</i>
   <v name="MAGDIPOL">      0.00000000      0.00000000      0.00000000</v>
   <v name="AVECCONST">      0.00000000      0.00000000      0.00000000</v>
  </separator>
  <separator name="response functions" >
   <i type="logical" name="LADDER"> F  </i>
   <i type="logical" name="LRPAFORCE"> F  </i>
   <i type="logical" name="LFXC"> F  </i>
   <i type="logical" name="LHARTREE"> T  </i>
   <i type="int" name="IBSE">     0</i>
   <v type="int" name="KPOINT">    -1     0     0     0</v>
   <i type="logical" name="LTCTE"> F  </i>
   <i type="logical" name="LTETE"> F  </i>
   <i type="logical" name="LTRIPLET"> F  </i>
   <i type="logical" name="LFXCEPS"> F  </i>
   <i type="logical" name="LFXHEG"> F  </i>
   <i type="int" name="NATURALO">     2</i>
   <i type="logical" name="L2ORDER"> F  </i>
   <i type="logical" name="LMP2LT"> F  </i>
   <i type="logical" name="LUSEW"> F  </i>
   <i name="ENCUTGW">     -2.00000000</i>
   <i name="ENCUTGWSOFT">     -2.00000000</i>
   <i name="ENCUTLF">     -1.00000000</i>
   <i type="int" name="LMAXMP2">    -1</i>
   <i name="SCISSOR">      0.00000000</i>
   <i type="int" name="NOMEGA">     0</i>
   <i type="int" name="NOMEGAR">     0</i>
   <i type="int" name="NBANDSGW">    -1</i>
   <i type="int" name="NBANDSO">    -1</i>
   <i type="int" name="NBANDSV">    -1</i>
   <i type="int" name="NELM">   100</i>
   <i type="int" name="NELMHF">     1</i>
   <i type="int" name="DIM">     3</i>
   <i type="int" name="ANTIRES">     0</i>
   <i name="OMEGAMAX">    -30.00000000</i>
   <i name="OMEGAMIN">    -30.00000000</i>
   <i name="OMEGATL">   -200.00000000</i>
   <i type="int" name="OMEGAGRID">   140</i>
   <i name="CSHIFT">     -0.10000000</i>
   <i type="logical" name="SELFENERGY"> F  </i>
   <i type="logical" name="LSPECTRAL"> F  </i>
   <i type="logical" name="LSPECTRALGW"> F  </i>
   <i type="logical" name="LSINGLES"> F  </i>
   <i type="logical" name="LFERMIGW"> F  </i>
   <i type="logical" name="ODDONLYGW"> F  </i>
   <i type="logical" name="EVENONLYGW"> F  </i>
   <i type="int" name="NKREDLFX">     1</i>
   <i type="int" name="NKREDLFY">     1</i>
   <i type="int" name="NKREDLFZ">     1</i>
   <i type="int" name="MAXMEM">  2800</i>
   <i type="int" name="TELESCOPE">     0</i>
   <i type="int" name="TAUPAR">     1</i>
   <i type="int" name="OMEGAPAR">    -1</i>
   <i name="LAMBDA">      1.00000000</i>
  </separator>
  <separator name="External order field" >
   <i name="OFIELD_KAPPA">      0.00000000</i>
   <v name="OFIELD_K">      0.00000000      0.00000000      0.00000000</v>
   <i name="OFIELD_Q6_NEAR">      0.00000000</i>
   <i name="OFIELD_Q6_FAR">      0.00000000</i>
   <i name="OFIELD_A">      0.00000000</i>
  </separator>
 </parameters>
 <atominfo>
  <atoms>     288 </atoms>
  <types>       2 </types>
  <array name="atoms" >
   <dimension dim="1">ion</dimension>
   <field type="string">element</field>
   <field type="int">atomtype</field>
   <set>
    <rc><c>Fe</c><c>   1</c></rc>
    <rc><c>Fe</c><c>   1</c></rc>
    <rc><c>Fe</c><c>   1</c></rc>
    <rc><c>Fe</c><c>   1</c></rc>
    <rc><c>Fe</c><c>   1</c></rc>
    <rc><c>Fe</c><c>   1</c></rc>
    <rc><c>Fe</c><c>   1</c></rc>
    <rc><c>Fe</c><c>   1</c></rc>
    <rc><c>Fe</c><c>   1</c></rc>
    <rc><c>Fe</c><c>   1</c></rc>
    <rc><c>Fe</c><c>   1</c></rc>
    <rc><c>Fe</c><c>   1</c></rc>
    <rc><c>Fe</c><c>   1</c></rc>
    <rc><c>Fe</c><c>   1</c></rc>
    <rc><c>Fe</c><c>   1</c></rc>
    <rc><c>Fe</c><c>   1</c></rc>
    <rc><c>Fe</c><c>   1</c></rc>
    <rc><c>Fe</c><c>   1</c></rc>
    <rc><c>Fe</c><c>   1</c></rc>
    <rc><c>Fe</c><c>   1</c></rc>
    <rc><c>Fe</c><c>   1</c></rc>
    <rc><c>Fe</c><c>   1</c></rc>
    <rc><c>Fe</c><c>   1</c></rc>
    <rc><c>Fe</c><c>   1</c></rc>
    <rc><c>Fe</c><c>   1</c></rc>
    <rc><c>Fe</c><c>   1</c></rc>
    <rc><c>Fe</c><c>   1</c></rc>
    <rc><c>Fe</c><c>   1</c></rc>
    <rc><c>Fe</c><c>   1</c></rc>
    <rc><c>Fe</c><c>   1</c></rc>
    <rc><c>Fe</c><c>   1</c></rc>
    <rc><c>Fe</c><c>   1</c></rc>
    <rc><c>Fe</c><c>   1</c></rc>
    <rc><c>Fe</c><c>   1</c></rc>
    <rc><c>Fe</c><c>   1</c></rc>
    <rc><c>Fe</c><c>   1</c></rc>
    <rc><c>Fe</c><c>   1</c></rc>
    <rc><c>Fe</c><c>   1</c></rc>
    <rc><c>Fe</c><c>   1</c></rc>
    <rc><c>Fe</c><c>   1</c></rc>
    <rc><c>Fe</c><c>   1</c></rc>
    <rc><c>Fe</c><c>   1</c></rc>
    <rc><c>Fe</c><c>   1</c></rc>
    <rc><c>Fe</c><c>   1</c></rc>
    <rc><c>Fe</c><c>   1</c></rc>
    <rc><c>Fe</c><c>   1</c></rc>
    <rc><c>Fe</c><c>   1</c></rc>
    <rc><c>Fe</c><c>   1</c></rc>
    <rc><c>Fe</c><c>   1</c></rc>
    <rc><c>Fe</c><c>   1</c></rc>
    <rc><c>Fe</c><c>   1</c></rc>
    <rc><c>Fe</c><c>   1</c></rc>
    <rc><c>Fe</c><c>   1</c></rc>
    <rc><c>Fe</c><c>   1</c></rc>
    <rc><c>Fe</c><c>   1</c></rc>
    <rc><c>Fe</c><c>   1</c></rc>
    <rc><c>Fe</c><c>   1</c></rc>
    <rc><c>Fe</c><c>   1</c></rc>
    <rc><c>Fe</c><c>   1</c></rc>
    <rc><c>Fe</c><c>   1</c></rc>
    <rc><c>Fe</c><c>   1</c></rc>
    <rc><c>Fe</c><c>   1</c></rc>
    <rc><c>Fe</c><c>   1</c></rc>
    <rc><c>Fe</c><c>   1</c></rc>
    <rc><c>Fe</c><c>   1</c></rc>
    <rc><c>Fe</c><c>   1</c></rc>
    <rc><c>Fe</c><c>   1</c></rc>
    <rc><c>Fe</c><c>   1</c></rc>
    <rc><c>Fe</c><c>   1</c></rc>
    <rc><c>Fe</c><c>   1</c></rc>
    <rc><c>Fe</c><c>   1</c></rc>
    <rc><c>Fe</c><c>   1</c></rc>
    <rc><c>Fe</c><c>   1</c></rc>
    <rc><c>Fe</c><c>   1</c></rc>
    <rc><c>Fe</c><c>   1</c></rc>
    <rc><c>Fe</c><c>   1</c></rc>
    <rc><c>Fe</c><c>   1</c></rc>
    <rc><c>Fe</c><c>   1</c></rc>
    <rc><c>Fe</c><c>   1</c></rc>
    <rc><c>Fe</c><c>   1</c></rc>
    <rc><c>Fe</c><c>   1</c></rc>
    <rc><c>Fe</c><c>   1</c></rc>
    <rc><c>Fe</c><c>   1</c></rc>
    <rc><c>Fe</c><c>   1</c></rc>
    <rc><c>Fe</c><c>   1</c></rc>
    <rc><c>Fe</c><c>   1</c></rc>
    <rc><c>Fe</c><c>   1</c></rc>
    <rc><c>Fe</c><c>   1</c></rc>
    <rc><c>Fe</c><c>   1</c></rc>
    <rc><c>Fe</c><c>   1</c></rc>
    <rc><c>Fe</c><c>   1</c></rc>
    <rc><c>Fe</c><c>   1</c></rc>
    <rc><c>Fe</c><c>   1</c></rc>
    <rc><c>Fe</c><c>   1</c></rc>
    <rc><c>Fe</c><c>   1</c></rc>
    <rc><c>Fe</c><c>   1</c></rc>
    <rc><c>Fe</c><c>   1</c></rc>
    <rc><c>Fe</c><c>   1</c></rc>
    <rc><c>Fe</c><c>   1</c></rc>
    <rc><c>Fe</c><c>   1</c></rc>
    <rc><c>Fe</c><c>   1</c></rc>
    <rc><c>Fe</c><c>   1</c></rc>
    <rc><c>Fe</c><c>   1</c></rc>
    <rc><c>Fe</c><c>   1</c></rc>
    <rc><c>Fe</c><c>   1</c></rc>
    <rc><c>Fe</c><c>   1</c></rc>
    <rc><c>Fe</c><c>   1</c></rc>
    <rc><c>Fe</c><c>   1</c></rc>
    <rc><c>Fe</c><c>   1</c></rc>
    <rc><c>Fe</c><c>   1</c></rc>
    <rc><c>Fe</c><c>   1</c></rc>
    <rc><c>Fe</c><c>   1</c></rc>
    <rc><c>Fe</c><c>   1</c></rc>
    <rc><c>Fe</c><c>   1</c></rc>
    <rc><c>Fe</c><c>   1</c></rc>
    <rc><c>Fe</c><c>   1</c></rc>
    <rc><c>Fe</c><c>   1</c></rc>
    <rc><c>Fe</c><c>   1</c></rc>
    <rc><c>Fe</c><c>   1</c></rc>
    <rc><c>Fe</c><c>   1</c></rc>
    <rc><c>Fe</c><c>   1</c></rc>
    <rc><c>Fe</c><c>   1</c></rc>
    <rc><c>Fe</c><c>   1</c></rc>
    <rc><c>Fe</c><c>   1</c></rc>
    <rc><c>Fe</c><c>   1</c></rc>
    <rc><c>Fe</c><c>   1</c></rc>
    <rc><c>Fe</c><c>   1</c></rc>
    <rc><c>Fe</c><c>   1</c></rc>
    <rc><c>Fe</c><c>   1</c></rc>
    <rc><c>Fe</c><c>   1</c></rc>
    <rc><c>Fe</c><c>   1</c></rc>
    <rc><c>Fe</c><c>   1</c></rc>
    <rc><c>Fe</c><c>   1</c></rc>
    <rc><c>Fe</c><c>   1</c></rc>
    <rc><c>Fe</c><c>   1</c></rc>
    <rc><c>Fe</c><c>   1</c></rc>
    <rc><c>Fe</c><c>   1</c></rc>
    <rc><c>Fe</c><c>   1</c></rc>
    <rc><c>Fe</c><c>   1</c></rc>
    <rc><c>Fe</c><c>   1</c></rc>
    <rc><c>Fe</c><c>   1</c></rc>
    <rc><c>Fe</c><c>   1</c></rc>
    <rc><c>Fe</c><c>   1</c></rc>
    <rc><c>Fe</c><c>   1</c></rc>
    <rc><c>Fe</c><c>   1</c></rc>
    <rc><c>Fe</c><c>   1</c></rc>
    <rc><c>Fe</c><c>   1</c></rc>
    <rc><c>Fe</c><c>   1</c></rc>
    <rc><c>Fe</c><c>   1</c></rc>
    <rc><c>Fe</c><c>   1</c></rc>
    <rc><c>Fe</c><c>   1</c></rc>
    <rc><c>Fe</c><c>   1</c></rc>
    <rc><c>Fe</c><c>   1</c></rc>
    <rc><c>Fe</c><c>   1</c></rc>
    <rc><c>Fe</c><c>   1</c></rc>
    <rc><c>Fe</c><c>   1</c></rc>
    <rc><c>Fe</c><c>   1</c></rc>
    <rc><c>Fe</c><c>   1</c></rc>
    <rc><c>Fe</c><c>   1</c></rc>
    <rc><c>Fe</c><c>   1</c></rc>
    <rc><c>Fe</c><c>   1</c></rc>
    <rc><c>Fe</c><c>   1</c></rc>
    <rc><c>Fe</c><c>   1</c></rc>
    <rc><c>Fe</c><c>   1</c></rc>
    <rc><c>Fe</c><c>   1</c></rc>
    <rc><c>Fe</c><c>   1</c></rc>
    <rc><c>Fe</c><c>   1</c></rc>
    <rc><c>Fe</c><c>   1</c></rc>
    <rc><c>Fe</c><c>   1</c></rc>
    <rc><c>Fe</c><c>   1</c></rc>
    <rc><c>Fe</c><c>   1</c></rc>
    <rc><c>Fe</c><c>   1</c></rc>
    <rc><c>Fe</c><c>   1</c></rc>
    <rc><c>Fe</c><c>   1</c></rc>
    <rc><c>Fe</c><c>   1</c></rc>
    <rc><c>Fe</c><c>   1</c></rc>
    <rc><c>Fe</c><c>   1</c></rc>
    <rc><c>Fe</c><c>   1</c></rc>
    <rc><c>Fe</c><c>   1</c></rc>
    <rc><c>Fe</c><c>   1</c></rc>
    <rc><c>Fe</c><c>   1</c></rc>
    <rc><c>Fe</c><c>   1</c></rc>
    <rc><c>Fe</c><c>   1</c></rc>
    <rc><c>Fe</c><c>   1</c></rc>
    <rc><c>Fe</c><c>   1</c></rc>
    <rc><c>Fe</c><c>   1</c></rc>
    <rc><c>Fe</c><c>   1</c></rc>
    <rc><c>Fe</c><c>   1</c></rc>
    <rc><c>Fe</c><c>   1</c></rc>
    <rc><c>Fe</c><c>   1</c></rc>
    <rc><c>Fe</c><c>   1</c></rc>
    <rc><c>Fe</c><c>   1</c></rc>
    <rc><c>Fe</c><c>   1</c></rc>
    <rc><c>Fe</c><c>   1</c></rc>
    <rc><c>Fe</c><c>   1</c></rc>
    <rc><c>Fe</c><c>   1</c></rc>
    <rc><c>Fe</c><c>   1</c></rc>
    <rc><c>Fe</c><c>   1</c></rc>
    <rc><c>Fe</c><c>   1</c></rc>
    <rc><c>Fe</c><c>   1</c></rc>
    <rc><c>Fe</c><c>   1</c></rc>
    <rc><c>Fe</c><c>   1</c></rc>
    <rc><c>Fe</c><c>   1</c></rc>
    <rc><c>Fe</c><c>   1</c></rc>
    <rc><c>Fe</c><c>   1</c></rc>
    <rc><c>Fe</c><c>   1</c></rc>
    <rc><c>Fe</c><c>   1</c></rc>
    <rc><c>Fe</c><c>   1</c></rc>
    <rc><c>Fe</c><c>   1</c></rc>
    <rc><c>Fe</c><c>   1</c></rc>
    <rc><c>Fe</c><c>   1</c></rc>
    <rc><c>Fe</c><c>   1</c></rc>
    <rc><c>Fe</c><c>   1</c></rc>
    <rc><c>Fe</c><c>   1</c></rc>
    <rc><c>Fe</c><c>   1</c></rc>
    <rc><c>Fe</c><c>   1</c></rc>
    <rc><c>Fe</c><c>   1</c></rc>
    <rc><c>Fe</c><c>   1</c></rc>
    <rc><c>Fe</c><c>   1</c></rc>
    <rc><c>Fe</c><c>   1</c></rc>
    <rc><c>Fe</c><c>   1</c></rc>
    <rc><c>Fe</c><c>   1</c></rc>
    <rc><c>Fe</c><c>   1</c></rc>
    <rc><c>Fe</c><c>   1</c></rc>
    <rc><c>Fe</c><c>   1</c></rc>
    <rc><c>Fe</c><c>   1</c></rc>
    <rc><c>Fe</c><c>   1</c></rc>
    <rc><c>Fe</c><c>   1</c></rc>
    <rc><c>Fe</c><c>   1</c></rc>
    <rc><c>Fe</c><c>   1</c></rc>
    <rc><c>Fe</c><c>   1</c></rc>
    <rc><c>Fe</c><c>   1</c></rc>
    <rc><c>Fe</c><c>   1</c></rc>
    <rc><c>Fe</c><c>   1</c></rc>
    <rc><c>Fe</c><c>   1</c></rc>
    <rc><c>Fe</c><c>   1</c></rc>
    <rc><c>Fe</c><c>   1</c></rc>
    <rc><c>Fe</c><c>   1</c></rc>
    <rc><c>Fe</c><c>   1</c></rc>
    <rc><c>Fe</c><c>   1</c></rc>
    <rc><c>Fe</c><c>   1</c></rc>
    <rc><c>Fe</c><c>   1</c></rc>
    <rc><c>Fe</c><c>   1</c></rc>
    <rc><c>Fe</c><c>   1</c></rc>
    <rc><c>Fe</c><c>   1</c></rc>
    <rc><c>Fe</c><c>   1</c></rc>
    <rc><c>Fe</c><c>   1</c></rc>
    <rc><c>Fe</c><c>   1</c></rc>
    <rc><c>Fe</c><c>   1</c></rc>
    <rc><c>Fe</c><c>   1</c></rc>
    <rc><c>Fe</c><c>   1</c></rc>
    <rc><c>Fe</c><c>   1</c></rc>
    <rc><c>Fe</c><c>   1</c></rc>
    <rc><c>Fe</c><c>   1</c></rc>
    <rc><c>Fe</c><c>   1</c></rc>
    <rc><c>Fe</c><c>   1</c></rc>
    <rc><c>Fe</c><c>   1</c></rc>
    <rc><c>Fe</c><c>   1</c></rc>
    <rc><c>Fe</c><c>   1</c></rc>
    <rc><c>Fe</c><c>   1</c></rc>
    <rc><c>Fe</c><c>   1</c></rc>
    <rc><c>Fe</c><c>   1</c></rc>
    <rc><c>Fe</c><c>   1</c></rc>
    <rc><c>Fe</c><c>   1</c></rc>
    <rc><c>Fe</c><c>   1</c></rc>
    <rc><c>Fe</c><c>   1</c></rc>
    <rc><c>Fe</c><c>   1</c></rc>
    <rc><c>Fe</c><c>   1</c></rc>
    <rc><c>Fe</c><c>   1</c></rc>
    <rc><c>Fe</c><c>   1</c></rc>
    <rc><c>Fe</c><c>   1</c></rc>
    <rc><c>Fe</c><c>   1</c></rc>
    <rc><c>Fe</c><c>   1</c></rc>
    <rc><c>Fe</c><c>   1</c></rc>
    <rc><c>Mn</c><c>   2</c></rc>
    <rc><c>Mn</c><c>   2</c></rc>
    <rc><c>Mn</c><c>   2</c></rc>
    <rc><c>Mn</c><c>   2</c></rc>
    <rc><c>Mn</c><c>   2</c></rc>
    <rc><c>Mn</c><c>   2</c></rc>
    <rc><c>Mn</c><c>   2</c></rc>
    <rc><c>Mn</c><c>   2</c></rc>
    <rc><c>Mn</c><c>   2</c></rc>
    <rc><c>Mn</c><c>   2</c></rc>
    <rc><c>Mn</c><c>   2</c></rc>
    <rc><c>Mn</c><c>   2</c></rc>
    <rc><c>Mn</c><c>   2</c></rc>
    <rc><c>Mn</c><c>   2</c></rc>
   </set>
  </array>
  <array name="atomtypes" >
   <dimension dim="1">type</dimension>
   <field type="int">atomspertype</field>
   <field type="string">element</field>
   <field>mass</field>
   <field>valence</field>
   <field type="string">pseudopotential</field>
   <set>
    <rc><c> 274</c><c>Fe</c><c>     55.84700000</c><c>      8.00000000</c><c>  PAW_PBE Fe_GW 31Mar2010               </c></rc>
    <rc><c>  14</c><c>Mn</c><c>     54.93800000</c><c>      7.00000000</c><c>  PAW_PBE Mn_GW 31Mar2010               </c></rc>
   </set>
  </array>
 </atominfo>
 <structure name="initialpos" >
  <crystal>
   <varray name="basis" >
    <v>       9.72667804       0.00000000       0.00000000 </v>
    <v>       0.00000000       8.42355028       0.00000000 </v>
    <v>       0.00000000       0.00000000      45.00000000 </v>
   </varray>
   <i name="volume">   3686.99226691 </i>
   <varray name="rec_basis" >
    <v>       0.10281002       0.00000000       0.00000000 </v>
    <v>       0.00000000       0.11871479       0.00000000 </v>
    <v>       0.00000000       0.00000000       0.02222222 </v>
   </varray>
  </crystal>
  <varray name="positions" >
   <v>       0.06264768       0.03028291       0.12415528 </v>
   <v>       0.31619435       0.87476214       0.65509964 </v>
   <v>       0.18325953       0.12256468       0.78861637 </v>
   <v>       0.44161866       0.28767496       0.38908239 </v>
   <v>       0.31667672       0.71322824       0.83296065 </v>
   <v>       0.81740968       0.21471172       0.83379738 </v>
   <v>       0.19113079       0.96359361       0.83363239 </v>
   <v>       0.56221246       0.20698307       0.56553532 </v>
   <v>       0.06545022       0.04026121       0.74422068 </v>
   <v>       0.81165837       0.87138205       0.52141300 </v>
   <v>       0.19038972       0.29119976       0.74429451 </v>
   <v>       0.93333328       0.45214338       0.34480850 </v>
   <v>       0.94099792       0.28657074       0.38891790 </v>
   <v>       0.81354551       0.04213644       0.87561587 </v>
   <v>       0.18374155       0.78799402       0.61093081 </v>
   <v>       0.56657683       0.03781396       0.38903718 </v>
   <v>       0.94276342       0.96428218       0.83407323 </v>
   <v>       0.31337889       0.54066031       0.87609329 </v>
   <v>       0.69046572       0.29128568       0.74419596 </v>
   <v>       0.18229042       0.61362810       0.16675748 </v>
   <v>       0.81222725       0.20583976       0.47868467 </v>
   <v>       0.80888540       0.53832066       0.61103958 </v>
   <v>       0.31207283       0.87052280       0.43445677 </v>
   <v>       0.80934307       0.03762999       0.25588194 </v>
   <v>       0.68282452       0.95210103       0.34477191 </v>
   <v>       0.93121754       0.11442001       0.16688158 </v>
   <v>       0.06189270       0.87165861       0.52145361 </v>
   <v>       0.55832044       0.53755848       0.25558893 </v>
   <v>       0.68407611       0.79654081       0.87582349 </v>
   <v>       0.55640214       0.36492019       0.16658127 </v>
   <v>       0.43959622       0.79219805       0.74454896 </v>
   <v>       0.81144288       0.70660144       0.56547844 </v>
   <v>       0.55963250       0.87407931       0.78853582 </v>
   <v>       0.68698036       0.12175649       0.52146038 </v>
   <v>       0.81603994       0.37514331       0.65505117 </v>
   <v>       0.94205376       0.46394223       0.83378713 </v>
   <v>       0.06057794       0.20779576       0.69972822 </v>
   <v>       0.43537787       0.95809230       0.69968928 </v>
   <v>       0.31688243       0.21251095       0.83350835 </v>
   <v>       0.44106618       0.62495357       0.65509243 </v>
   <v>       0.30888257       0.53817192       0.61095814 </v>
   <v>       0.93652721       0.45635326       0.56562218 </v>
   <v>       0.68957939       0.79205902       0.74438456 </v>
   <v>       0.93472853       0.78817340       0.12440968 </v>
   <v>       0.69159852       0.78774287       0.38906265 </v>
   <v>       0.93969568       0.79121092       0.74464952 </v>
   <v>       0.05866853       0.20267962       0.34495950 </v>
   <v>       0.68359728       0.45240267       0.34495836 </v>
   <v>       0.43481959       0.12236996       0.78887118 </v>
   <v>       0.06546448       0.20381245       0.21108847 </v>
   <v>       0.05541827       0.36525409       0.16668546 </v>
   <v>       0.93339570       0.78749277       0.25570452 </v>
   <v>       0.56079746       0.20759160       0.69976224 </v>
   <v>       0.68524991       0.95737708       0.69973925 </v>
   <v>       0.80906477       0.87337904       0.78833929 </v>
   <v>       0.43643971       0.95729293       0.56540081 </v>
   <v>       0.80918889       0.37536422       0.78857801 </v>
   <v>       0.68388087       0.28737614       0.25581392 </v>
   <v>       0.18721373       0.45702205       0.56551729 </v>
   <v>       0.05676261       0.86517885       0.16669667 </v>
   <v>       0.18415692       0.28859475       0.61108203 </v>
   <v>       0.06210954       0.20725974       0.56540870 </v>
   <v>       0.31062692       0.20746623       0.69989487 </v>
   <v>       0.56264938       0.54109913       0.87589906 </v>
   <v>       0.06207758       0.70645176       0.56558007 </v>
   <v>       0.68408885       0.62240722       0.78830511 </v>
   <v>       0.31592908       0.53818588       0.38893181 </v>
   <v>       0.18691826       0.62152214       0.52144495 </v>
   <v>       0.56237367       0.87051072       0.43439075 </v>
   <v>       0.43641161       0.45684130       0.56555310 </v>
   <v>       0.43943348       0.29168836       0.74433414 </v>
   <v>       0.82092402       0.87360152       0.30018844 </v>
   <v>       0.80862001       0.70253953       0.34491610 </v>
   <v>       0.44256273       0.46310150       0.83332749 </v>
   <v>       0.68758475       0.95592860       0.47872725 </v>
   <v>       0.68524526       0.45808668       0.69969597 </v>
   <v>       0.56210509       0.87231060       0.52148074 </v>
   <v>       0.56602038       0.37426914       0.65502654 </v>
   <v>       0.81619210       0.87476246       0.65514005 </v>
   <v>       0.81178383       0.37139167       0.43421234 </v>
   <v>       0.80853251       0.53720607       0.25588875 </v>
   <v>       0.69216680       0.46264506       0.83334019 </v>
   <v>       0.18608513       0.78791316       0.12414812 </v>
   <v>       0.69143208       0.28726392       0.38905741 </v>
   <v>       0.31591267       0.37413548       0.65501940 </v>
   <v>       0.30902202       0.20257484       0.34476637 </v>
   <v>       0.81561778       0.54032102       0.74435811 </v>
   <v>       0.69135591       0.96269585       0.83359577 </v>
   <v>       0.56611082       0.87457701       0.65490821 </v>
   <v>       0.31139347       0.70678806       0.56548940 </v>
   <v>       0.31181119       0.53013628       0.12410586 </v>
   <v>       0.69065881       0.95487133       0.21178256 </v>
   <v>       0.31138865       0.20638545       0.56549408 </v>
   <v>       0.18750893       0.95574365       0.47871239 </v>
   <v>       0.68739750       0.95675630       0.56554718 </v>
   <v>       0.43390148       0.78837768       0.61100111 </v>
   <v>       0.68232227       0.61214112       0.16616660 </v>
   <v>       0.31914294       0.87379140       0.30015331 </v>
   <v>       0.31221117       0.70588140       0.47863648 </v>
   <v>       0.93382047       0.28816943       0.61094363 </v>
   <v>       0.44627109       0.62354093       0.30013082 </v>
   <v>       0.80735119       0.86314110       0.16679408 </v>
   <v>       0.56639123       0.20314965       0.21145893 </v>
   <v>       0.93267256       0.61292436       0.16666105 </v>
   <v>       0.43725438       0.95582961       0.47866646 </v>
   <v>       0.55922278       0.37419692       0.78868212 </v>
   <v>       0.06159272       0.37225218       0.52139415 </v>
   <v>       0.30699240       0.36372045       0.16665138 </v>
   <v>       0.69547005       0.12315059       0.30027115 </v>
   <v>       0.44301608       0.96365506       0.83347011 </v>
   <v>       0.18495008       0.28677691       0.12419071 </v>
   <v>       0.18385306       0.28800644       0.25583937 </v>
   <v>       0.31240557       0.37059628       0.43445479 </v>
   <v>       0.56259504       0.03206590       0.12436527 </v>
   <v>       0.43402282       0.28843908       0.61098272 </v>
   <v>       0.18365390       0.45254996       0.34489367 </v>
   <v>       0.43419991       0.28642544       0.12422040 </v>
   <v>       0.68306056       0.78804746       0.25582112 </v>
   <v>       0.43694599       0.12164948       0.52144743 </v>
   <v>       0.18846449       0.29749011       0.87628938 </v>
   <v>       0.19108196       0.12487540       0.65504116 </v>
   <v>       0.94132003       0.12481282       0.65493156 </v>
   <v>       0.81631699       0.53760817       0.38897877 </v>
   <v>       0.06663803       0.03809388       0.38916026 </v>
   <v>       0.18319017       0.11222690       0.16649826 </v>
   <v>       0.05871970       0.53825595       0.61101348 </v>
   <v>       0.93368233       0.28756605       0.25582675 </v>
   <v>       0.55892958       0.53816467       0.61099425 </v>
   <v>       0.93639992       0.95708804       0.56549029 </v>
   <v>       0.69469207       0.62404451       0.30005577 </v>
   <v>       0.93744542       0.62028178       0.43441912 </v>
   <v>       0.93341466       0.62373312       0.78838370 </v>
   <v>       0.56060915       0.70760592       0.69968747 </v>
   <v>       0.06632649       0.71625694       0.83377332 </v>
   <v>       0.94529771       0.12270941       0.30007904 </v>
   <v>       0.93373974       0.78773463       0.61092064 </v>
   <v>       0.43294602       0.78746061       0.25560283 </v>
   <v>       0.30951304       0.37451319       0.78869353 </v>
   <v>       0.44013646       0.45332007       0.21122371 </v>
   <v>       0.18686733       0.12202265       0.52139974 </v>
   <v>       0.81049639       0.70744692       0.69973578 </v>
   <v>       0.05885774       0.03834259       0.61094410 </v>
   <v>       0.56628227       0.21288668       0.83350866 </v>
   <v>       0.31180758       0.87179849       0.52145743 </v>
   <v>       0.68653861       0.28632332       0.12396086 </v>
   <v>       0.19029841       0.95490146       0.21171723 </v>
   <v>       0.68379502       0.28848806       0.61101254 </v>
   <v>       0.30897332       0.03854964       0.61109174 </v>
   <v>       0.93487769       0.12391923       0.78853081 </v>
   <v>       0.43837803       0.79520754       0.87586241 </v>
   <v>       0.81551393       0.04133931       0.74416153 </v>
   <v>       0.93536907       0.45811071       0.69964552 </v>
   <v>       0.19123072       0.62508935       0.65521383 </v>
   <v>       0.31043002       0.70698767       0.69981377 </v>
   <v>       0.93418260       0.28706079       0.12408899 </v>
   <v>       0.43739830       0.45603880       0.47858271 </v>
   <v>       0.06228838       0.70583582       0.47859549 </v>
   <v>       0.93691293       0.11975402       0.43461611 </v>
   <v>       0.44439056       0.12305037       0.30025598 </v>
   <v>       0.18692977       0.12011291       0.43428219 </v>
   <v>       0.31541730       0.70381020       0.21161747 </v>
   <v>       0.18670685       0.95691606       0.56554500 </v>
   <v>       0.68451811       0.78764202       0.12448006 </v>
   <v>       0.55893525       0.70243211       0.34486566 </v>
   <v>       0.31639529       0.03736332       0.38878784 </v>
   <v>       0.68247723       0.11378725       0.16676287 </v>
   <v>       0.81596300       0.20333428       0.21130014 </v>
   <v>       0.05947779       0.53704843       0.25556892 </v>
   <v>       0.56243951       0.70571300       0.47869591 </v>
   <v>       0.43515852       0.78709903       0.12425121 </v>
   <v>       0.56978588       0.37209300       0.30014692 </v>
   <v>       0.43366986       0.95245225       0.34491755 </v>
   <v>       0.18538823       0.95760478       0.69976137 </v>
   <v>       0.43157354       0.61293015       0.16623488 </v>
   <v>       0.94022911       0.45450084       0.21173979 </v>
   <v>       0.06189600       0.53015750       0.12412617 </v>
   <v>       0.81197342       0.37220694       0.52137855 </v>
   <v>       0.94485777       0.62364999       0.29984123 </v>
   <v>       0.30894114       0.03728957       0.25578467 </v>
   <v>       0.68368044       0.78781274       0.61091249 </v>
   <v>       0.19165753       0.46332938       0.83351664 </v>
   <v>       0.43304795       0.11227085       0.16654121 </v>
   <v>       0.31179784       0.37194915       0.52141173 </v>
   <v>       0.43290403       0.62239177       0.78874766 </v>
   <v>       0.05879472       0.03740011       0.25560711 </v>
   <v>       0.56238549       0.70711457       0.56554739 </v>
   <v>       0.93928034       0.29098472       0.74432038 </v>
   <v>       0.68232469       0.12252638       0.78855684 </v>
   <v>       0.19004552       0.45365396       0.21126162 </v>
   <v>       0.94120210       0.78785748       0.38885812 </v>
   <v>       0.68611759       0.29832760       0.87606581 </v>
   <v>       0.55665641       0.86224521       0.16647703 </v>
   <v>       0.43547692       0.45803508       0.69968463 </v>
   <v>       0.93393687       0.95138815       0.34477399 </v>
   <v>       0.68661783       0.62150827       0.52134816 </v>
   <v>       0.06640718       0.87477913       0.65493057 </v>
   <v>       0.05916470       0.87449653       0.78852376 </v>
   <v>       0.06600551       0.37402406       0.65500108 </v>
   <v>       0.68712435       0.45581035       0.47864641 </v>
   <v>       0.18366629       0.78729461       0.25552575 </v>
   <v>       0.43686621       0.12084233       0.43438959 </v>
   <v>       0.81357858       0.03121329       0.12410387 </v>
   <v>       0.93675174       0.62199553       0.52142179 </v>
   <v>       0.44132527       0.12456123       0.65495341 </v>
   <v>       0.81323871       0.52991760       0.12410460 </v>
   <v>       0.43354487       0.45247310       0.34497934 </v>
   <v>       0.80883702       0.20223808       0.34489019 </v>
   <v>       0.30881379       0.70144710       0.34480013 </v>
   <v>       0.69107465       0.12494335       0.65502746 </v>
   <v>       0.56939206       0.87403358       0.30018157 </v>
   <v>       0.06528324       0.54101246       0.74428790 </v>
   <v>       0.94054797       0.95387138       0.21129131 </v>
   <v>       0.81657614       0.70350882       0.21147619 </v>
   <v>       0.07059286       0.87307957       0.30007646 </v>
   <v>       0.19503842       0.12379066       0.30006588 </v>
   <v>       0.05856362       0.70232798       0.34490187 </v>
   <v>       0.80913026       0.03838486       0.61105065 </v>
   <v>       0.06270185       0.37194154       0.43431192 </v>
   <v>       0.55871282       0.20250182       0.34474789 </v>
   <v>       0.81996603       0.37403516       0.30011510 </v>
   <v>       0.55967203       0.03763728       0.25546578 </v>
   <v>       0.56632608       0.53768355       0.38902958 </v>
   <v>       0.06243854       0.20592346       0.47867859 </v>
   <v>       0.30975668       0.87235288       0.78830843 </v>
   <v>       0.93521415       0.95813518       0.69967194 </v>
   <v>       0.06948466       0.37424673       0.30001594 </v>
   <v>       0.69115871       0.62494887       0.65519279 </v>
   <v>       0.68657195       0.45713252       0.56544154 </v>
   <v>       0.44138208       0.95501040       0.21193560 </v>
   <v>       0.31232303       0.20568645       0.47869285 </v>
   <v>       0.81268972       0.54037228       0.87595638 </v>
   <v>       0.68791552       0.62051840       0.43443663 </v>
   <v>       0.81070821       0.20772075       0.69993191 </v>
   <v>       0.81242808       0.70578314       0.47865580 </v>
   <v>       0.81162352       0.87128097       0.43425832 </v>
   <v>       0.93729027       0.95521276       0.47873536 </v>
   <v>       0.56229357       0.20566227       0.47865841 </v>
   <v>       0.18722364       0.61991099       0.43445443 </v>
   <v>       0.31501203       0.04167802       0.74403802 </v>
   <v>       0.94115324       0.62513635       0.65497951 </v>
   <v>       0.56596457       0.71433261       0.83340186 </v>
   <v>       0.32014888       0.37269056       0.30003936 </v>
   <v>       0.31504457       0.54151484       0.74423413 </v>
   <v>       0.18738883       0.45567723       0.47865089 </v>
   <v>       0.31417219       0.04268863       0.87573864 </v>
   <v>       0.18527787       0.45804036       0.69968532 </v>
   <v>       0.56188311       0.37196864       0.52141209 </v>
   <v>       0.19120736       0.28752378       0.38887035 </v>
   <v>       0.31572245       0.20352077       0.21125914 </v>
   <v>       0.06675334       0.70320257       0.21121551 </v>
   <v>       0.56187631       0.37095835       0.43436738 </v>
   <v>       0.43665771       0.62202604       0.52137149 </v>
   <v>       0.81730650       0.71563075       0.83308178 </v>
   <v>       0.05916180       0.37427391       0.78858169 </v>
   <v>       0.43569096       0.29723436       0.87643600 </v>
   <v>       0.31166579       0.03031185       0.12414267 </v>
   <v>       0.68760916       0.11990948       0.43439312 </v>
   <v>       0.18378340       0.95200693       0.34492762 </v>
   <v>       0.06667935       0.21490090       0.83399890 </v>
   <v>       0.55921770       0.03841530       0.61108054 </v>
   <v>       0.68929816       0.45459934       0.21174120 </v>
   <v>       0.18931831       0.79192393       0.74448629 </v>
   <v>       0.19552858       0.62282571       0.30018897 </v>
   <v>       0.44139020       0.78773866       0.38909448 </v>
   <v>       0.43285614       0.28774465       0.25567763 </v>
   <v>       0.06389434       0.54125593       0.87587715 </v>
   <v>       0.56529750       0.04131213       0.74420390 </v>
   <v>       0.18825669       0.79538464       0.87585707 </v>
   <v>       0.93740744       0.45571444       0.47864708 </v>
   <v>       0.56516921       0.54147245       0.74424293 </v>
   <v>       0.81117501       0.20699391       0.56547544 </v>
   <v>       0.18501680       0.62252207       0.78849718 </v>
   <v>       0.06717567       0.53880794       0.38914119 </v>
   <v>       0.06043943       0.70782262       0.69964076 </v>
   <v>       0.30828614       0.53707946       0.25573312 </v>
   <v>       0.56306572       0.03927145       0.87598532 </v>
   <v>       0.30572310       0.86458984       0.16605435 </v>
   <v>       0.43677319       0.62098188       0.43441455 </v>
   <v>       0.81813029       0.03904781       0.38902012 </v>
   <v>       0.93505531       0.29854217       0.87573920 </v>
   <v>       0.93747000       0.79475375       0.87546076 </v>
   <v>       0.06546124       0.03939903       0.87589899 </v>
   <v>       0.56219897       0.52927876       0.12449415 </v>
   <v>       0.80539957       0.36564062       0.16590844 </v>
   <v>       0.06202194       0.87158882       0.43443927 </v>
   <v>       0.93658109       0.12191387       0.52156916 </v>
   <v>       0.19332468       0.78774324       0.38874416 </v>
   <v>       0.56593595       0.70366606       0.21202479 </v>
  </varray>
 </structure>
 <calculation>
  <scstep>
   <time name="dav">   54.66   54.67</time>
   <time name="total">   54.82   54.86</time>
   <energy>
    <i name="alphaZ">  16293.21160653 </i>
    <i name="ewald"> 730531.12273216 </i>
    <i name="hartreedc">-921044.28135866 </i>
    <i name="XCdc">  -6512.56462174 </i>
    <i name="pawpsdc"> 162273.92519768 </i>
    <i name="pawaedc">-159623.75899949 </i>
    <i name="eentropy">     -1.06800450 </i>
    <i name="bandstr">  38488.34474683 </i>
    <i name="atom"> 168671.76673737 </i>
    <i name="e_fr_energy">  29076.69803618 </i>
    <i name="e_wo_entrp">  29077.76604067 </i>
    <i name="e_0_energy">  29077.23203842 </i>
   </energy>
  </scstep>
  <scstep>
   <time name="dav">   54.09   54.11</time>
   <time name="total">   54.10   54.11</time>
   <energy>
    <i name="e_fr_energy">   1188.75563402 </i>
    <i name="e_wo_entrp">   1190.25885500 </i>
    <i name="e_0_energy">   1189.50724451 </i>
   </energy>
  </scstep>
  <scstep>
   <time name="dav">   70.87   70.90</time>
   <time name="total">   70.87   70.91</time>
   <energy>
    <i name="e_fr_energy">  -1948.06196250 </i>
    <i name="e_wo_entrp">  -1944.51653535 </i>
    <i name="e_0_energy">  -1946.28924892 </i>
   </energy>
  </scstep>
  <scstep>
   <time name="dav">   88.98   89.02</time>
   <time name="total">   88.99   89.03</time>
   <energy>
    <i name="e_fr_energy">  -2618.26635390 </i>
    <i name="e_wo_entrp">  -2614.73509092 </i>
    <i name="e_0_energy">  -2616.50072241 </i>
   </energy>
  </scstep>
  <scstep>
   <time name="dav">   84.99   85.03</time>
   <time name="total">   87.02   87.07</time>
   <energy>
    <i name="e_fr_energy">  -2738.11048159 </i>
    <i name="e_wo_entrp">  -2734.45648108 </i>
    <i name="e_0_energy">  -2736.28348134 </i>
   </energy>
  </scstep>
  <scstep>
   <time name="diag">    8.28    8.28</time>
   <time name="diis">   37.19   37.20</time>
   <time name="orth">    2.29    2.29</time>
   <time name="total">   49.96   50.00</time>
   <energy>
    <i name="e_fr_energy">  -5326.65521608 </i>
    <i name="e_wo_entrp">  -5324.16692227 </i>
    <i name="e_0_energy">  -5325.41106918 </i>
   </energy>
  </scstep>
  <scstep>
   <time name="diag">    8.34    8.34</time>
   <time name="diis">   22.33   22.33</time>
   <time name="orth">    2.31    2.31</time>
   <time name="total">   34.99   35.03</time>
[...]
       <r>     5.9119     0.0000  2772.0000 </r>
       <r>     5.9548     0.0000  2772.0000 </r>
       <r>     5.9978     0.0000  2772.0000 </r>
       <r>     6.0407     0.0000  2772.0000 </r>
       <r>     6.0837     0.0000  2772.0000 </r>
       <r>     6.1266     0.0000  2772.0000 </r>
       <r>     6.1696     0.0000  2772.0000 </r>
       <r>     6.2125     0.0000  2772.0000 </r>
       <r>     6.2555     0.0000  2772.0000 </r>
       <r>     6.2984     0.0000  2772.0000 </r>
       <r>     6.3414     0.0000  2772.0000 </r>
       <r>     6.3843     0.0000  2772.0000 </r>
       <r>     6.4273     0.0000  2772.0000 </r>
       <r>     6.4702     0.0000  2772.0000 </r>
       <r>     6.5132     0.0000  2772.0000 </r>
       <r>     6.5561     0.0000  2772.0000 </r>
       <r>     6.5991     0.0000  2772.0000 </r>
       <r>     6.6420     0.0000  2772.0000 </r>
       <r>     6.6850     0.0000  2772.0000 </r>
       <r>     6.7279     0.0000  2772.0000 </r>
       <r>     6.7709     0.0000  2772.0000 </r>
       <r>     6.8139     0.0000  2772.0000 </r>
       <r>     6.8568     0.0000  2772.0000 </r>
      </set>
     </set>
    </array>
   </total>
  </dos>
 </calculation>
 <structure name="finalpos" >
  <crystal>
   <varray name="basis" >
    <v>       9.72667804       0.00000000       0.00000000 </v>
    <v>       0.00000000       8.42355028       0.00000000 </v>
    <v>       0.00000000       0.00000000      45.00000000 </v>
   </varray>
   <i name="volume">   3686.99226691 </i>
   <varray name="rec_basis" >
    <v>       0.10281002       0.00000000       0.00000000 </v>
    <v>       0.00000000       0.11871479       0.00000000 </v>
    <v>       0.00000000       0.00000000       0.02222222 </v>
   </varray>
  </crystal>
  <varray name="positions" >
   <v>       0.06235449       0.02980189       0.12407031 </v>
   <v>       0.31625089       0.87474054       0.65480346 </v>
   <v>       0.18397341       0.12307883       0.78871353 </v>
   <v>       0.44132605       0.28783407       0.38911191 </v>
   <v>       0.31720654       0.71228811       0.83336913 </v>
   <v>       0.81607439       0.21524968       0.83419075 </v>
   <v>       0.19223049       0.96387586       0.83397477 </v>
   <v>       0.56189460       0.20662310       0.56574283 </v>
   <v>       0.06560890       0.04059041       0.74411737 </v>
   <v>       0.81190764       0.87166155       0.52149375 </v>
   <v>       0.19061235       0.29089723       0.74422496 </v>
   <v>       0.93368431       0.45207355       0.34475686 </v>
   <v>       0.94101409       0.28684338       0.38892120 </v>
   <v>       0.81263542       0.04261807       0.87607350 </v>
   <v>       0.18409775       0.78816845       0.61077247 </v>
   <v>       0.56636551       0.03818433       0.38907622 </v>
   <v>       0.94251362       0.96449178       0.83435897 </v>
   <v>       0.31400642       0.54067058       0.87623549 </v>
   <v>       0.68979228       0.29116778       0.74405583 </v>
   <v>       0.18232597       0.61388380       0.16661706 </v>
   <v>       0.81241530       0.20576075       0.47857875 </v>
   <v>       0.80915897       0.53849643       0.61096356 </v>
   <v>       0.31230877       0.87079400       0.43440043 </v>
   <v>       0.80893806       0.03824988       0.25602245 </v>
   <v>       0.68342890       0.95273372       0.34462870 </v>
   <v>       0.93122628       0.11423950       0.16665806 </v>
   <v>       0.06203620       0.87201969       0.52158088 </v>
   <v>       0.55867665       0.53695547       0.25563409 </v>
   <v>       0.68359289       0.79603982       0.87611569 </v>
   <v>       0.55642222       0.36449949       0.16666265 </v>
   <v>       0.43962107       0.79239276       0.74426558 </v>
   <v>       0.81176375       0.70681042       0.56568720 </v>
   <v>       0.55936250       0.87385529       0.78860793 </v>
   <v>       0.68709100       0.12166179       0.52150123 </v>
   <v>       0.81576654       0.37504668       0.65482174 </v>
   <v>       0.94168481       0.46396615       0.83408781 </v>
   <v>       0.06080061       0.20762364       0.69933426 </v>
   <v>       0.43574166       0.95789844       0.69929838 </v>
   <v>       0.31735795       0.21307953       0.83388383 </v>
   <v>       0.44092487       0.62518804       0.65483780 </v>
   <v>       0.30878003       0.53865802       0.61081504 </v>
   <v>       0.93714261       0.45615015       0.56585598 </v>
   <v>       0.68905031       0.79205119       0.74411209 </v>
   <v>       0.93492288       0.78810692       0.12432288 </v>
   <v>       0.69174325       0.78775355       0.38906624 </v>
   <v>       0.93938414       0.79129251       0.74443673 </v>
   <v>       0.05869692       0.20274588       0.34484611 </v>
   <v>       0.68395407       0.45202117       0.34483354 </v>
   <v>       0.43463501       0.12315732       0.78901123 </v>
   <v>       0.06557072       0.20389558       0.21113320 </v>
   <v>       0.05557236       0.36574609       0.16653282 </v>
   <v>       0.93324477       0.78754652       0.25582212 </v>
   <v>       0.56064741       0.20738045       0.69940546 </v>
   <v>       0.68476808       0.95728336       0.69933485 </v>
   <v>       0.80899735       0.87343643       0.78835699 </v>
   <v>       0.43588420       0.95692483       0.56569145 </v>
   <v>       0.80877296       0.37502640       0.78871120 </v>
   <v>       0.68385127       0.28715024       0.25592635 </v>
   <v>       0.18708743       0.45688230       0.56583868 </v>
   <v>       0.05686630       0.86505719       0.16648149 </v>
   <v>       0.18426534       0.28853232       0.61088250 </v>
   <v>       0.06240126       0.20699006       0.56570046 </v>
   <v>       0.31127674       0.20725081       0.69951594 </v>
   <v>       0.56235761       0.54132543       0.87598056 </v>
   <v>       0.06243169       0.70663233       0.56585750 </v>
   <v>       0.68370003       0.62214445       0.78853953 </v>
   <v>       0.31532383       0.53836065       0.38892606 </v>
   <v>       0.18687104       0.62164566       0.52160839 </v>
   <v>       0.56209064       0.87095508       0.43445879 </v>
   <v>       0.43577676       0.45707448       0.56584907 </v>
   <v>       0.43962404       0.29152293       0.74418483 </v>
   <v>       0.82056034       0.87415687       0.30027897 </v>
   <v>       0.80917087       0.70252813       0.34484182 </v>
   <v>       0.44259803       0.46281762       0.83373218 </v>
   <v>       0.68759499       0.95610711       0.47861288 </v>
   <v>       0.68484492       0.45817650       0.69932905 </v>
   <v>       0.56191358       0.87246684       0.52157592 </v>
   <v>       0.56575521       0.37428857       0.65483395 </v>
   <v>       0.81585252       0.87474113       0.65488568 </v>
   <v>       0.81217258       0.37128261       0.43423480 </v>
   <v>       0.80832999       0.53645796       0.25598952 </v>
   <v>       0.69078827       0.46253727       0.83375011 </v>
   <v>       0.18578273       0.78772408       0.12405374 </v>
   <v>       0.69145792       0.28735735       0.38901979 </v>
   <v>       0.31583210       0.37417983       0.65474163 </v>
   <v>       0.30907226       0.20287079       0.34470679 </v>
   <v>       0.81498211       0.54038619       0.74416870 </v>
   <v>       0.69055508       0.96268453       0.83407501 </v>
   <v>       0.56568668       0.87449558       0.65472665 </v>
   <v>       0.31113654       0.70700029       0.56585704 </v>
   <v>       0.31123587       0.53108033       0.12406283 </v>
   <v>       0.68958616       0.95506989       0.21175579 </v>
   <v>       0.31074026       0.20614846       0.56577342 </v>
   <v>       0.18756533       0.95615685       0.47869913 </v>
   <v>       0.68742680       0.95660312       0.56577264 </v>
   <v>       0.43357020       0.78840882       0.61090222 </v>
   <v>       0.68227285       0.61271179       0.16623643 </v>
   <v>       0.31895066       0.87366265       0.30025626 </v>
   <v>       0.31209975       0.70608566       0.47858455 </v>
   <v>       0.93440330       0.28809800       0.61077955 </v>
   <v>       0.44584472       0.62317611       0.30022281 </v>
   <v>       0.80721576       0.86338048       0.16660594 </v>
   <v>       0.56594648       0.20284535       0.21151261 </v>
   <v>       0.93300819       0.61331773       0.16647499 </v>
   <v>       0.43724493       0.95618262       0.47854121 </v>
   <v>       0.55908774       0.37411790       0.78893835 </v>
   <v>       0.06169095       0.37199297       0.52153885 </v>
   <v>       0.30744433       0.36390953       0.16663130 </v>
   <v>       0.69523143       0.12352203       0.30027683 </v>
   <v>       0.44265562       0.96370554       0.83390890 </v>
   <v>       0.18483158       0.28636463       0.12416349 </v>
   <v>       0.18425152       0.28768792       0.25595755 </v>
   <v>       0.31224079       0.37043002       0.43441315 </v>
   <v>       0.56251507       0.03201619       0.12429304 </v>
   <v>       0.43371073       0.28843612       0.61090354 </v>
   <v>       0.18379987       0.45285588       0.34485977 </v>
   <v>       0.43442147       0.28508975       0.12421983 </v>
   <v>       0.68296879       0.78830614       0.25585987 </v>
   <v>       0.43651787       0.12147638       0.52151217 </v>
   <v>       0.18954907       0.29761474       0.87643752 </v>
   <v>       0.19109775       0.12459873       0.65472011 </v>
   <v>       0.94118173       0.12455875       0.65464085 </v>
   <v>       0.81662568       0.53730200       0.38899333 </v>
   <v>       0.06665145       0.03805893       0.38908198 </v>
   <v>       0.18333874       0.11213306       0.16638468 </v>
   <v>       0.05930691       0.53846649       0.61085644 </v>
   <v>       0.93329464       0.28738859       0.25602450 </v>
   <v>       0.55864139       0.53857329       0.61094897 </v>
   <v>       0.93695861       0.95720777       0.56575334 </v>
   <v>       0.69436417       0.62355820       0.30011236 </v>
   <v>       0.93767230       0.61977334       0.43436458 </v>
   <v>       0.93362953       0.62370631       0.78849260 </v>
   <v>       0.56048279       0.70781422       0.69930794 </v>
   <v>       0.06707052       0.71541466       0.83408757 </v>
   <v>       0.94472466       0.12296100       0.30020568 </v>
   <v>       0.93431938       0.78800721       0.61080780 </v>
   <v>       0.43353814       0.78784564       0.25560559 </v>
   <v>       0.30990325       0.37412571       0.78895948 </v>
   <v>       0.44040525       0.45317150       0.21125425 </v>
   <v>       0.18675942       0.12197949       0.52154980 </v>
   <v>       0.81000199       0.70764075       0.69934209 </v>
   <v>       0.05936370       0.03828859       0.61075496 </v>
   <v>       0.56563544       0.21386247       0.83388065 </v>
   <v>       0.31159782       0.87207280       0.52161623 </v>
   <v>       0.68642520       0.28475004       0.12392442 </v>
   <v>       0.19095238       0.95478762       0.21169425 </v>
   <v>       0.68387121       0.28849405       0.61096832 </v>
   <v>       0.30880739       0.03825405       0.61095580 </v>
   <v>       0.93498059       0.12454480       0.78853103 </v>
   <v>       0.43868818       0.79454444       0.87602836 </v>
   <v>       0.81500362       0.04147233       0.74400257 </v>
   <v>       0.93519113       0.45803571       0.69924238 </v>
   <v>       0.19129510       0.62526269       0.65485234 </v>
   <v>       0.31115680       0.70730097       0.69941532 </v>
   <v>       0.93415610       0.28641506       0.12402522 </v>
   <v>       0.43728842       0.45554255       0.47848168 </v>
   <v>       0.06219353       0.70569793       0.47859328 </v>
   <v>       0.93693596       0.12020239       0.43465825 </v>
   <v>       0.44456731       0.12333233       0.30023118 </v>
   <v>       0.18717433       0.12058209       0.43431831 </v>
   <v>       0.31588290       0.70387181       0.21154268 </v>
   <v>       0.18666169       0.95694134       0.56585490 </v>
   <v>       0.68456436       0.78840734       0.12445939 </v>
   <v>       0.55892702       0.70229039       0.34473509 </v>
   <v>       0.31596258       0.03731135       0.38887479 </v>
   <v>       0.68204623       0.11351258       0.16664778 </v>
   <v>       0.81499685       0.20326516       0.21140756 </v>
   <v>       0.05932324       0.53660492       0.25569692 </v>
   <v>       0.56244903       0.70596772       0.47863371 </v>
   <v>       0.43518867       0.78765588       0.12419176 </v>
   <v>       0.56965439       0.37168841       0.30016410 </v>
   <v>       0.43369168       0.95252927       0.34480114 </v>
   <v>       0.18608809       0.95756226       0.69933814 </v>
   <v>       0.43176119       0.61338023       0.16630683 </v>
   <v>       0.93987543       0.45448554       0.21176966 </v>
   <v>       0.06177984       0.53107731       0.12406201 </v>
   <v>       0.81233542       0.37220035       0.52143712 </v>
   <v>       0.94468034       0.62330739       0.29998500 </v>
   <v>       0.30976356       0.03761393       0.25579991 </v>
   <v>       0.68359606       0.78792228       0.61087016 </v>
   <v>       0.19288037       0.46307455       0.83392226 </v>
   <v>       0.43369770       0.11205659       0.16652989 </v>
   <v>       0.31137897       0.37169479       0.52153189 </v>
   <v>       0.43316402       0.62223248       0.78898846 </v>
   <v>       0.05883843       0.03779387       0.25578469 </v>
   <v>       0.56185251       0.70731738       0.56581828 </v>
   <v>       0.93924832       0.29076885       0.74423066 </v>
   <v>       0.68216120       0.12336970       0.78862252 </v>
   <v>       0.19042870       0.45375501       0.21124290 </v>
   <v>       0.94158122       0.78756307       0.38880376 </v>
   <v>       0.68565639       0.29837128       0.87621065 </v>
   <v>       0.55662989       0.86285308       0.16646923 </v>
   <v>       0.43586922       0.45808724       0.69933325 </v>
   <v>       0.93429611       0.95181968       0.34468661 </v>
   <v>       0.68675936       0.62175471       0.52142092 </v>
   <v>       0.06643500       0.87484561       0.65457961 </v>
   <v>       0.05980858       0.87456240       0.78855158 </v>
   <v>       0.06599419       0.37405958       0.65467482 </v>
   <v>       0.68739448       0.45533605       0.47853707 </v>
   <v>       0.18406430       0.78751467       0.25560006 </v>
   <v>       0.43667934       0.12074126       0.43444276 </v>
   <v>       0.81316489       0.03123871       0.12399526 </v>
   <v>       0.93693765       0.62194033       0.52151835 </v>
   <v>       0.44112637       0.12414932       0.65475390 </v>
   <v>       0.81387503       0.53071497       0.12404758 </v>
   <v>       0.43361738       0.45253300       0.34488413 </v>
   <v>       0.80913874       0.20231197       0.34475084 </v>
   <v>       0.30853611       0.70137450       0.34479830 </v>
   <v>       0.69069876       0.12462889       0.65484748 </v>
   <v>       0.56925495       0.87431226       0.30018964 </v>
   <v>       0.06539641       0.54082702       0.74420027 </v>
   <v>       0.94024455       0.95388751       0.21129093 </v>
   <v>       0.81596115       0.70330093       0.21144580 </v>
   <v>       0.07023089       0.87325839       0.30027413 </v>
   <v>       0.19462902       0.12376696       0.30016948 </v>
   <v>       0.05920123       0.70245704       0.34491859 </v>
   <v>       0.80951465       0.03827530       0.61094188 </v>
   <v>       0.06264344       0.37200316       0.43430887 </v>
   <v>       0.55920881       0.20288838       0.34461187 </v>
   <v>       0.81948714       0.37326503       0.30015405 </v>
   <v>       0.55986438       0.03815811       0.25549673 </v>
   <v>       0.56598702       0.53722469       0.38900861 </v>
   <v>       0.06245705       0.20587851       0.47857610 </v>
   <v>       0.30988795       0.87251301       0.78841007 </v>
   <v>       0.93505679       0.95804814       0.69925257 </v>
   <v>       0.06911810       0.37377900       0.30014729 </v>
   <v>       0.69068662       0.62508190       0.65497403 </v>
   <v>       0.68669756       0.45719667       0.56565993 </v>
   <v>       0.44157259       0.95508917       0.21188062 </v>
   <v>       0.31229659       0.20539121       0.47857160 </v>
   <v>       0.81151464       0.54055941       0.87609952 </v>
   <v>       0.68807125       0.62037688       0.43443880 </v>
   <v>       0.81028510       0.20756480       0.69952010 </v>
   <v>       0.81266379       0.70580838       0.47859755 </v>
   <v>       0.81161905       0.87152245       0.43431105 </v>
   <v>       0.93723111       0.95558760       0.47869849 </v>
   <v>       0.56215687       0.20530535       0.47851368 </v>
   <v>       0.18715741       0.61968451       0.43429954 </v>
   <v>       0.31538758       0.04172750       0.74390068 </v>
   <v>       0.94101799       0.62523273       0.65466862 </v>
   <v>       0.56552579       0.71297242       0.83385866 </v>
   <v>       0.32012898       0.37262306       0.30013997 </v>
   <v>       0.31544201       0.54148960       0.74406953 </v>
   <v>       0.18714620       0.45524644       0.47854033 </v>
   <v>       0.31459358       0.04338829       0.87593833 </v>
   <v>       0.18587623       0.45804704       0.69928047 </v>
   <v>       0.56183339       0.37191171       0.52144413 </v>
   <v>       0.19098840       0.28795161       0.38891666 </v>
   <v>       0.31643716       0.20316652       0.21130524 </v>
   <v>       0.06695396       0.70323465       0.21113504 </v>
   <v>       0.56185401       0.37059848       0.43438385 </v>
   <v>       0.43644262       0.62230652       0.52149888 </v>
   <v>       0.81609745       0.71460132       0.83349085 </v>
   <v>       0.05979940       0.37401227       0.78867307 </v>
   <v>       0.43571988       0.29758198       0.87638360 </v>
   <v>       0.31203912       0.03017543       0.12402273 </v>
   <v>       0.68754276       0.12009978       0.43444675 </v>
   <v>       0.18370999       0.95165408       0.34489861 </v>
   <v>       0.06777363       0.21535487       0.83425731 </v>
   <v>       0.55896199       0.03808389       0.61104520 </v>
   <v>       0.68858921       0.45423866       0.21179988 </v>
   <v>       0.18990112       0.79204322       0.74432750 </v>
   <v>       0.19534505       0.62263950       0.30038932 </v>
   <v>       0.44053041       0.78749739       0.38911352 </v>
   <v>       0.43364299       0.28741485       0.25571167 </v>
   <v>       0.06494594       0.54126879       0.87609708 </v>
   <v>       0.56488841       0.04149620       0.74396000 </v>
   <v>       0.18925544       0.79496796       0.87607895 </v>
   <v>       0.93751705       0.45532369       0.47848639 </v>
   <v>       0.56488581       0.54141822       0.74403558 </v>
   <v>       0.81184765       0.20669812       0.56568017 </v>
   <v>       0.18546281       0.62245263       0.78868391 </v>
   <v>       0.06732754       0.53894191       0.38916693 </v>
   <v>       0.06069171       0.70801011       0.69922085 </v>
   <v>       0.30903084       0.53672416       0.25579837 </v>
   <v>       0.56308603       0.03958846       0.87614357 </v>
   <v>       0.30626743       0.86461393       0.16598218 </v>
   <v>       0.43642716       0.62101305       0.43435361 </v>
   <v>       0.81826837       0.03923680       0.38897228 </v>
   <v>       0.93455685       0.29806351       0.87603836 </v>
   <v>       0.93677894       0.79433721       0.87584763 </v>
   <v>       0.06606949       0.03989077       0.87625041 </v>
   <v>       0.56201520       0.52983140       0.12445052 </v>
   <v>       0.80521106       0.36561493       0.16586437 </v>
   <v>       0.06219933       0.87151878       0.43438958 </v>
   <v>       0.93705822       0.12188751       0.52165899 </v>
   <v>       0.19315826       0.78712361       0.38868242 </v>
   <v>       0.56527906       0.70391350       0.21193248 </v>
  </varray>
 </structure>
</modeling>
