unknown system                          
            1
     9.726678    0.000000    0.000000
     0.000000    8.423550    0.000000
     0.000000    0.000000   45.000000
   Fe   Mn
 273  15
Direct configuration=     1
   0.43740660  0.95494182  0.47848656
   0.56257084  0.52791729  0.12431141
   0.68731482  0.79967381  0.87576707
   0.43728416  0.13059709  0.78863712
   0.81227225  0.03682616  0.38941937
   0.18768750  0.45697769  0.56586698
   0.81256355  0.88052192  0.78855708
   0.81206590  0.71576486  0.83343148
   0.56245367  0.71049189  0.69960582
   0.43767861  0.44748542  0.21133630
   0.81264377  0.36227646  0.16662798
   0.06215403  0.54139686  0.61063975
   0.81255279  0.87270214  0.52152991
   0.93758350  0.95488819  0.47852231
   0.68760037  0.27754312  0.12436804
   0.68802142  0.62076052  0.43423854
   0.06243905  0.03220214  0.25582228
   0.81209570  0.54971659  0.87572896
   0.93720077  0.11720388  0.30028941
   0.93724462  0.46576658  0.83347292
   0.81241521  0.54536320  0.74406854
   0.31260913  0.87521304  0.65483271
   0.18772707  0.45525862  0.47850470
   0.31196336  0.54951184  0.87572287
   0.43795951  0.27801653  0.12429211
   0.18760036  0.12147132  0.43437970
   0.31263711  0.53242729  0.25577581
   0.93773636  0.96083012  0.69972273
   0.06211566  0.02773657  0.12432178
   0.06269485  0.36778177  0.30028608
   0.18745582  0.78632559  0.38933216
   0.18705609  0.94750485  0.21140623
   0.81250946  0.86193970  0.16658395
   0.93743216  0.78194115  0.25582493
   0.31264716  0.70684269  0.56574771
   0.68785132  0.62573552  0.65482597
   0.56253287  0.70670930  0.56565836
   0.18699245  0.79958910  0.87574020
   0.68775971  0.62306010  0.52151756
   0.31249149  0.20247369  0.34499997
   0.18738934  0.62558443  0.65479190
   0.81243260  0.20210940  0.34507731
   0.06224510  0.20197662  0.34504956
   0.31261037  0.69648331  0.21149004
   0.06227226  0.53243547  0.25572899
   0.43700542  0.11106205  0.16654246
   0.56261918  0.37591741  0.65498698
   0.93752594  0.12302504  0.52146526
   0.43739906  0.12331753  0.52160141
   0.68737467  0.96597741  0.83352100
   0.06263419  0.52799935  0.12428527
   0.81245746  0.71055268  0.69963967
   0.43704715  0.79972749  0.87574169
   0.43783256  0.12591337  0.65483054
   0.06260383  0.69735885  0.21148596
   0.56260106  0.36702558  0.30030209
   0.31250326  0.70492774  0.47843093
   0.18756092  0.12568993  0.65491255
   0.31247222  0.36115669  0.16638907
   0.81245625  0.69737922  0.21137919
   0.81213668  0.70489913  0.47839929
   0.18740159  0.46047989  0.69965579
   0.68773612  0.77708240  0.12427795
   0.31200469  0.05010308  0.87575080
   0.68769971  0.29548584  0.74405708
   0.18769817  0.12324637  0.52153569
   0.31247731  0.87264267  0.52145540
   0.43733068  0.61709016  0.30024937
   0.43717160  0.96573259  0.83348420
   0.56237196  0.53722226  0.38923603
   0.18743422  0.95670038  0.56568794
   0.06293249  0.37272983  0.52144744
   0.43750984  0.63034465  0.78856512
   0.43757625  0.62556185  0.65486573
   0.43714179  0.62112264  0.43428870
   0.68750197  0.28662864  0.38932918
   0.18799263  0.61166160  0.16652441
   0.43745405  0.28223943  0.25587982
   0.93770684  0.95667631  0.56567704
   0.31286229  0.21059859  0.69971005
   0.31298122  0.70980628  0.69966483
   0.31246523  0.88082125  0.78861140
   0.56224528  0.05014180  0.87574699
   0.43740554  0.45682133  0.56570696
   0.81193467  0.04993919  0.87575979
   0.31253880  0.37569784  0.65488771
   0.31271059  0.53682187  0.38931995
   0.31258816  0.20674651  0.56573082
   0.56234799  0.03712040  0.38937762
   0.06218781  0.21588763  0.83341165
   0.56265765  0.54591536  0.74416039
   0.43761491  0.29584496  0.74421277
   0.18724051  0.45240125  0.34503512
   0.06228464  0.19773265  0.21158838
   0.43776998  0.45234454  0.34506741
   0.06257585  0.71017996  0.69961615
   0.81228157  0.37264465  0.52148654
   0.68760561  0.29170267  0.61064583
   0.18744244  0.46586689  0.83355691
   0.68753853  0.94718499  0.21145430
   0.43734016  0.45493152  0.47848659
   0.06209281  0.54965249  0.87576382
   0.93769778  0.94768588  0.21147491
   0.43820985  0.77774750  0.12409796
   0.93783288  0.27756450  0.12436623
   0.18743941  0.29574866  0.74418986
   0.18770689  0.95529489  0.47850347
   0.43787106  0.94747958  0.21150704
   0.81272777  0.02819243  0.12436359
   0.81263530  0.53677196  0.38929459
   0.06254730  0.87273721  0.52149397
   0.18736698  0.29114827  0.61068156
   0.68733512  0.44731942  0.21148861
   0.68752490  0.45219475  0.34507204
   0.81301341  0.37136288  0.43425202
   0.06195765  0.70208558  0.34502562
   0.81240340  0.04107761  0.61057629
   0.68758350  0.78194924  0.25584885
   0.56235307  0.21569299  0.83339401
   0.31263040  0.86769094  0.30030003
   0.06252408  0.70672404  0.56584915
   0.06278720  0.87566754  0.65489324
   0.81231671  0.38070530  0.78861159
   0.68752036  0.12309732  0.52161454
   0.31222087  0.21571972  0.83337182
   0.31248313  0.54612762  0.74415414
   0.68779563  0.11256488  0.16666018
   0.93741104  0.12158507  0.43437261
   0.93779838  0.79103808  0.61068436
   0.18761797  0.61728417  0.30029132
   0.06275647  0.54507210  0.74405992
   0.68719274  0.28196938  0.25586445
   0.56254313  0.87264670  0.52137416
   0.68754823  0.78674586  0.38935337
   0.31220663  0.71591646  0.83342819
   0.06275113  0.04617364  0.74415708
   0.06234576  0.88038873  0.78862881
   0.06235489  0.71586117  0.83337041
   0.18766993  0.28232456  0.25593718
   0.68711624  0.63019337  0.78865944
   0.18721137  0.77777536  0.12408736
   0.18730975  0.78236674  0.25586306
   0.06259674  0.38081808  0.78860908
   0.93767005  0.95179164  0.34507764
   0.31199382  0.37103723  0.43442113
   0.81262845  0.87145150  0.43439023
   0.81266982  0.87580633  0.65485031
   0.56269948  0.19720455  0.21164197
   0.43759509  0.62305391  0.52158645
   0.31233723  0.54118308  0.61066608
   0.56253281  0.87559840  0.65484847
   0.81246763  0.53218373  0.25579682
   0.43774093  0.78642287  0.38938926
   0.31254781  0.19693024  0.21142164
   0.81209483  0.21595810  0.83348818
   0.56247443  0.86775928  0.30040894
   0.18726524  0.79155694  0.61070855
   0.56239932  0.69734526  0.21155351
   0.56231918  0.20672337  0.56576892
   0.18710014  0.30000550  0.87578480
   0.43726962  0.12080303  0.43421406
   0.93755484  0.79554635  0.74405899
   0.56249730  0.37288131  0.52143816
   0.31255942  0.20482170  0.47835579
   0.68755452  0.79106986  0.61063052
   0.18778389  0.63041868  0.78853853
   0.18756822  0.62081640  0.43433035
   0.56291988  0.54132097  0.61072762
   0.56255237  0.70479199  0.47832535
   0.18702876  0.96581490  0.83351874
   0.81264935  0.52819796  0.12433560
   0.43763949  0.95262278  0.34515336
   0.93753637  0.77711545  0.12423981
   0.18771854  0.95173931  0.34506886
   0.68765132  0.12582857  0.65483075
   0.43728864  0.96038465  0.69962026
   0.43718411  0.30013349  0.87568949
   0.81256725  0.70225610  0.34497738
   0.43709364  0.61177186  0.16665016
   0.81252344  0.20487817  0.47843032
   0.81268153  0.20652884  0.56583088
   0.93740370  0.78657683  0.38925107
   0.06256064  0.37584421  0.65485841
   0.31235950  0.37280790  0.52150365
   0.56275447  0.04538249  0.74412159
   0.68708150  0.29983952  0.87577815
   0.81224163  0.36808855  0.30032923
   0.93739347  0.28607553  0.38937864
   0.56238720  0.03222847  0.25584618
   0.31229241  0.04536164  0.74408795
   0.56227805  0.38052228  0.78853791
   0.68770963  0.61192755  0.16661449
   0.18758956  0.28607123  0.38927898
   0.56216230  0.71592547  0.83345099
   0.56213880  0.86243743  0.16639237
   0.56268441  0.20285879  0.34506282
   0.06238341  0.04117638  0.61059816
   0.68796186  0.12168628  0.43434387
   0.81252012  0.70655742  0.56578286
   0.68762772  0.95658200  0.56573427
   0.18732503  0.13058984  0.78859205
   0.31240555  0.03233238  0.25578638
   0.81266103  0.54141932  0.61074998
   0.81246636  0.21073673  0.69958297
   0.56263747  0.21044235  0.69976000
   0.93752517  0.62350993  0.52141790
   0.68731897  0.95242993  0.34511857
   0.68748820  0.45670943  0.56581936
   0.93755851  0.45153890  0.34510574
   0.68798534  0.46102972  0.69969955
   0.93751409  0.12593291  0.65487117
   0.56240060  0.53222552  0.25567579
   0.06318590  0.86231436  0.16644609
   0.18751525  0.11712763  0.30039158
   0.31276973  0.52876069  0.12431243
   0.93746787  0.63024566  0.78848558
   0.18785835  0.96041815  0.69971747
   0.43753365  0.79108273  0.61058512
   0.93746210  0.11251421  0.16669685
   0.93748731  0.28236162  0.25591886
   0.43744521  0.95662907  0.56563699
   0.18756899  0.44736158  0.21137223
   0.93757733  0.45655330  0.56544956
   0.18724635  0.62283390  0.52149556
   0.81286169  0.37575993  0.65492766
   0.31266465  0.38077286  0.78867228
   0.93755651  0.13049186  0.78867150
   0.06255033  0.37123086  0.43428356
   0.93743118  0.62175591  0.43430191
   0.93705508  0.30009853  0.87573357
   0.93716437  0.96539618  0.83358274
   0.43715358  0.46083859  0.69971208
   0.93767670  0.61187013  0.16657132
   0.93713043  0.79982357  0.87572255
   0.06198606  0.36189030  0.16667978
   0.31279698  0.03654499  0.38937196
   0.43711184  0.46538046  0.83347644
   0.06220115  0.04996945  0.87573803
   0.81259510  0.03188455  0.25587874
   0.93781234  0.46064442  0.69968366
   0.06242797  0.53652315  0.38939137
   0.68736932  0.45525412  0.47845219
   0.68760629  0.61701769  0.30026372
   0.43736669  0.78231276  0.25589701
   0.81246809  0.04564276  0.74411231
   0.68739648  0.79555837  0.74413517
   0.56274406  0.04133621  0.61063668
   0.06254534  0.03640894  0.38932041
   0.18764592  0.79541005  0.74410739
   0.43756570  0.29111804  0.61072989
   0.56227147  0.54951813  0.87574446
   0.56251862  0.20460114  0.47844003
   0.56233193  0.88079152  0.78858730
   0.68706920  0.46597073  0.83347429
   0.06259159  0.20630062  0.56586702
   0.06286323  0.70490832  0.47841862
   0.56286737  0.70269888  0.34490112
   0.56335587  0.36199298  0.16667085
   0.68740243  0.95519882  0.47850335
   0.43758356  0.28651800  0.38931515
   0.18732105  0.27813215  0.12432060
   0.06260673  0.87158844  0.43444531
   0.18828734  0.11103008  0.16647690
   0.81259477  0.19722334  0.21151554
   0.68758425  0.13059255  0.78858772
   0.68743771  0.11728829  0.30028041
   0.56310507  0.02771452  0.12433196
   0.93758149  0.44763618  0.21154707
   0.06250896  0.20465688  0.47847366
   0.81216608  0.86704632  0.30031895
   0.93767726  0.29172924  0.61072737
   0.93770473  0.62625094  0.65487442
   0.31259789  0.36735356  0.30036288
   0.31264007  0.86237287  0.16581716
   0.31137512  0.87109430  0.43434599
   0.43789461  0.79561272  0.74420549
   0.31198122  0.70266082  0.34494484
   0.06243321  0.21060109  0.69960149
   0.31242858  0.04108155  0.61071835
   0.68730822  0.96026124  0.69974340
   0.93752742  0.45509827  0.47864337
   0.43746974  0.11745712  0.30023483
   0.31266110  0.02814336  0.12427136
   0.06294253  0.86742155  0.30038616
   0.93762498  0.29576864  0.74436245
   0.56257542  0.37123973  0.43434433
   0.93729109  0.61691207  0.30037396
   0.56366594  0.87128568  0.43431732
Direct configuration=     2
   0.43725059  0.95495188  0.47848523
   0.56226960  0.52779396  0.12429540
   0.68756452  0.79962661  0.87572556
   0.43703191  0.13066422  0.78856865
   0.81258185  0.03665226  0.38941448
   0.18758686  0.45691456  0.56578105
   0.81283995  0.88035521  0.78851115
   0.81236541  0.71568099  0.83345193
   0.56238490  0.71069798  0.69959980
   0.43766032  0.44741280  0.21125026
   0.81234930  0.36208152  0.16654669
   0.06209127  0.54136400  0.61064432
   0.81267123  0.87259867  0.52148949
   0.93777272  0.95486590  0.47853400
   0.68727938  0.27781516  0.12438128
   0.68800767  0.62087764  0.43431439
   0.06254507  0.03218941  0.25588698
   0.81242556  0.54957901  0.87569975
   0.93715913  0.11731084  0.30041091
   0.93744090  0.46569583  0.83348750
   0.81255870  0.54541276  0.74400230
   0.31268074  0.87555357  0.65487941
   0.18769584  0.45540959  0.47853926
   0.31167268  0.54931608  0.87566709
   0.43783603  0.27843234  0.12429215
   0.18754626  0.12115965  0.43442890
   0.31277642  0.53245700  0.25580676
   0.93783737  0.96072854  0.69972459
   0.06219823  0.02776548  0.12432758
   0.06253495  0.36758591  0.30043606
   0.18717520  0.78637422  0.38939378
   0.18751889  0.94770338  0.21136128
   0.81222120  0.86212913  0.16649337
   0.93738013  0.78210814  0.25591565
   0.31260478  0.70688943  0.56569104
   0.68777318  0.62582789  0.65486754
   0.56255258  0.70667116  0.56560899
   0.18671090  0.79970790  0.87568721
   0.68783642  0.62294979  0.52148836
   0.31223921  0.20242205  0.34503391
   0.18736950  0.62576784  0.65486053
   0.81273946  0.20208442  0.34505370
   0.06215643  0.20190997  0.34507925
   0.31288197  0.69671727  0.21140632
   0.06237664  0.53240270  0.25581365
   0.43706917  0.11109091  0.16652755
   0.56257283  0.37575945  0.65502485
   0.93763028  0.12300345  0.52143400
   0.43738022  0.12332597  0.52156841
   0.68760633  0.96599197  0.83355994
   0.06292385  0.52793221  0.12424605
   0.81238076  0.71071019  0.69964913
   0.43694179  0.79976246  0.87569447
   0.43777353  0.12580128  0.65485705
   0.06298330  0.69749391  0.21147941
   0.56263880  0.36693923  0.30037365
   0.31234367  0.70504445  0.47843060
   0.18770324  0.12555078  0.65494889
   0.31273742  0.36108311  0.16629214
   0.81217210  0.69746700  0.21138373
   0.81224064  0.70512248  0.47843809
   0.18747110  0.46044859  0.69969023
   0.68743076  0.77716462  0.12428203
   0.31169369  0.05014051  0.87571329
   0.68770378  0.29560314  0.74395306
   0.18756026  0.12321855  0.52149799
   0.31233542  0.87258696  0.52139961
   0.43750449  0.61699386  0.30033527
   0.43697144  0.96578781  0.83351024
   0.56231513  0.53731181  0.38926600
   0.18733559  0.95678820  0.56563167
   0.06292409  0.37259538  0.52143465
   0.43730054  0.63039026  0.78847177
   0.43768855  0.62573476  0.65493530
   0.43700938  0.62128002  0.43436908
   0.68763579  0.28666506  0.38932922
   0.18851156  0.61172690  0.16641067
   0.43749375  0.28203232  0.25591159
   0.93778131  0.95671193  0.56560397
   0.31290534  0.21053060  0.69969301
   0.31303257  0.70992214  0.69970108
   0.31217950  0.88074165  0.78853372
   0.56228094  0.05013918  0.87571330
   0.43742565  0.45678287  0.56564293
   0.81227184  0.04993299  0.87573046
   0.31262190  0.37536721  0.65493676
   0.31238403  0.53690434  0.38934404
   0.31252410  0.20681747  0.56567354
   0.56223367  0.03697990  0.38940947
   0.06217614  0.21586222  0.83344708
   0.56251241  0.54602071  0.74404968
   0.43742723  0.29589351  0.74409413
   0.18705973  0.45228256  0.34509309
   0.06249294  0.19755172  0.21156227
   0.43762716  0.45232502  0.34506008
   0.06265637  0.71032485  0.69965190
   0.81235604  0.37258524  0.52148118
   0.68748694  0.29166814  0.61067261
   0.18722033  0.46579571  0.83355981
   0.68711584  0.94746115  0.21140406
   0.43726876  0.45511790  0.47853272
   0.06197195  0.54949511  0.87572670
   0.93772800  0.94789676  0.21147311
   0.43815012  0.77766980  0.12411972
   0.93792577  0.27780037  0.12433991
   0.18740504  0.29580766  0.74410466
   0.18761816  0.95526147  0.47849741
   0.43779257  0.94763052  0.21141895
   0.81260301  0.02824416  0.12436288
   0.81293222  0.53692729  0.38929892
   0.06253420  0.87267659  0.52143796
   0.18741135  0.29089513  0.61071548
   0.68702482  0.44707750  0.21144134
   0.68765921  0.45224142  0.34504421
   0.81307548  0.37136072  0.43430557
   0.06187714  0.70204531  0.34512282
   0.81233277  0.04114151  0.61060428
   0.68745346  0.78207401  0.25593315
   0.56236709  0.21572351  0.83344467
   0.31273995  0.86780642  0.30038365
   0.06251069  0.70673431  0.56577780
   0.06293835  0.87586022  0.65494053
   0.81260143  0.38077384  0.78858810
   0.68756276  0.12312025  0.52158309
   0.31194157  0.21572921  0.83340379
   0.31242121  0.54623383  0.74405659
   0.68744020  0.11256817  0.16662955
   0.93770418  0.12137936  0.43443155
   0.93783704  0.79109153  0.61070455
   0.18758815  0.61710767  0.30039426
   0.06277706  0.54518361  0.74400439
   0.68701704  0.28183467  0.25592838
   0.56258129  0.87260072  0.52133107
   0.68771899  0.78668518  0.38937111
   0.31193018  0.71589646  0.83342579
   0.06281529  0.04605057  0.74407656
   0.06237012  0.88022885  0.78859295
   0.06232726  0.71574723  0.83336663
   0.18782635  0.28213634  0.25599306
   0.68729346  0.63019687  0.78859430
   0.18744962  0.77772065  0.12408371
   0.18748410  0.78257821  0.25589028
   0.06262068  0.38086470  0.78858346
   0.93782029  0.95185138  0.34512665
   0.31191316  0.37106126  0.43448265
   0.81276224  0.87129577  0.43445196
   0.81253152  0.87585492  0.65489558
   0.56255488  0.19707563  0.21156509
   0.43754503  0.62293249  0.52154943
   0.31241840  0.54114416  0.61067795
   0.56244157  0.87578099  0.65490044
   0.81229390  0.53211116  0.25589620
   0.43757985  0.78643040  0.38942493
   0.31277894  0.19671853  0.21135276
   0.81239377  0.21595556  0.83353781
   0.56250489  0.86778298  0.30048200
   0.18735358  0.79178354  0.61072442
   0.56203678  0.69748350  0.21147884
   0.56232986  0.20679679  0.56572052
   0.18682792  0.29982357  0.87575933
   0.43714914  0.12056826  0.43429541
   0.93775588  0.79546482  0.74400326
   0.56253079  0.37283228  0.52141998
   0.31240810  0.20479481  0.47839920
   0.68741084  0.79110752  0.61066862
   0.18759321  0.63040674  0.78849347
   0.18750507  0.62109461  0.43437757
   0.56296359  0.54129492  0.61074828
   0.56249763  0.70485703  0.47835416
   0.18681332  0.96583190  0.83353743
   0.81246656  0.52814202  0.12430106
   0.43749734  0.95257048  0.34515275
   0.93763193  0.77726522  0.12421228
   0.18760281  0.95182808  0.34514483
   0.68737005  0.12572157  0.65487800
   0.43730110  0.96032241  0.69959573
   0.43702937  0.29994162  0.87566028
   0.81274332  0.70228571  0.34501160
   0.43697601  0.61186820  0.16657368
   0.81263897  0.20475893  0.47849752
   0.81274497  0.20669369  0.56576048
   0.93767073  0.78664586  0.38927138
   0.06261654  0.37563116  0.65489986
   0.31226180  0.37275917  0.52146747
   0.56256354  0.04527181  0.74398828
   0.68732601  0.29970842  0.87575182
   0.81230031  0.36790688  0.30045002
   0.93771377  0.28613069  0.38936460
   0.56226071  0.03226973  0.25587267
   0.31220636  0.04524707  0.74398200
   0.56220804  0.38059012  0.78847143
   0.68727545  0.61190638  0.16651256
   0.18738314  0.28607062  0.38927553
   0.56219386  0.71590147  0.83347622
   0.56172239  0.86264697  0.16634985
   0.56273059  0.20281412  0.34503984
   0.06255671  0.04128642  0.61064228
   0.68784223  0.12149894  0.43442754
   0.81255317  0.70651388  0.56571987
   0.68765474  0.95661243  0.56569209
   0.18719642  0.13060229  0.78856456
   0.31251256  0.03233651  0.25579767
   0.81260661  0.54140173  0.61075929
   0.81239002  0.21066119  0.69957238
   0.56251953  0.21040124  0.69972588
   0.93756153  0.62341148  0.52140613
   0.68739346  0.95239590  0.34510602
   0.68756905  0.45673048  0.56576124
   0.93777192  0.45147372  0.34512809
   0.68784249  0.46110544  0.69968271
   0.93762489  0.12587248  0.65489486
   0.56234768  0.53216134  0.25574157
   0.06357224  0.86255809  0.16633382
   0.18740401  0.11719545  0.30048627
   0.31295629  0.52860704  0.12429863
   0.93765781  0.63025431  0.78845026
   0.18792802  0.96043818  0.69970021
   0.43755512  0.79127929  0.61063039
   0.93745848  0.11248015  0.16661334
   0.93749298  0.28218919  0.25601331
   0.43744580  0.95670214  0.56560184
   0.18794398  0.44725940  0.21131594
   0.93757919  0.45655032  0.56536693
   0.18718045  0.62273518  0.52144523
   0.81275411  0.37575895  0.65494748
   0.31244099  0.38082386  0.78862197
   0.93779033  0.13052579  0.78865298
   0.06265416  0.37124943  0.43432715
   0.93766937  0.62194561  0.43434662
   0.93727272  0.30001076  0.87571691
   0.93737420  0.96535167  0.83361922
   0.43708816  0.46081255  0.69972559
   0.93769093  0.61182360  0.16643141
   0.93729467  0.79986448  0.87568824
   0.06230333  0.36175072  0.16656243
   0.31251986  0.03638786  0.38940023
   0.43693643  0.46531173  0.83349340
   0.06217034  0.05001295  0.87572121
   0.81254047  0.03192034  0.25596789
   0.93794896  0.46066327  0.69970951
   0.06250723  0.53661970  0.38940541
   0.68728393  0.45538557  0.47851124
   0.68759432  0.61698704  0.30036266
   0.43738591  0.78254274  0.25592349
   0.81264412  0.04555086  0.74401890
   0.68736554  0.79552955  0.74401812
   0.56261216  0.04133419  0.61070468
   0.06265112  0.03622997  0.38933055
   0.18764921  0.79539880  0.74402709
   0.43758033  0.29089031  0.61077996
   0.56238374  0.54935116  0.87571102
   0.56247917  0.20462579  0.47848210
   0.56229462  0.88067323  0.78850946
   0.68728550  0.46593932  0.83350517
   0.06258934  0.20639960  0.56580569
   0.06296632  0.70516501  0.47842687
   0.56286572  0.70271421  0.34491167
   0.56305803  0.36194064  0.16660008
   0.68747406  0.95519420  0.47853681
   0.43734968  0.28650734  0.38933533
   0.18766118  0.27848928  0.12430056
   0.06277950  0.87149525  0.43448320
   0.18855763  0.11106613  0.16644020
   0.81230040  0.19714529  0.21147036
   0.68772218  0.13061639  0.78854651
   0.68750201  0.11736823  0.30035596
   0.56298451  0.02767388  0.12437728
   0.93753344  0.44734468  0.21153307
   0.06258896  0.20460326  0.47851333
   0.81214621  0.86716566  0.30042029
   0.93774962  0.29169661  0.61072686
   0.93767433  0.62634951  0.65491528
   0.31267195  0.36725895  0.30046837
   0.31306043  0.86239394  0.16579721
   0.31111100  0.87101610  0.43443017
   0.43767075  0.79555094  0.74406971
   0.31188840  0.70266704  0.34500850
   0.06266544  0.21058183  0.69962376
   0.31249110  0.04118731  0.61082863
   0.68709455  0.96019105  0.69970331
   0.93778175  0.45522334  0.47870093
   0.43754232  0.11753628  0.30028521
   0.31285765  0.02818628  0.12432372
   0.06284887  0.86766187  0.30052097
   0.93782360  0.29591292  0.74428596
   0.56242132  0.37126797  0.43443803
   0.93709001  0.61670768  0.30053237
   0.56350437  0.87118448  0.43439978
Direct configuration=     3
   0.43727323  0.95495042  0.47848542
   0.56231331  0.52781186  0.12429772
   0.68752829  0.79963346  0.87573158
   0.43706852  0.13065448  0.78857859
   0.81253693  0.03667749  0.38941519
   0.18760146  0.45692372  0.56579352
   0.81279984  0.88037940  0.78851782
   0.81232195  0.71569316  0.83344896
   0.56239488  0.71066807  0.69960067
   0.43766298  0.44742334  0.21126275
   0.81239203  0.36210981  0.16655849
   0.06210037  0.54136877  0.61064366
   0.81265404  0.87261369  0.52149536
   0.93774527  0.95486914  0.47853230
   0.68732596  0.27777569  0.12437936
   0.68800966  0.62086065  0.43430338
   0.06252969  0.03219125  0.25587759
   0.81237770  0.54959897  0.87570399
   0.93716517  0.11729532  0.30039328
   0.93741242  0.46570610  0.83348539
   0.81253788  0.54540557  0.74401191
   0.31267034  0.87550416  0.65487263
   0.18770037  0.45538768  0.47853425
   0.31171486  0.54934448  0.87567518
   0.43785395  0.27837200  0.12429215
   0.18755411  0.12120487  0.43442176
   0.31275621  0.53245269  0.25580227
   0.93782272  0.96074328  0.69972432
   0.06218625  0.02776128  0.12432674
   0.06255815  0.36761433  0.30041430
   0.18721592  0.78636716  0.38938484
   0.18745174  0.94767457  0.21136780
   0.81226303  0.86210164  0.16650651
   0.93738768  0.78208391  0.25590248
   0.31261093  0.70688265  0.56569926
   0.68778452  0.62581449  0.65486150
   0.56254972  0.70667669  0.56561615
   0.18675175  0.79969066  0.87569490
   0.68782528  0.62296579  0.52149260
   0.31227582  0.20242955  0.34502899
   0.18737238  0.62574122  0.65485058
   0.81269494  0.20208805  0.34505712
   0.06216930  0.20191964  0.34507494
   0.31284256  0.69668332  0.21141847
   0.06236149  0.53240746  0.25580136
   0.43705992  0.11108672  0.16652972
   0.56257955  0.37578237  0.65501935
   0.93761514  0.12300658  0.52143853
   0.43738295  0.12332475  0.52157320
   0.68757271  0.96598986  0.83355429
   0.06288182  0.52794195  0.12425174
   0.81239189  0.71068734  0.69964776
   0.43695708  0.79975738  0.87570133
   0.43778210  0.12581754  0.65485320
   0.06292824  0.69747431  0.21148036
   0.56263332  0.36695176  0.30036326
   0.31236683  0.70502751  0.47843065
   0.18768259  0.12557097  0.65494362
   0.31269894  0.36109379  0.16630620
   0.81221333  0.69745426  0.21138307
   0.81222555  0.70509007  0.47843246
   0.18746101  0.46045313  0.69968523
   0.68747507  0.77715269  0.12428144
   0.31173881  0.05013508  0.87571873
   0.68770319  0.29558612  0.74396815
   0.18758027  0.12322259  0.52150346
   0.31235601  0.87259505  0.52140770
   0.43747927  0.61700783  0.30032280
   0.43700048  0.96577979  0.83350646
   0.56232338  0.53729882  0.38926165
   0.18734990  0.95677545  0.56563984
   0.06292531  0.37261489  0.52143651
   0.43733091  0.63038364  0.78848532
   0.43767225  0.62570967  0.65492521
   0.43702860  0.62125718  0.43435742
   0.68761637  0.28665978  0.38932921
   0.18843626  0.61171742  0.16642717
   0.43748799  0.28206237  0.25590698
   0.93777050  0.95670676  0.56561457
   0.31289910  0.21054046  0.69969548
   0.31302511  0.70990533  0.69969582
   0.31222096  0.88075320  0.78854500
   0.56227576  0.05013956  0.87571819
   0.43742274  0.45678845  0.56565222
   0.81222291  0.04993389  0.87573472
   0.31260984  0.37541519  0.65492964
   0.31243141  0.53689237  0.38934055
   0.31253340  0.20680718  0.56568185
   0.56225026  0.03700029  0.38940485
   0.06217783  0.21586591  0.83344194
   0.56253348  0.54600542  0.74406574
   0.43745447  0.29588647  0.74411134
   0.18708596  0.45229978  0.34508468
   0.06246272  0.19757797  0.21156606
   0.43764789  0.45232785  0.34506115
   0.06264469  0.71030382  0.69964671
   0.81234524  0.37259386  0.52148196
   0.68750416  0.29167315  0.61066873
   0.18725256  0.46580604  0.83355939
   0.68717718  0.94742107  0.21141135
   0.43727912  0.45509086  0.47852603
   0.06198949  0.54951795  0.87573209
   0.93772362  0.94786616  0.21147337
   0.43815879  0.77768108  0.12411657
   0.93791229  0.27776614  0.12434373
   0.18741003  0.29579910  0.74411702
   0.18763104  0.95526632  0.47849829
   0.43780396  0.94760861  0.21143173
   0.81262111  0.02823665  0.12436298
   0.81288913  0.53690475  0.38929829
   0.06253610  0.87268539  0.52144609
   0.18740491  0.29093186  0.61071056
   0.68706984  0.44711260  0.21144820
   0.68763972  0.45223465  0.34504825
   0.81306647  0.37136104  0.43429780
   0.06188882  0.70205115  0.34510871
   0.81234302  0.04113224  0.61060022
   0.68747233  0.78205590  0.25592092
   0.56236506  0.21571908  0.83343732
   0.31272405  0.86778966  0.30037152
   0.06251263  0.70673282  0.56578815
   0.06291642  0.87583226  0.65493366
   0.81256012  0.38076389  0.78859151
   0.68755661  0.12311692  0.52158765
   0.31198210  0.21572783  0.83339915
   0.31243019  0.54621842  0.74407075
   0.68749177  0.11256769  0.16663399
   0.93766165  0.12140921  0.43442300
   0.93783143  0.79108377  0.61070162
   0.18759248  0.61713328  0.30037933
   0.06277407  0.54516743  0.74401245
   0.68704254  0.28185421  0.25591910
   0.56257575  0.87260739  0.52133732
   0.68769421  0.78669398  0.38936854
   0.31197029  0.71589936  0.83342614
   0.06280598  0.04606842  0.74408824
   0.06236659  0.88025205  0.78859816
   0.06233127  0.71576377  0.83336718
   0.18780365  0.28216365  0.25598496
   0.68726774  0.63019636  0.78860375
   0.18741505  0.77772859  0.12408424
   0.18745880  0.78254752  0.25588633
   0.06261721  0.38085793  0.78858718
   0.93779849  0.95184271  0.34511954
   0.31192487  0.37105777  0.43447372
   0.81274283  0.87131837  0.43444300
   0.81255159  0.87584787  0.65488901
   0.56257586  0.19709433  0.21157624
   0.43755230  0.62295011  0.52155480
   0.31240662  0.54114981  0.61067623
   0.56245481  0.87575449  0.65489290
   0.81231911  0.53212169  0.25588178
   0.43760322  0.78642931  0.38941975
   0.31274540  0.19674925  0.21136275
   0.81235039  0.21595593  0.83353061
   0.56250047  0.86777954  0.30047140
   0.18734077  0.79175066  0.61072212
   0.56208939  0.69746344  0.21148967
   0.56232831  0.20678614  0.56572754
   0.18686742  0.29984997  0.87576302
   0.43716662  0.12060233  0.43428361
   0.93772671  0.79547665  0.74401135
   0.56252593  0.37283940  0.52142262
   0.31243005  0.20479871  0.47839290
   0.68743169  0.79110205  0.61066309
   0.18762088  0.63040847  0.78850001
   0.18751424  0.62105424  0.43437072
   0.56295725  0.54129870  0.61074528
   0.56250557  0.70484760  0.47834998
   0.18684458  0.96582944  0.83353472
   0.81249309  0.52815014  0.12430607
   0.43751797  0.95257807  0.34515284
   0.93761806  0.77724349  0.12421628
   0.18761960  0.95181520  0.34513380
   0.68741086  0.12573710  0.65487114
   0.43729929  0.96033144  0.69959929
   0.43705182  0.29996946  0.87566452
   0.81271778  0.70228142  0.34500663
   0.43699308  0.61185422  0.16658478
   0.81262220  0.20477624  0.47848777
   0.81273577  0.20666977  0.56577070
   0.93763199  0.78663585  0.38926843
   0.06260843  0.37566207  0.65489385
   0.31227597  0.37276624  0.52147272
   0.56259124  0.04528787  0.74400763
   0.68729053  0.29972744  0.87575564
   0.81229180  0.36793324  0.30043250
   0.93766730  0.28612269  0.38936664
   0.56227906  0.03226375  0.25586883
   0.31221885  0.04526369  0.74399737
   0.56221819  0.38058028  0.78848107
   0.68733845  0.61190945  0.16652735
   0.18741309  0.28607071  0.38927603
   0.56218928  0.71590496  0.83347256
   0.56178281  0.86261656  0.16635602
   0.56272389  0.20282060  0.34504317
   0.06253157  0.04127045  0.61063588
   0.68785959  0.12152612  0.43441540
   0.81254838  0.70652019  0.56572901
   0.68765082  0.95660801  0.56569821
   0.18721508  0.13060049  0.78856855
   0.31249703  0.03233591  0.25579603
   0.81261450  0.54140428  0.61075794
   0.81240110  0.21067215  0.69957392
   0.56253664  0.21040721  0.69973083
   0.93755626  0.62342577  0.52140784