unknown system                          
           1
     9.726678    0.000000    0.000000
     0.000000    8.423550    0.000000
     0.000000    0.000000   45.000000
   Fe   Mn
 281   7
Direct configuration=     1
   0.06155844  0.03158935  0.12458322
   0.06299026  0.87129104  0.52121412
   0.19144760  0.12243430  0.78838965
   0.43367275  0.28770793  0.38906244
   0.30839148  0.71271115  0.83315712
   0.80840765  0.21267818  0.83316335
   0.18352641  0.78767784  0.38906856
   0.56276969  0.20754524  0.56539025
   0.05986226  0.04061491  0.74402750
   0.81336355  0.87163494  0.52128983
   0.18485953  0.29060616  0.74399748
   0.94121773  0.45204121  0.34493263
   0.93361047  0.28770212  0.38905852
   0.81314811  0.04188412  0.87554719
   0.18855491  0.79096813  0.61066574
   0.55857809  0.03733678  0.38903328
   0.93339063  0.96275558  0.83312344
   0.31308895  0.54180279  0.87554890
   0.68520385  0.29096589  0.74410657
   0.19213063  0.61381382  0.16695651
   0.81290681  0.20572134  0.47861820
   0.81338537  0.54057655  0.61067950
   0.31309330  0.87010328  0.43443968
   0.81601694  0.03675385  0.25611858
   0.69103314  0.95253789  0.34515094
   0.94169019  0.11245056  0.16682490
   0.93848768  0.12127353  0.52122756
   0.56583300  0.53657983  0.25613560
   0.68871703  0.79401129  0.87559074
   0.56859685  0.36505709  0.16691137
   0.43521096  0.79091785  0.74403908
   0.81363244  0.70774098  0.56532464
   0.56675729  0.87257841  0.78837533
   0.68838839  0.12150110  0.52127262
   0.19130301  0.28740549  0.25588706
   0.93347677  0.46260886  0.83314120
   0.06310909  0.20814153  0.69958734
   0.43905363  0.95761195  0.69965026
   0.30839145  0.21258787  0.83316181
   0.43461795  0.62560566  0.65482462
   0.31336074  0.54098759  0.61067268
   0.93903553  0.45724985  0.56541131
   0.68483611  0.79067401  0.74402548
   0.30915222  0.87572141  0.65489966
   0.68383454  0.78749000  0.38903164
   0.93514364  0.79072677  0.74404853
   0.06645687  0.20199619  0.34498927
   0.80828550  0.03757866  0.38905111
   0.44185869  0.12215479  0.78847673
   0.05979274  0.20531664  0.21194599
   0.06851112  0.36433514  0.16683427
   0.94162054  0.78744347  0.25629704
   0.56368105  0.20761430  0.69960278
   0.68842766  0.95791649  0.69960551
   0.43982947  0.78772692  0.12459268
   0.43884987  0.95736287  0.56544775
   0.81610067  0.37266805  0.78839520
   0.69147310  0.28734389  0.25618558
   0.18867792  0.45752963  0.56538101
   0.06793466  0.86348279  0.16689044
   0.18908759  0.29059827  0.61063573
   0.56635568  0.70245069  0.34496159
   0.31374764  0.20787818  0.69969889
   0.56303716  0.54183775  0.87552824
   0.06371541  0.70731178  0.56543168
   0.69172995  0.62212304  0.78849891
   0.30865343  0.53769531  0.38905156
   0.18839860  0.62160281  0.52127259
   0.56288256  0.87026063  0.43451046
   0.43866899  0.45751925  0.56535709
   0.43515070  0.29076301  0.74406271
   0.80454541  0.87313857  0.30027067
   0.81649790  0.70228452  0.34509156
   0.43341781  0.46260746  0.83314940
   0.68773698  0.95568322  0.47864097
   0.68904658  0.45769809  0.69970103
   0.56332795  0.87152802  0.52125659
   0.55932072  0.37563731  0.65489872
   0.80969801  0.87530427  0.65479662
   0.81291876  0.36967083  0.43444168
   0.81557340  0.53662648  0.25600844
   0.68342505  0.46258251  0.83314320
   0.19128636  0.78724771  0.12480630
   0.06313947  0.04179635  0.87554240
   0.30904784  0.37568941  0.65494737
   0.31620141  0.20236650  0.34498237
   0.80955795  0.54048632  0.74397328
   0.68334316  0.96259422  0.83313978
   0.55911361  0.87576580  0.65493892
   0.31359417  0.70701920  0.56552307
   0.31349870  0.53131885  0.12448095
   0.68470380  0.95479199  0.21196998
   0.31384174  0.20776896  0.56552593
   0.30988648  0.54090015  0.74395910
   0.68869059  0.95752869  0.56541130
   0.43820987  0.79108838  0.61065818
   0.69340365  0.61370418  0.16700913
   0.30463706  0.87314571  0.30034583
   0.31254601  0.70535535  0.47859773
   0.93859216  0.29125871  0.61064141
   0.42961121  0.62322109  0.30035138
   0.81818021  0.86307782  0.16685918
   0.55994455  0.20525458  0.21183707
   0.94286991  0.61343861  0.16673330
   0.93867550  0.79346992  0.87564301
   0.56678831  0.37222485  0.78841404
   0.06334399  0.37161741  0.52125363
   0.56337933  0.37118081  0.52124803
   0.67956924  0.12317098  0.30034474
   0.43339353  0.96260462  0.83316173
   0.19123934  0.28731024  0.12467003
   0.81643834  0.87226972  0.78844654
   0.31257987  0.37033396  0.43443823
   0.56249605  0.03149431  0.12476806
   0.43825842  0.29117251  0.61067282
   0.19139564  0.45172207  0.34498537
   0.43984390  0.28769897  0.12460997
   0.69126368  0.78698487  0.25623091
   0.18890468  0.95753485  0.69964851
   0.18879316  0.29368419  0.87563585
   0.18451750  0.12515078  0.65474580
   0.93399905  0.12577771  0.65490719
   0.30889321  0.20488719  0.21181082
   0.05861166  0.03742830  0.38902320
   0.19396312  0.11456935  0.16728695
   0.06298626  0.54087606  0.61067498
   0.94134597  0.28747845  0.25586652
   0.56356025  0.54086438  0.61074337
   0.93866824  0.95756153  0.56542552
   0.67945334  0.62347098  0.30023987
   0.93798830  0.61994532  0.43445539
   0.94180938  0.62251362  0.78840062
   0.56398334  0.70816771  0.69966543
   0.05831895  0.71264161  0.83314227
   0.92956714  0.12320729  0.30035487
   0.93812567  0.79143397  0.61064878
   0.44171222  0.78703266  0.25617288
   0.31658228  0.37254955  0.78838298
   0.43515103  0.45509825  0.21197093
   0.18855207  0.12192401  0.52123450
   0.81439805  0.70735686  0.69967051
   0.06384330  0.04064598  0.61063073
   0.55846596  0.21279714  0.83313825
   0.31365531  0.87140208  0.52118669
   0.69071449  0.28772671  0.12463409
   0.18550499  0.95491531  0.21197597
   0.68833807  0.29123697  0.61069537
   0.31315164  0.04067106  0.61070313
   0.94153446  0.12192751  0.78860964
   0.43875681  0.79382085  0.87567395
   0.80993790  0.04061079  0.74404313
   0.43840737  0.12143085  0.52125549
   0.18467672  0.62557172  0.65487361
   0.31326540  0.70811724  0.69959413
   0.93938097  0.28701427  0.12454217
   0.43784368  0.45567513  0.47863912
   0.06303885  0.70548311  0.47861442
   0.93809324  0.12006227  0.43447801
   0.42928914  0.12295589  0.30038633
   0.18799632  0.11997294  0.43454729
   0.56314645  0.04179716  0.87554955
   0.18867333  0.95676192  0.56524070
   0.69037053  0.78689389  0.12481857
   0.56270561  0.53143376  0.12461727
   0.30863207  0.03746981  0.38906642
   0.69288082  0.11404713  0.16713912
   0.80897485  0.20489125  0.21191844
   0.06610844  0.53696077  0.25616325
   0.56272641  0.70569864  0.47862813
   0.06358756  0.20734270  0.56544669
   0.55434353  0.37295401  0.30037081
   0.44135710  0.95197938  0.34497181
   0.18346592  0.96258405  0.83314182
   0.44250610  0.61271212  0.16717683
   0.93503042  0.45452204  0.21201027
   0.06327513  0.53300468  0.12448159
   0.81338564  0.37153845  0.52125651
   0.92929439  0.62310818  0.30037524
   0.31580679  0.03680009  0.25614034
   0.68841483  0.79117653  0.61063620
   0.18341390  0.46265435  0.83315305
   0.44201459  0.11306908  0.16696883
   0.31346498  0.37173180  0.52127332
   0.44179746  0.62260524  0.78837811
   0.06629002  0.03744220  0.25590021
   0.56350282  0.70772817  0.56539923
   0.93508072  0.29070793  0.74407079
   0.69156397  0.12236802  0.78852985
   0.18347769  0.45519211  0.21187903
   0.93363139  0.78747015  0.38906949
   0.68864985  0.29372638  0.87565189
   0.31837325  0.86386752  0.16711453
   0.43885536  0.45761355  0.69956781
   0.94153017  0.95218298  0.34496884
   0.68842054  0.62152211  0.52126903
   0.05975750  0.87562881  0.65486973
   0.06673358  0.87239725  0.78843952
   0.05901995  0.37582227  0.65489876
   0.68780284  0.45571764  0.47862151
   0.19121659  0.78674602  0.25620030
   0.43745767  0.12012292  0.43442994
   0.81362974  0.03286843  0.12450535
   0.93846343  0.62139915  0.52124297
   0.06296073  0.86949291  0.43444683
   0.81246944  0.53261441  0.12457986
   0.44122243  0.45203070  0.34501867
   0.81644028  0.20198958  0.34495786
   0.31641521  0.70190082  0.34496226
   0.68486371  0.12571043  0.65480693
   0.55433345  0.87320044  0.30030004
   0.05984739  0.54071680  0.74399735
   0.93455035  0.95463934  0.21195138
   0.80986050  0.70501624  0.21172942
   0.05431313  0.87312123  0.30035085
   0.17947244  0.12321024  0.30026000
   0.06641275  0.70206711  0.34496064
   0.81334150  0.04100095  0.61064073
   0.06335785  0.36998156  0.43429869
   0.56632084  0.20175599  0.34492989
   0.80429352  0.37297086  0.30038579
   0.43784254  0.95588758  0.47857393
   0.55856475  0.53716251  0.38905164
   0.06270576  0.20579310  0.47860832
   0.31655437  0.87235695  0.78838882
   0.93833163  0.95798588  0.69959182
   0.05433086  0.37300618  0.30035829
   0.68494185  0.62453572  0.65478591
   0.68870906  0.45751156  0.56537465
   0.43475938  0.95508355  0.21197054
   0.31290910  0.20579467  0.47856216
   0.43454296  0.12523276  0.65482763
   0.68799413  0.62043896  0.43441652
   0.81438537  0.20851244  0.69955150
   0.81276876  0.70564959  0.47862281
   0.81305664  0.86998926  0.43446006
   0.93768465  0.95579233  0.47862125
   0.56259515  0.20556891  0.47857047
   0.18813099  0.62023669  0.43437385
   0.30979053  0.04057813  0.74400337
   0.93457083  0.62499633  0.65486115
   0.55845312  0.71272688  0.83314611
   0.30433171  0.37295500  0.30035909
   0.55887886  0.70475664  0.21184063
   0.18772398  0.45568400  0.47862372
   0.31310241  0.04184091  0.87552476
   0.18871573  0.45798342  0.69963757
   0.81326842  0.54195371  0.87555172
   0.18346069  0.28763085  0.38906528
   0.43805125  0.62034827  0.43444409
   0.05875255  0.70511601  0.21184376
   0.56320445  0.36949867  0.43450085
   0.43848774  0.62141677  0.52123438
   0.80846562  0.71271452  0.83315639
   0.06641278  0.37219492  0.78843511
   0.43875186  0.29400825  0.87559821
   0.31252766  0.03249130  0.12461221
   0.68775559  0.12034987  0.43443959
   0.19118404  0.95194678  0.34501528
   0.05850266  0.21278318  0.83316686
   0.56328425  0.04093806  0.61065821
   0.68380983  0.45456975  0.21198433
   0.18486315  0.79064278  0.74402838
   0.17940262  0.62308182  0.30032349
   0.43372304  0.78753414  0.38905031
   0.44131895  0.28708677  0.25622399
   0.06289591  0.54174491  0.87554258
   0.55985665  0.04061945  0.74400298
   0.18859790  0.79397199  0.87560408
   0.93775373  0.45569259  0.47865451
   0.80853840  0.53735480  0.38908052
   0.81375720  0.20751917  0.56541283
   0.19253234  0.62235875  0.78857827
   0.05851745  0.53761047  0.38907755
   0.06326633  0.70800219  0.69962362
   0.31561469  0.53664289  0.25609851
   0.30974830  0.70530744  0.21183523
   0.56766883  0.86445620  0.16707712
   0.55953399  0.54061991  0.74396593
   0.69148315  0.45195510  0.34501619
   0.93876391  0.29392339  0.87562133
   0.56652795  0.03686397  0.25590444
   0.68269663  0.28778625  0.38898712
   0.31952516  0.36407541  0.16657603
   0.81968488  0.36303741  0.16647234
   0.94007984  0.45706914  0.69987075
   0.94027082  0.78897709  0.12487574
   0.80830744  0.37528118  0.65448882
   0.18784903  0.95566555  0.47854500
Direct configuration=     2
   0.06196925  0.03194092  0.12463946
   0.06304858  0.87155067  0.52128540
   0.19112414  0.12267321  0.78835919
   0.43388903  0.28766660  0.38912661
   0.30871338  0.71246394  0.83318897
   0.80872721  0.21243801  0.83320418
   0.18385147  0.78768690  0.38913543
   0.56282088  0.20736012  0.56541105
   0.06008982  0.04063364  0.74400601
   0.81334525  0.87178044  0.52136185
   0.18511651  0.29067598  0.74397970
   0.94064327  0.45223198  0.34496954
   0.93393441  0.28765433  0.38912267
   0.81302770  0.04210304  0.87550045
   0.18841379  0.79097189  0.61062866
   0.55888314  0.03730864  0.38910851
   0.93368839  0.96248262  0.83316183
   0.31298400  0.54204866  0.87550116
   0.68544164  0.29095642  0.74406837
   0.19188353  0.61414543  0.16691572
   0.81292658  0.20552902  0.47853903
   0.81331599  0.54066929  0.61062260
   0.31308259  0.87017816  0.43439576
   0.81562710  0.03676419  0.25611875
   0.69054760  0.95269001  0.34514869
   0.94156144  0.11280402  0.16681101
   0.93848717  0.12158180  0.52130515
   0.56545314  0.53665112  0.25613010
   0.68855438  0.79389733  0.87554415
   0.56830559  0.36530137  0.16688576
   0.43540849  0.79091759  0.74401498
   0.81356414  0.70764607  0.56535960
   0.56638757  0.87275639  0.78834169
   0.68835013  0.12176383  0.52133982
   0.19089267  0.28739160  0.25592065
   0.93376552  0.46236069  0.83318179
   0.06308216  0.20801744  0.69958658
   0.43882042  0.95763157  0.69964174
   0.30871161  0.21236076  0.83318974
   0.43483759  0.62555706  0.65483123
   0.31328930  0.54097565  0.61063881
   0.93891082  0.45715010  0.56544503
   0.68509040  0.79072029  0.74400472
   0.30947895  0.87561922  0.65488470
   0.68409006  0.78746185  0.38910481
   0.93534151  0.79075435  0.74401750
   0.06589701  0.20219900  0.34500990
   0.80862557  0.03757366  0.38912342
   0.44145137  0.12244217  0.78843345
   0.06004955  0.20503556  0.21192879
   0.06823681  0.36467448  0.16680115
   0.94111842  0.78737189  0.25626597
   0.56357492  0.20759515  0.69960062
   0.68829492  0.95783181  0.69960743
   0.43993257  0.78715682  0.12466753
   0.43878045  0.95728447  0.56548846
   0.81586033  0.37282589  0.78836542
   0.69098783  0.28728690  0.25616871
   0.18860884  0.45737842  0.56541611
   0.06763923  0.86384539  0.16687133
   0.18888485  0.29061329  0.61058982
   0.56579910  0.70262197  0.34498921
   0.31360275  0.20780469  0.69967819
   0.56291154  0.54207739  0.87548449
   0.06362401  0.70717987  0.56547829
   0.69136097  0.62243919  0.78846422
   0.30895900  0.53772797  0.38911652
   0.18837721  0.62187011  0.52133784
   0.56284540  0.87031658  0.43446394
   0.43864899  0.45736977  0.56540119
   0.43534075  0.29079488  0.74402788
   0.80519926  0.87298477  0.30030293
   0.81592001  0.70246850  0.34511351
   0.43371117  0.46234128  0.83318898
   0.68776790  0.95549105  0.47855983
   0.68877247  0.45767585  0.69968365
   0.56328746  0.87173917  0.52132791
   0.55948803  0.37551829  0.65489038
   0.80988230  0.87524022  0.65480343
   0.81289636  0.36986684  0.43441658
   0.81520205  0.53669715  0.25603360
   0.68371171  0.46232531  0.83319113
   0.19127418  0.78649959  0.12484232
   0.06300929  0.04202653  0.87549798
   0.30932538  0.37556486  0.65492950
   0.31566458  0.20247321  0.34499533
   0.80985738  0.54055392  0.74397521
   0.68364177  0.96233228  0.83318445
   0.55937560  0.87561726  0.65491686
   0.31354977  0.70696688  0.56556014
   0.31354224  0.53175300  0.12451295
   0.68490131  0.95474139  0.21197802
   0.31375449  0.20763771  0.56556726
   0.31014885  0.54091732  0.74395430
   0.68859138  0.95745528  0.56544961
   0.43815113  0.79104659  0.61062083
   0.69310855  0.61402410  0.16699051
   0.30525648  0.87295288  0.30035406
   0.31261277  0.70515277  0.47851524
   0.93850740  0.29120495  0.61058939
   0.43023616  0.62300233  0.30036480
   0.81811524  0.86345608  0.16684346
   0.56015055  0.20501336  0.21185226
   0.94259930  0.61394850  0.16675647
   0.93852519  0.79340871  0.87559271
   0.56638237  0.37246954  0.78838016
   0.06333211  0.37179924  0.52132372
   0.56338210  0.37149387  0.52131941
   0.68023798  0.12297725  0.30035915
   0.43368993  0.96232557  0.83319994
   0.19122859  0.28675903  0.12469672
   0.81611139  0.87248551  0.78839590
   0.31262643  0.37043462  0.43440794
   0.56272667  0.03176560  0.12479610
   0.43816499  0.29110318  0.61063153
   0.19083468  0.45194240  0.34502148
   0.43976844  0.28705029  0.12465188
   0.69084390  0.78691475  0.25621119
   0.18876740  0.95755912  0.69965053
   0.18862176  0.29359640  0.87558594
   0.18476761  0.12511437  0.65475227
   0.93435688  0.12562836  0.65489117
   0.30926219  0.20468653  0.21183193
   0.05889892  0.03735657  0.38909568
   0.19355888  0.11470621  0.16722721
   0.06290637  0.54087086  0.61062840
   0.94084679  0.28742552  0.25590703
   0.56343436  0.54090698  0.61068961
   0.93859194  0.95746218  0.56547715
   0.68010195  0.62326554  0.30025647
   0.93792556  0.62007311  0.43442206
   0.94143861  0.62272338  0.78837529
   0.56380108  0.70811390  0.69965531
   0.05863952  0.71237315  0.83317909
   0.93024478  0.12296549  0.30035344
   0.93809388  0.79141013  0.61060602
   0.44118194  0.78699778  0.25616113
   0.31620762  0.37273411  0.78834738
   0.43536425  0.45494878  0.21198123
   0.18847929  0.12208581  0.52130612
   0.81408959  0.70737986  0.69965385
   0.06370406  0.04069475  0.61059192
   0.55876330  0.21252211  0.83317469
   0.31361354  0.87158940  0.52126669
   0.69079351  0.28714768  0.12466409
   0.18567126  0.95481333  0.21199047
   0.68825908  0.29118151  0.61064056
   0.31309530  0.04070333  0.61065713
   0.94120528  0.12219247  0.78856143
   0.43860885  0.79372747  0.87562020
   0.81017215  0.04060039  0.74402580
   0.43831512  0.12165715  0.52132990
   0.18486556  0.62552102  0.65486799
   0.31322685  0.70810893  0.69960118
   0.93938061  0.28656587  0.12457286
   0.43791178  0.45549195  0.47855763
   0.06298539  0.70521606  0.47852498
   0.93803311  0.12017942  0.43443009
   0.42993878  0.12277315  0.30039273
   0.18794105  0.12016865  0.43448430
   0.56301967  0.04202970  0.87550340
   0.18860884  0.95676640  0.56525916
   0.69015208  0.78623095  0.12485405
   0.56296956  0.53184776  0.12466317
   0.30889202  0.03736186  0.38913583
   0.69261256  0.11429537  0.16711392
   0.80926697  0.20463005  0.21191852
   0.06564536  0.53699467  0.25615402
   0.56270331  0.70547024  0.47854117
   0.06353271  0.20720926  0.56547694
   0.55502758  0.37279309  0.30038245
   0.44077397  0.95218109  0.34499058
   0.18376642  0.96233479  0.83318357
   0.44226101  0.61325240  0.16713961
   0.93527245  0.45441806  0.21201839
   0.06359739  0.53320182  0.12453940
   0.81334251  0.37172928  0.52133472
   0.92997461  0.62290253  0.30038616
   0.31543533  0.03680572  0.25613860
   0.68830786  0.79116965  0.61060358
   0.18370983  0.46235860  0.83319553
   0.44181080  0.11350249  0.16695556
   0.31341209  0.37188642  0.52134202
   0.44144291  0.62279579  0.78834569
   0.06578323  0.03733173  0.25593735
   0.56348861  0.70755701  0.56543775
   0.93528117  0.29071129  0.74405878
   0.69123927  0.12261270  0.78847948
   0.18387712  0.45508320  0.21191767
   0.93396356  0.78743868  0.38912768
   0.68850069  0.29364835  0.87559855
   0.31816084  0.86422562  0.16706425
   0.43871641  0.45764672  0.69957934
   0.94094687  0.95239294  0.34498452
   0.68836698  0.62172743  0.52134239
   0.05995619  0.87553709  0.65486066
   0.06638697  0.87258992  0.78839889
   0.05940371  0.37569732  0.65488638
   0.68780233  0.45551295  0.47853978
   0.19076671  0.78676192  0.25618723
   0.43745321  0.12022869  0.43438979
   0.81365690  0.03336594  0.12456923
   0.93840950  0.62168024  0.52131752
   0.06285477  0.86968420  0.43440492
   0.81261445  0.53287460  0.12458335
   0.44071568  0.45223414  0.34503293
   0.81590007  0.20220032  0.34497258
   0.31587279  0.70209729  0.34499520
   0.68501376  0.12553346  0.65480899
   0.55502071  0.87302994  0.30031587
   0.06008316  0.54075301  0.74399122
   0.93486713  0.95455377  0.21195628
   0.81006519  0.70470882  0.21175142
   0.05502213  0.87294751  0.30036201
   0.18012730  0.12300246  0.30028147
   0.06584122  0.70227582  0.34497640
   0.81325469  0.04102414  0.61060991
   0.06321875  0.37014135  0.43429197
   0.56577242  0.20201734  0.34496111
   0.80500063  0.37281295  0.30039026
   0.43793619  0.95569945  0.47848979
   0.55885402  0.53718506  0.38911874
   0.06262485  0.20559592  0.47851958
   0.31621416  0.87258993  0.78835680
   0.93824841  0.95794219  0.69959173
   0.05500806  0.37282477  0.30036706
   0.68511568  0.62466307  0.65479668
   0.68863319  0.45740296  0.56540796
   0.43504530  0.95492138  0.21197651
   0.31298999  0.20562213  0.47848952
   0.43475539  0.12512430  0.65482407
   0.68795413  0.62045539  0.43438299
   0.81406706  0.20835691  0.69956422
   0.81284730  0.70543358  0.47853608
   0.81299734  0.87008848  0.43442353
   0.93761569  0.95561798  0.47852455
   0.56260998  0.20539263  0.47850443
   0.18803582  0.62037181  0.43434860
   0.31004292  0.04065691  0.74398661
   0.93482848  0.62502977  0.65485277
   0.55876969  0.71244780  0.83317540
   0.30501452  0.37276937  0.30036102
   0.55924876  0.70456134  0.21186613
   0.18773629  0.45551105  0.47853572
   0.31298483  0.04206458  0.87548291
   0.18867221  0.45793638  0.69962888
   0.81312140  0.54215702  0.87550425
   0.18373987  0.28764421  0.38911627
   0.43799095  0.62040648  0.43440992
   0.05916925  0.70487693  0.21185519
   0.56310428  0.36975147  0.43445844
   0.43843391  0.62170984  0.52131291
   0.80877156  0.71243145  0.83319667
   0.06611113  0.37244725  0.78839938
   0.43858269  0.29390283  0.87554791
   0.31273628  0.03290636  0.12466985
   0.68776021  0.12036073  0.43441199
   0.19066608  0.95219427  0.34502978
   0.05880017  0.21251739  0.83320517
   0.56318614  0.04091649  0.61061740
   0.68416618  0.45454128  0.21200739
   0.18514713  0.79071032  0.74400985
   0.18004739  0.62290869  0.30034118
   0.43392727  0.78747187  0.38910212
   0.44082049  0.28700867  0.25621166
   0.06279898  0.54197941  0.87549679
   0.56012636  0.04069866  0.74398322
   0.18844995  0.79386119  0.87555293
   0.93771755  0.45546659  0.47856157
   0.80886701  0.53734147  0.38914542
   0.81368860  0.20740787  0.56543829
   0.19204752  0.62259893  0.78853043
   0.05878955  0.53764410  0.38913817
   0.06322564  0.70799463  0.69962048
   0.31524176  0.53664896  0.25610325
   0.30996752  0.70496934  0.21185032
   0.56749199  0.86471893  0.16703371
   0.55980092  0.54071697  0.74395922
   0.69093025  0.45220018  0.34503199
   0.93860173  0.29381852  0.87557105
   0.56603379  0.03685091  0.25592198
   0.68307040  0.28773894  0.38904473
   0.31920448  0.36426834  0.16652949
   0.81933233  0.36331683  0.16644428
   0.93979250  0.45721011  0.69985986
   0.94028424  0.78830760  0.12491187
   0.80861982  0.37522077  0.65450547
   0.18781786  0.95548012  0.47850796
Direct configuration=     3
   0.06320167  0.03299564  0.12480819
   0.06322353  0.87232958  0.52149922
   0.19015378  0.12338991  0.78826782
   0.43453785  0.28754261  0.38931911
   0.30967908  0.71172232  0.83328451
   0.80968591  0.21171749  0.83332666
   0.18482665  0.78771407  0.38933606
   0.56297447  0.20680475  0.56547345
   0.06077250  0.04068985  0.74394155
   0.81329036  0.87221694  0.52157790
   0.18588744  0.29088545  0.74392639
   0.93891989  0.45280431  0.34508025
   0.93490623  0.28751098  0.38931510
   0.81266647  0.04275979  0.87536022
   0.18799044  0.79098316  0.61051740
   0.55979828  0.03722422  0.38933422
   0.93458167  0.96166373  0.83327700
   0.31266915  0.54278625  0.87535791
   0.68615498  0.29092799  0.74395375
   0.19114223  0.61514027  0.16679335
   0.81298590  0.20495207  0.47830152
   0.81310784  0.54094750  0.61045187
   0.31305048  0.87040281  0.43426401
   0.81445757  0.03679520  0.25611926
   0.68909097  0.95314637  0.34514195
   0.94117521  0.11386441  0.16676932
   0.93848561  0.12250662  0.52153790
   0.56431354  0.53686502  0.25611361
   0.68806646  0.79355543  0.87540438
   0.56743179  0.36603422  0.16680895
   0.43600107  0.79091681  0.74394271
   0.81335922  0.70736133  0.56546449
   0.56527839  0.87329033  0.78824074
   0.68823535  0.12255203  0.52154141
   0.18966166  0.28734991  0.25602140
   0.93463177  0.46161620  0.83330356
   0.06300137  0.20764515  0.69958429
   0.43812080  0.95769041  0.69961616
   0.30967206  0.21167945  0.83327355
   0.43549650  0.62541124  0.65485105
   0.31307496  0.54093981  0.61053719
   0.93853668  0.45685085  0.56554620
   0.68585328  0.79085912  0.74394246
   0.31045913  0.87531263  0.65483983
   0.68485665  0.78737737  0.38932432
   0.93593514  0.79083707  0.74392442
   0.06421745  0.20280742  0.34507178
   0.80964577  0.03755868  0.38934035
   0.44022944  0.12330430  0.78830361
   0.06081998  0.20419232  0.21187717
   0.06741388  0.36569253  0.16670178
   0.93961205  0.78715715  0.25617277
   0.56325653  0.20753772  0.69959412
   0.68789669  0.95757776  0.69961319
   0.44024187  0.78544650  0.12489209
   0.43857219  0.95704929  0.56561056
   0.81513931  0.37329938  0.78827611
   0.68953202  0.28711593  0.25611809
   0.18840162  0.45692480  0.56552140
   0.06675294  0.86493319  0.16681400
   0.18827661  0.29065836  0.61045211
   0.56412935  0.70313579  0.34507208
   0.31316808  0.20758422  0.69961612
   0.56253467  0.54279634  0.87535323
   0.06334982  0.70678414  0.56561810
   0.69025403  0.62338763  0.78836016
   0.30987568  0.53782596  0.38931139
   0.18831302  0.62267204  0.52153358
   0.56273391  0.87048442  0.43432437
   0.43858899  0.45692133  0.56553348
   0.43591091  0.29089048  0.74392339
   0.80716082  0.87252337  0.30039973
   0.81418637  0.70302045  0.34517934
   0.43459124  0.46154275  0.83330772
   0.68786065  0.95491455  0.47831644
   0.68795014  0.45760912  0.69963151
   0.56316600  0.87237262  0.52154188
   0.55998997  0.37516121  0.65486538
   0.81043516  0.87504808  0.65482388
   0.81282918  0.37045487  0.43434130
   0.81408799  0.53690916  0.25610906
   0.68457170  0.46155369  0.83333493
   0.19123763  0.78425522  0.12495039
   0.06261875  0.04271707  0.87536470
   0.31015801  0.37519120  0.65487586
   0.31405408  0.20279333  0.34503422
   0.81075568  0.54075674  0.74398098
   0.68453761  0.96154645  0.83331847
   0.56016157  0.87517162  0.65485068
   0.31341660  0.70680992  0.56567136
   0.31367287  0.53305543  0.12460897
   0.68549384  0.95458959  0.21200214
   0.31349273  0.20724396  0.56569123
   0.31093596  0.54096884  0.74393989
   0.68829377  0.95723505  0.56556454
   0.43797490  0.79092123  0.61050877
   0.69222323  0.61498386  0.16693464
   0.30711474  0.87237437  0.30037875
   0.31281303  0.70454504  0.47826775
   0.93825312  0.29104368  0.61043335
   0.43211100  0.62234606  0.30040507
   0.81792034  0.86459086  0.16679631
   0.56076854  0.20428970  0.21189784
   0.94178746  0.61547817  0.16682597
   0.93807429  0.79322508  0.87544182
   0.56516458  0.37320362  0.78827854
   0.06329647  0.37234471  0.52153399
   0.56339043  0.37243304  0.52153356
   0.68224419  0.12239607  0.30040239
   0.43457913  0.96148844  0.83331456
   0.19119633  0.28510540  0.12477679
   0.81513054  0.87313286  0.78824396
   0.31276608  0.37073660  0.43431707
   0.56341855  0.03257947  0.12488022
   0.43788471  0.29089518  0.61050766
   0.18915180  0.45260338  0.34512981
   0.43954206  0.28510426  0.12477760
   0.68958456  0.78670439  0.25615203
   0.18835556  0.95763194  0.69965659
   0.18810755  0.29333304  0.87543620
   0.18551793  0.12500514  0.65477168
   0.93543040  0.12518030  0.65484309
   0.31036914  0.20408454  0.21189525
   0.05976069  0.03714136  0.38931313
   0.19234615  0.11511680  0.16704798
   0.06266669  0.54085525  0.61048868
   0.93934927  0.28726673  0.25602856
   0.56305670  0.54103478  0.61052833
   0.93836303  0.95716411  0.56563205
   0.68204778  0.62264922  0.30030627
   0.93773732  0.62045648  0.43432208
   0.94032630  0.62335263  0.78829931
   0.56325427  0.70795250  0.69962492
   0.05960124  0.71156778  0.83328954
   0.93227770  0.12224008  0.30034913
   0.93799853  0.79133861  0.61047775
   0.43959112  0.78689314  0.25612589
   0.31508362  0.37328780  0.78824060
   0.43600391  0.45450040  0.21201213
   0.18826096  0.12257122  0.52152099
   0.81316420  0.70744887  0.69960389
   0.06328635  0.04084107  0.61047551
   0.55965531  0.21169703  0.83328400
   0.31348821  0.87215136  0.52150669
   0.69103055  0.28541060  0.12475409
   0.18617006  0.95450739  0.21203395
   0.68802211  0.29101514  0.61047614
   0.31292627  0.04080016  0.61051913
   0.94021775  0.12298736  0.78841682
   0.43816500  0.79344735  0.87545895
   0.81087489  0.04056919  0.74397380
   0.43803835  0.12233608  0.52155313
   0.18543207  0.62536893  0.65485115
   0.31311123  0.70808402  0.69962236
   0.93937954  0.28522067  0.12466495
   0.43811606  0.45494242  0.47831315
   0.06282502  0.70441492  0.47825665
   0.93785273  0.12053088  0.43428634
   0.43188772  0.12222492  0.30041192
   0.18777526  0.12075578  0.43429531
   0.56263935  0.04272731  0.87536495
   0.18841536  0.95677985  0.56531452
   0.68949672  0.78424214  0.12496048
   0.56376141  0.53308975  0.12480089
   0.30967189  0.03703802  0.38934404
   0.69180778  0.11504006  0.16703832
   0.81014335  0.20384643  0.21191877
   0.06425610  0.53709639  0.25612635
   0.56263402  0.70478503  0.47828028
   0.06336815  0.20680893  0.56556772
   0.55707973  0.37231032  0.30041737
   0.43902456  0.95278619  0.34504692
   0.18466791  0.96158699  0.83330883
   0.44152576  0.61487322  0.16702794
   0.93599853  0.45410610  0.21204275
   0.06456416  0.53379321  0.12471281
   0.81321312  0.37230176  0.52156936
   0.93201530  0.62228557  0.30041891
   0.31432093  0.03682260  0.25613339
   0.68798696  0.79114901  0.61050572
   0.18459761  0.46147132  0.83332297
   0.44119942  0.11480273  0.16691576
   0.31325344  0.37235030  0.52154810
   0.44037926  0.62336745  0.78824844
   0.06426285  0.03700033  0.25604877
   0.56344596  0.70704352  0.56555330
   0.93588252  0.29072137  0.74402278
   0.69026519  0.12334674  0.78832839
   0.18507539  0.45475647  0.21203360
   0.93496005  0.78734427  0.38930226
   0.68805320  0.29341426  0.87543851
   0.31752360  0.86529992  0.16691342
   0.43829957  0.45774623  0.69961395
   0.93919695  0.95302283  0.34503155
   0.68820629  0.62234337  0.52156249
   0.06055227  0.87526192  0.65483347
   0.06534715  0.87316794  0.78827698
   0.06055499  0.37532248  0.65484924
   0.68780078  0.45489889  0.47829459
   0.18941705  0.78680963  0.25614803
   0.43743983  0.12054602  0.43426937
   0.81373839  0.03485845  0.12476088
   0.93824771  0.62252351  0.52154117
   0.06253688  0.87025806  0.43427920
   0.81304948  0.53365519  0.12459380
   0.43919541  0.45284447  0.34507569