unknown system                          
           1
     9.726678    0.000000    0.000000
     0.000000    8.423550    0.000000
     0.000000    0.000000   45.000000
   Fe   Mn
 274  14
Direct configuration=     1
   0.06239499  0.03052282  0.12422523
   0.31636793  0.87488269  0.65500059
   0.18543677  0.12234978  0.78854581
   0.44140004  0.28764670  0.38913107
   0.31814753  0.71210880  0.83323400
   0.81812949  0.21429847  0.83339033
   0.19136590  0.96297290  0.83361988
   0.56239376  0.20700208  0.56554769
   0.06503385  0.03959415  0.74409219
   0.81160431  0.87129672  0.52139406
   0.19072588  0.29109921  0.74426933
   0.93353398  0.45244607  0.34480802
   0.94119226  0.28643392  0.38888953
   0.81322202  0.03976625  0.87572128
   0.18364983  0.78799057  0.61091036
   0.56619723  0.03795596  0.38899596
   0.94197824  0.96372108  0.83379820
   0.31396042  0.54085942  0.87589609
   0.68959923  0.29117099  0.74424214
   0.18191562  0.61400379  0.16662236
   0.81220052  0.20569848  0.47866917
   0.80892134  0.53842354  0.61102539
   0.31203281  0.87034451  0.43449624
   0.80905967  0.03815653  0.25582197
   0.68333831  0.95211969  0.34474682
   0.93135251  0.11398892  0.16675655
   0.06174265  0.87132436  0.52141020
   0.55833474  0.53799477  0.25585836
   0.68584629  0.79538079  0.87580682
   0.55605084  0.36490262  0.16658254
   0.43912098  0.79089433  0.74429201
   0.81141682  0.70665298  0.56549855
   0.55993105  0.87363711  0.78846164
   0.68656262  0.12151199  0.52140583
   0.81630530  0.37493852  0.65506703
   0.94229388  0.46317567  0.83382659
   0.06057282  0.20803741  0.69963189
   0.43520711  0.95819626  0.69963936
   0.31607668  0.21204126  0.83330735
   0.44119164  0.62485114  0.65498014
   0.30880396  0.53808316  0.61094071
   0.93662907  0.45630269  0.56557881
   0.69015941  0.79177031  0.74425325
   0.93515953  0.78812112  0.12447776
   0.69150642  0.78784191  0.38906287
   0.94026583  0.79081959  0.74446474
   0.05904888  0.20301617  0.34485526
   0.68370017  0.45236069  0.34493185
   0.43458374  0.12127097  0.78871274
   0.06504774  0.20542669  0.21129662
   0.05544181  0.36527160  0.16674735
   0.93321209  0.78782116  0.25557217
   0.56087244  0.20757196  0.69972857
   0.68533948  0.95805980  0.69967971
   0.80964757  0.87343797  0.78846689
   0.43692802  0.95722802  0.56537310
   0.81125406  0.37375543  0.78835013
   0.68390928  0.28836575  0.25590767
   0.18743378  0.45708991  0.56547534
   0.05564789  0.86526520  0.16673415
   0.18382192  0.28836684  0.61100060
   0.06233171  0.20722809  0.56539905
   0.31082502  0.20763811  0.69978198
   0.30635803  0.86373886  0.16691216
   0.06201288  0.70656464  0.56556485
   0.68451598  0.62231506  0.78836936
   0.31578401  0.53825291  0.38894000
   0.18708634  0.62122222  0.52152535
   0.56234047  0.87043342  0.43440572
   0.43676837  0.45696617  0.56554016
   0.43950023  0.29193732  0.74438391
   0.81928602  0.87489842  0.30009580
   0.80877334  0.70275301  0.34491445
   0.44184038  0.46301915  0.83355912
   0.68742981  0.95566876  0.47867299
   0.68534047  0.45789851  0.69971678
   0.56195700  0.87183194  0.52149543
   0.56634351  0.37489392  0.65497866
   0.81620465  0.87486002  0.65505257
   0.81175598  0.37120879  0.43426136
   0.80890664  0.53784345  0.25584766
   0.69154003  0.46260369  0.83348370
   0.18563708  0.78744441  0.12425569
   0.69131871  0.28728178  0.38896876
   0.31630542  0.37469369  0.65493555
   0.30908597  0.20251479  0.34477618
   0.81556126  0.54013336  0.74412400
   0.69158741  0.96232512  0.83347963
   0.56595149  0.87473252  0.65506217
   0.31174192  0.70707945  0.56547155
   0.31152906  0.53128915  0.12418070
   0.69016226  0.95518922  0.21169532
   0.31144609  0.20655885  0.56552752
   0.18736942  0.95576274  0.47870259
   0.68740051  0.95710797  0.56554252
   0.43399191  0.78837455  0.61094603
   0.68210622  0.61195853  0.16665669
   0.31886351  0.87400076  0.29990355
   0.31222627  0.70554444  0.47865138
   0.93365994  0.28790623  0.61094328
   0.44546614  0.62391583  0.30019760
   0.80720088  0.86417057  0.16687698
   0.56659960  0.20308046  0.21144954
   0.93254150  0.61306237  0.16677203
   0.43737174  0.95573547  0.47865652
   0.56045204  0.37296940  0.78857344
   0.06158390  0.37179900  0.52137736
   0.30633887  0.36444513  0.16675585
   0.69435881  0.12373611  0.30017125
   0.44269094  0.96290512  0.83334323
   0.18545382  0.28684551  0.12422488
   0.18398709  0.28856281  0.25594433
   0.31244683  0.37026677  0.43441530
   0.56217389  0.03228874  0.12436093
   0.43371245  0.28795783  0.61093689
   0.18364647  0.45269206  0.34494241
   0.43391552  0.28681018  0.12430019
   0.68362046  0.78845002  0.25589209
   0.43670143  0.12144967  0.52139604
   0.18836544  0.29467422  0.87589101
   0.19130532  0.12491182  0.65506097
   0.94139227  0.12512440  0.65507287
   0.81636904  0.53770239  0.38902043
   0.06644555  0.03776632  0.38911100
   0.18230086  0.11355473  0.16661120
   0.05871550  0.53791229  0.61097335
   0.93366545  0.28789642  0.25586925
   0.55866418  0.53795740  0.61093132
   0.93667665  0.95723841  0.56549501
   0.69427880  0.62486355  0.30006245
   0.93746640  0.62018191  0.43445633
   0.93425453  0.62341101  0.78814189
   0.56073032  0.70729360  0.69965719
   0.06542089  0.71604683  0.83385040
   0.94426348  0.12354718  0.30005998
   0.93359016  0.78761986  0.61096078
   0.43329494  0.78826851  0.25576655
   0.30938761  0.37310248  0.78843878
   0.44047639  0.45534764  0.21156556
   0.18677463  0.12154165  0.52143041
   0.81043432  0.70774772  0.69969319
   0.05872264  0.03776508  0.61090816
   0.56589538  0.21383433  0.83339531
   0.31173236  0.87147624  0.52141567
   0.68547611  0.28748940  0.12417781
   0.19082568  0.95578678  0.21159910
   0.68383540  0.28826419  0.61102396
   0.30885753  0.03816986  0.61104629
   0.93479467  0.12323386  0.78849249
   0.43616870  0.79531694  0.87595945
   0.81484266  0.04040400  0.74412439
   0.93511562  0.45799493  0.69966982
   0.19116760  0.62479086  0.65498785
   0.31070308  0.70746351  0.69973692
   0.93498707  0.28730317  0.12423258
   0.43746469  0.45579627  0.47860705
   0.06230343  0.70560747  0.47857357
   0.93704412  0.11955047  0.43459133
   0.44345097  0.12429297  0.30028001
   0.18759314  0.11949448  0.43440276
   0.56294385  0.04005518  0.87602258
   0.18687648  0.95695255  0.56550095
   0.68367012  0.78839807  0.12460724
   0.55889056  0.70239479  0.34491418
   0.31615349  0.03674008  0.38890044
   0.68194419  0.11351553  0.16684057
   0.81585446  0.20361592  0.21131408
   0.05991064  0.53772237  0.25577100
   0.56236518  0.70573846  0.47858975
   0.43506706  0.78756687  0.12433166
   0.56866941  0.37398767  0.30018850
   0.43347467  0.95261672  0.34493846
   0.18524493  0.95792696  0.69984225
   0.43187301  0.61355693  0.16649070
   0.94063930  0.45516192  0.21173951
   0.06225493  0.53121565  0.12412562
   0.81170109  0.37186466  0.52138236
   0.94450669  0.62461638  0.29994047
   0.30958087  0.03808867  0.25554946
   0.68380110  0.78797878  0.61093545
   0.19141459  0.46264936  0.83341557
   0.43194254  0.11346253  0.16661322
   0.31161314  0.37143635  0.52139978
   0.43496726  0.62207896  0.78876230
   0.05861720  0.03808635  0.25578929
   0.56208606  0.70712229  0.56556576
   0.93920105  0.29041100  0.74428010
   0.68387229  0.12226305  0.78837119
   0.18942376  0.45520085  0.21135604
   0.94130633  0.78751213  0.38896951
   0.68492618  0.29687978  0.87596393
   0.55633082  0.86396403  0.16657492
   0.43566181  0.45800168  0.69964823
   0.93435501  0.95186293  0.34480565
   0.68658549  0.62119488  0.52129302
   0.06616198  0.87461360  0.65496182
   0.06003168  0.87327888  0.78855422
   0.06647535  0.37472477  0.65496530
   0.68705540  0.45556787  0.47864097
   0.18384489  0.78840396  0.25554352
   0.43706722  0.12047772  0.43443095
   0.81346588  0.03083790  0.12415566
   0.93660949  0.62155019  0.52142958
   0.44157823  0.12485120  0.65494009
   0.81243077  0.53010261  0.12427971
   0.43371555  0.45276675  0.34502788
   0.80884349  0.20251157  0.34496729
   0.30912875  0.70243272  0.34479850
   0.69105103  0.12496081  0.65498995
   0.56914853  0.87403555  0.30033197
   0.06533445  0.54045846  0.74434844
   0.94068603  0.95542609  0.21140510
   0.81618493  0.70444119  0.21150779
   0.06915028  0.87418786  0.30021670
   0.19416504  0.12422531  0.30019206
   0.05845685  0.70229194  0.34494086
   0.80886109  0.03785774  0.61091390
   0.06308333  0.37079893  0.43434560
   0.55911165  0.20270819  0.34481285
   0.81921782  0.37467213  0.30012294
   0.55952304  0.03881379  0.25553623
   0.56625993  0.53774576  0.38906328
   0.06258854  0.20574180  0.47869087
   0.31171257  0.87285866  0.78828773
   0.93537751  0.95841723  0.69966638
   0.06883646  0.37490572  0.30015433
   0.69104845  0.62492828  0.65510097
   0.68676507  0.45734218  0.56541551
   0.43989270  0.95615473  0.21185785
   0.31253473  0.20548601  0.47865726
   0.81395287  0.54056534  0.87563959
   0.68777832  0.62018692  0.43446556
   0.81089168  0.20751458  0.69978544
   0.81244742  0.70562995  0.47864697
   0.81165136  0.87083921  0.43427278
   0.93731339  0.95511065  0.47871108
   0.56229607  0.20572939  0.47864497
   0.18697748  0.61980713  0.43445093
   0.31452146  0.04108520  0.74417132
   0.94142326  0.62514049  0.65493740
   0.56635301  0.71269316  0.83348387
   0.31952943  0.37287449  0.29998875
   0.56587679  0.70369445  0.21142178
   0.18750934  0.45560277  0.47868982
   0.31402361  0.04071755  0.87591094
   0.18512878  0.45825946  0.69965310
   0.56181305  0.37142489  0.52141045
   0.19110327  0.28780263  0.38900162
   0.31575588  0.20600803  0.21131724
   0.06656988  0.70467181  0.21140152
   0.56199280  0.37062378  0.43442455
   0.43660800  0.62160113  0.52134239
   0.81624555  0.71432025  0.83345221
   0.06074132  0.37483769  0.78838734
   0.43827793  0.29521636  0.87612479
   0.31148235  0.03167913  0.12427553
   0.68807755  0.11971822  0.43429778
   0.18377187  0.95247700  0.34499633
   0.06662491  0.21401530  0.83379455
   0.55913997  0.03841004  0.61109164
   0.68970611  0.45502397  0.21180583
   0.19034046  0.79090572  0.74426238
   0.19409896  0.62447014  0.30018194
   0.44139165  0.78767852  0.38908903
   0.43346872  0.28855923  0.25578483
   0.06397980  0.53940030  0.87597292
   0.56555677  0.04068931  0.74433151
   0.18755928  0.79561641  0.87589104
   0.93731868  0.45563771  0.47867981
   0.56496911  0.54062071  0.74399219
   0.81137140  0.20682756  0.56547514
   0.18538414  0.62113332  0.78826866
   0.06669097  0.53813280  0.38911021
   0.06096166  0.70771844  0.69974988
   0.30822414  0.53729301  0.25576062
   0.31559750  0.70575963  0.21182578
   0.56369411  0.53885019  0.87572340
   0.43685943  0.62073899  0.43435943
   0.81781977  0.03915483  0.38914564
   0.93572140  0.29624852  0.87545022
   0.93766420  0.79432997  0.87557582
   0.06595308  0.03869121  0.87553579
   0.56250091  0.53049141  0.12463252
   0.80462696  0.36636370  0.16618470
   0.06209908  0.87103263  0.43442300
   0.93651819  0.12132692  0.52147724
   0.19286368  0.78748959  0.38895938
   0.31547472  0.54043341  0.74428674
Direct configuration=     2
   0.06218923  0.03100971  0.12427498
   0.31595994  0.87479836  0.65499938
   0.18561267  0.12256382  0.78849571
   0.44122302  0.28772663  0.38918709
   0.31768432  0.71193047  0.83329041
   0.81777662  0.21391862  0.83341544
   0.19100912  0.96269236  0.83363426
   0.56226512  0.20687533  0.56558944
   0.06474932  0.03986957  0.74408160
   0.81149764  0.87143973  0.52147402
   0.19034032  0.29109683  0.74424547
   0.93403279  0.45270461  0.34482550
   0.94089573  0.28662817  0.38896307
   0.81309513  0.04053340  0.87568835
   0.18399516  0.78817053  0.61083870
   0.56590641  0.03800257  0.38906167
   0.94187132  0.96343716  0.83378236
   0.31386872  0.54149754  0.87583762
   0.68947229  0.29107967  0.74422252
   0.18222247  0.61444912  0.16657779
   0.81219113  0.20560438  0.47860624
   0.80919046  0.53846733  0.61094829
   0.31219597  0.87047166  0.43446632
   0.80946475  0.03807720  0.25583184
   0.68388214  0.95238363  0.34476887
   0.93167578  0.11429705  0.16670662
   0.06187854  0.87147628  0.52147161
   0.55885266  0.53800123  0.25586089
   0.68614551  0.79499669  0.87576676
   0.55634485  0.36512529  0.16652065
   0.43908894  0.79098116  0.74426446
   0.81148937  0.70656682  0.56554159
   0.56024152  0.87369156  0.78841491
   0.68654937  0.12158762  0.52146845
   0.81592740  0.37481556  0.65505713
   0.94211598  0.46294894  0.83380284
   0.06077364  0.20794062  0.69964966
   0.43546342  0.95806634  0.69965738
   0.31581841  0.21180109  0.83337456
   0.44080748  0.62475388  0.65497829
   0.30913982  0.53824634  0.61086560
   0.93665001  0.45622978  0.56561821
   0.68993939  0.79169219  0.74422773
   0.93510603  0.78737443  0.12452626
   0.69128825  0.78780929  0.38910808
   0.94001180  0.79086191  0.74441165
   0.05951475  0.20321233  0.34485611
   0.68425088  0.45258357  0.34492034
   0.43487430  0.12179770  0.78865587
   0.06476153  0.20518440  0.21134327
   0.05582815  0.36540480  0.16665920
   0.93369561  0.78790779  0.25560639
   0.56099322  0.20756111  0.69973872
   0.68554543  0.95794554  0.69970827
   0.80993871  0.87357129  0.78841714
   0.43690917  0.95706669  0.56544578
   0.81131745  0.37373903  0.78830770
   0.68429904  0.28824952  0.25591001
   0.18730481  0.45690855  0.56552696
   0.05616615  0.86544370  0.16667396
   0.18417483  0.28845204  0.61093538
   0.06224865  0.20705347  0.56546348
   0.31101202  0.20764286  0.69979048
   0.30659822  0.86403208  0.16684786
   0.06195435  0.70644699  0.56559578
   0.68481661  0.62259884  0.78834739
   0.31559380  0.53811570  0.38901593
   0.18703397  0.62145984  0.52157193
   0.56238048  0.87058422  0.43437614
   0.43678620  0.45680992  0.56558529
   0.43940172  0.29184797  0.74433300
   0.81868166  0.87460152  0.30009997
   0.80925435  0.70287738  0.34492281
   0.44179496  0.46271297  0.83360321
   0.68744782  0.95552567  0.47860877
   0.68556643  0.45781713  0.69972434
   0.56193114  0.87189509  0.52153892
   0.56600033  0.37470872  0.65497050
   0.81582491  0.87474472  0.65505088
   0.81178955  0.37111442  0.43423560
   0.80928055  0.53779129  0.25587752
   0.69127112  0.46245160  0.83352323
   0.18560826  0.78682256  0.12432908
   0.69098791  0.28736883  0.38903247
   0.31586631  0.37459516  0.65493769
   0.30952450  0.20270523  0.34481420
   0.81527479  0.54031721  0.74409446
   0.69143320  0.96220208  0.83353089
   0.56560240  0.87464168  0.65505646
   0.31175573  0.70695483  0.56552289
   0.31131667  0.53177040  0.12421181
   0.68992194  0.95497926  0.21169868
   0.31152359  0.20652145  0.56557013
   0.18735150  0.95561083  0.47864594
   0.68733947  0.95693647  0.56559172
   0.43425152  0.78849926  0.61086849
   0.68218794  0.61248369  0.16662890
   0.31835387  0.87380299  0.29993228
   0.31219404  0.70544590  0.47857540
   0.93398335  0.28805922  0.61087002
   0.44467148  0.62373897  0.30021326
   0.80734543  0.86442290  0.16682127
   0.56624383  0.20317110  0.21150387
   0.93279280  0.61348793  0.16674511
   0.43738828  0.95551072  0.47859234
   0.56064258  0.37305891  0.78853632
   0.06160144  0.37200851  0.52144588
   0.30659050  0.36470963  0.16665589
   0.69378405  0.12359791  0.30019057
   0.44240538  0.96255165  0.83340519
   0.18544280  0.28629175  0.12430289
   0.18433143  0.28829940  0.25593562
   0.31252576  0.37038469  0.43438507
   0.56197240  0.03255113  0.12438289
   0.43402847  0.28814744  0.61085716
   0.18414328  0.45288950  0.34494027
   0.43376734  0.28621374  0.12436572
   0.68400787  0.78839896  0.25590389
   0.43673358  0.12168198  0.52145776
   0.18854939  0.29435760  0.87587326
   0.19090591  0.12480288  0.65506339
   0.94100740  0.12491940  0.65506590
   0.81603899  0.53765630  0.38907483
   0.06615500  0.03785164  0.38914982
   0.18251683  0.11397674  0.16658708
   0.05902882  0.53806266  0.61089391
   0.93407730  0.28785068  0.25586452
   0.55898506  0.53815390  0.61085188
   0.93671769  0.95699355  0.56554726
   0.69372997  0.62457748  0.30010625
   0.93748712  0.62030736  0.43440762
   0.93459356  0.62375183  0.78815069
   0.56085601  0.70729071  0.69967296
   0.06531269  0.71541819  0.83381885
   0.94368911  0.12349194  0.30008428
   0.93393458  0.78782396  0.61089802
   0.43383721  0.78822404  0.25580033
   0.30976050  0.37305429  0.78839890
   0.44019865  0.45515099  0.21159910
   0.18684021  0.12163547  0.52148856
   0.81066635  0.70773035  0.69971566
   0.05903017  0.03802290  0.61083638
   0.56571615  0.21348015  0.83343315
   0.31176929  0.87162215  0.52148990
   0.68552369  0.28677710  0.12422799
   0.19041778  0.95571870  0.21161995
   0.68410589  0.28844747  0.61095465
   0.30913517  0.03828577  0.61096567
   0.93507998  0.12350530  0.78846224
   0.43634214  0.79482639  0.87589632
   0.81467459  0.04051792  0.74411483
   0.93542393  0.45790280  0.69968683
   0.19080005  0.62471339  0.65499465
   0.31088250  0.70746539  0.69973927
   0.93487769  0.28663692  0.12428597
   0.43741681  0.45553758  0.47853528
   0.06235727  0.70535202  0.47853323
   0.93711092  0.11980024  0.43457711
   0.44308537  0.12395513  0.30027377
   0.18755964  0.11975155  0.43435188
   0.56319800  0.04068212  0.87595012
   0.18681513  0.95683249  0.56555867
   0.68383289  0.78772101  0.12464308
   0.55941104  0.70262204  0.34492569
   0.31594100  0.03693384  0.38898687
   0.68230006  0.11384982  0.16679912
   0.81552397  0.20362103  0.21137800
   0.06007068  0.53776070  0.25577815
   0.56236744  0.70562746  0.47853457
   0.43494288  0.78701175  0.12438707
   0.56820132  0.37375285  0.30018581
   0.43400752  0.95281672  0.34491530
   0.18548595  0.95788559  0.69983091
   0.43219897  0.61398033  0.16646986
   0.94035522  0.45496957  0.21175581
   0.06199447  0.53161905  0.12418159
   0.81174469  0.37199715  0.52144985
   0.94393030  0.62440631  0.29997281
   0.30984489  0.03805556  0.25559448
   0.68409243  0.78812755  0.61086824
   0.19110835  0.46247536  0.83347725
   0.43224027  0.11377472  0.16660230
   0.31163103  0.37162039  0.52146789
   0.43524299  0.62238792  0.78870168
   0.05901037  0.03801725  0.25580018
   0.56202179  0.70695440  0.56559868
   0.93914422  0.29042915  0.74425462
   0.68430906  0.12264487  0.78834333
   0.18923919  0.45511961  0.21141912
   0.94093686  0.78748213  0.38903564
   0.68528262  0.29615725  0.87590971
   0.55645997  0.86425304  0.16654569
   0.43583785  0.45785708  0.69966338
   0.93480395  0.95215547  0.34482868
   0.68656098  0.62144827  0.52137755
   0.06579415  0.87451882  0.65497544
   0.06034948  0.87341933  0.78853446
   0.06602740  0.37460135  0.65497233
   0.68709333  0.45535979  0.47854335
   0.18420539  0.78837285  0.25560690
   0.43715172  0.12059078  0.43440045
   0.81310356  0.03135902  0.12422086
   0.93664129  0.62168474  0.52149174
   0.44114657  0.12472955  0.65495677
   0.81232834  0.53071806  0.12427737
   0.43424092  0.45293158  0.34501277
   0.80932294  0.20267941  0.34495407
   0.30960790  0.70263177  0.34480755
   0.69069816  0.12483690  0.65499764
   0.56860647  0.87382337  0.30031202
   0.06499057  0.54049545  0.74428708
   0.94039476  0.95527473  0.21145513
   0.81585563  0.70437240  0.21154149
   0.06857310  0.87397357  0.30022416
   0.19359620  0.12397509  0.30017853
   0.05900200  0.70254252  0.34493495
   0.80920819  0.03806690  0.61084550
   0.06301093  0.37075749  0.43431042
   0.55958325  0.20285456  0.34484576
   0.81863087  0.37442763  0.30012999
   0.55989607  0.03866650  0.25560835
   0.56592139  0.53763690  0.38911620
   0.06256826  0.20555585  0.47861925
   0.31171978  0.87284424  0.78825759
   0.93560245  0.95827640  0.69967592
   0.06834559  0.37459434  0.30017676
   0.69070424  0.62482794  0.65509260
   0.68676093  0.45712831  0.56547454
   0.43966237  0.95591297  0.21184106
   0.31245756  0.20537165  0.47858971
   0.81400659  0.54132740  0.87561984
   0.68782045  0.62025207  0.43441566
   0.81105325  0.20750851  0.69978974
   0.81243539  0.70549435  0.47857658
   0.81167398  0.87086462  0.43426496
   0.93730202  0.95501685  0.47864782
   0.56234191  0.20549957  0.47857361
   0.18701831  0.61992999  0.43442052
   0.31436491  0.04114317  0.74415567
   0.94101369  0.62501053  0.65494991
   0.56610989  0.71229074  0.83350404
   0.31890925  0.37291571  0.30003910
   0.56560322  0.70373180  0.21146259
   0.18750809  0.45542488  0.47860982
   0.31421892  0.04146690  0.87585044
   0.18535626  0.45812359  0.69967122
   0.56183772  0.37164369  0.52147712
   0.19080516  0.28780013  0.38907062
   0.31545325  0.20571975  0.21136802
   0.06606576  0.70455128  0.21142093
   0.56208568  0.37067647  0.43439207
   0.43669886  0.62179049  0.52140147
   0.81602682  0.71393879  0.83346935
   0.06094006  0.37476218  0.78836441
   0.43819023  0.29468691  0.87604857
   0.31141553  0.03210903  0.12429560
   0.68802393  0.12003178  0.43427899
   0.18422655  0.95265391  0.34498288
   0.06631944  0.21357512  0.83376449
   0.55939911  0.03852439  0.61099384
   0.68945508  0.45479396  0.21179980
   0.19004011  0.79092979  0.74423686
   0.19358595  0.62421447  0.30018580
   0.44117885  0.78763970  0.38913864
   0.43398120  0.28843651  0.25578805
   0.06424989  0.54004779  0.87591784
   0.56534352  0.04074163  0.74429057
   0.18775085  0.79513025  0.87587411
   0.93731946  0.45536274  0.47859760
   0.56485289  0.54078295  0.74400497
   0.81141143  0.20678788  0.56552661
   0.18562749  0.62170765  0.78826548
   0.06645889  0.53809874  0.38917060
   0.06110631  0.70768747  0.69975490
   0.30866108  0.53731665  0.25578405
   0.31535234  0.70553726  0.21180784
   0.56374135  0.53962163  0.87566111
   0.43688540  0.62068913  0.43432851
   0.81745078  0.03893649  0.38918216
   0.93587256  0.29576239  0.87546929
   0.93764519  0.79383819  0.87558746
   0.06588843  0.03949114  0.87551618
   0.56236976  0.53099586  0.12464822
   0.80503601  0.36629012  0.16612716
   0.06209462  0.87106190  0.43439059
   0.93659643  0.12157643  0.52149942
   0.19245103  0.78735043  0.38899829
   0.31524283  0.54055202  0.74427464
Direct configuration=     3
   0.06157192  0.03247037  0.12442423
   0.31473599  0.87454536  0.65499576
   0.18614039  0.12320595  0.78834541
   0.44069196  0.28796645  0.38935516
   0.31629469  0.71139550  0.83345964
   0.81671800  0.21277908  0.83349076
   0.18993878  0.96185075  0.83367740
   0.56187923  0.20649506  0.56571468
   0.06389575  0.04069581  0.74404981
   0.81117763  0.87186878  0.52171392
   0.18918364  0.29108966  0.74417390
   0.93552920  0.45348023  0.34487795
   0.94000614  0.28721091  0.38918369
   0.81271446  0.04283484  0.87558956
   0.18503115  0.78871039  0.61062373
   0.56503395  0.03814239  0.38925879
   0.94155058  0.96258539  0.83373485
   0.31359363  0.54341189  0.87566222
   0.68909149  0.29080571  0.74416366
   0.18314300  0.61578510  0.16644406
   0.81216296  0.20532210  0.47841744
   0.80999780  0.53859868  0.61071699
   0.31268546  0.87085311  0.43437654
   0.81067997  0.03783924  0.25586145
   0.68551364  0.95317543  0.34483501
   0.93264557  0.11522144  0.16655684
   0.06228620  0.87193201  0.52165586
   0.56040643  0.53802058  0.25586848
   0.68704317  0.79384441  0.87564658
   0.55722689  0.36579331  0.16633496
   0.43899281  0.79124167  0.74418183
   0.81170703  0.70630834  0.56567069
   0.56117294  0.87385492  0.78827472
   0.68650963  0.12181449  0.52165632
   0.81479371  0.37444669  0.65502742
   0.94158226  0.46226873  0.83373161
   0.06137608  0.20765025  0.69970298
   0.43623234  0.95767658  0.69971145
   0.31504360  0.21108057  0.83357619
   0.43965499  0.62446212  0.65497275
   0.31014743  0.53873588  0.61064028
   0.93671283  0.45601106  0.56573640
   0.68927933  0.79145781  0.74415114
   0.93494552  0.78513435  0.12467178
   0.69063372  0.78771144  0.38924373
   0.93924968  0.79098886  0.74425238
   0.06091236  0.20380080  0.34485864
   0.68590300  0.45325222  0.34488580
   0.43574600  0.12337789  0.78848526
   0.06390290  0.20445754  0.21148321
   0.05698718  0.36580439  0.16639473
   0.93514616  0.78816767  0.25570905
   0.56135557  0.20752855  0.69976917
   0.68616325  0.95760278  0.69979394
   0.81081213  0.87397127  0.78826788
   0.43685265  0.95658269  0.56566381
   0.81150760  0.37368986  0.78818041
   0.68546832  0.28790082  0.25591703
   0.18691791  0.45636445  0.56568182
   0.05772092  0.86597918  0.16649338
   0.18523357  0.28870762  0.61073970
   0.06199946  0.20652960  0.56565678
   0.31157301  0.20765711  0.69981597
   0.30731880  0.86491172  0.16665494
   0.06177878  0.70609406  0.56568860
   0.68571849  0.62345017  0.78828151
   0.31502317  0.53770407  0.38924372
   0.18687686  0.62217269  0.52171168
   0.56250051  0.87103663  0.43428739
   0.43683968  0.45634118  0.56572070
   0.43910618  0.29157991  0.74418027
   0.81686858  0.87371082  0.30011248
   0.81069740  0.70325050  0.34494790
   0.44165872  0.46179446  0.83373548
   0.68750183  0.95509639  0.47841608
   0.68624431  0.45757298  0.69974702
   0.56185358  0.87208454  0.52166939
   0.56497080  0.37415311  0.65494600
   0.81468569  0.87439883  0.65504584
   0.81189023  0.37083131  0.43415832
   0.81040228  0.53763481  0.25596712
   0.69046437  0.46199533  0.83364184
   0.18552179  0.78495699  0.12454926
   0.68999552  0.28762999  0.38922359
   0.31454899  0.37429957  0.65494410
   0.31084009  0.20327654  0.34492825
   0.81441540  0.54086876  0.74400584
   0.69097056  0.96183297  0.83368467
   0.56455510  0.87436915  0.65503933
   0.31179717  0.70658096  0.56567690
   0.31067950  0.53321415  0.12430511
   0.68920100  0.95434940  0.21170876
   0.31175608  0.20640924  0.56569798
   0.18729772  0.95515510  0.47847598
   0.68715635  0.95642194  0.56573931
   0.43503033  0.78887337  0.61063587
   0.68243311  0.61405916  0.16654556
   0.31682494  0.87320967  0.30001845
   0.31209733  0.70515028  0.47834744
   0.93495356  0.28851819  0.61065023
   0.44228748  0.62320840  0.30026024
   0.80777908  0.86517989  0.16665414
   0.56517651  0.20344305  0.21166684
   0.93354670  0.61476461  0.16666438
   0.43743790  0.95483647  0.47839980
   0.56121421  0.37332745  0.78842498
   0.06165406  0.37263704  0.52165147
   0.30734539  0.36550312  0.16635599
   0.69205977  0.12318332  0.30024854
   0.44154873  0.96149123  0.83359108
   0.18540976  0.28463046  0.12453691
   0.18536446  0.28750915  0.25590946
   0.31276256  0.37073846  0.43429435
   0.56136794  0.03333830  0.12444877
   0.43497655  0.28871629  0.61061798
   0.18563370  0.45348181  0.34493385
   0.43332281  0.28442444  0.12456232
   0.68517010  0.78824578  0.25593928
   0.43683004  0.12237892  0.52164291
   0.18910125  0.29340773  0.87582001
   0.18970769  0.12447605  0.65507065
   0.93985277  0.12430441  0.65504499
   0.81504882  0.53751803  0.38923804
   0.06528333  0.03810760  0.38926630
   0.18316476  0.11524277  0.16651473
   0.05996878  0.53851380  0.61065557
   0.93531288  0.28771349  0.25585031
   0.55994772  0.53874339  0.61061354
   0.93684080  0.95625895  0.56570402
   0.69208349  0.62371928  0.30023768
   0.93754926  0.62068370  0.43426149
   0.93561065  0.62477432  0.78817707
   0.56123308  0.70728205  0.69972026
   0.06498812  0.71353227  0.83372420
   0.94196602  0.12332621  0.30015717
   0.93496785  0.78843628  0.61070976
   0.43546401  0.78809062  0.25590169
   0.31087919  0.37290973  0.78827925
   0.43936543  0.45456107  0.21169972
   0.18703697  0.12191691  0.52166299
   0.81136244  0.70767824  0.69978308
   0.05995275  0.03879634  0.61062104
   0.56517844  0.21241759  0.83354667
   0.31188007  0.87205985  0.52171259
   0.68566640  0.28464019  0.12437850
   0.18919406  0.95551446  0.21168252
   0.68491737  0.28899730  0.61074672
   0.30996810  0.03863351  0.61072379
   0.93593590  0.12431962  0.78837147
   0.43686244  0.79335473  0.87570695
   0.81417040  0.04085968  0.74408614
   0.93634887  0.45762642  0.69973788
   0.18969742  0.62448100  0.65501506
   0.31142074  0.70747104  0.69974632
   0.93454954  0.28463818  0.12444613
   0.43727317  0.45476150  0.47831995
   0.06251877  0.70458567  0.47841219
   0.93731135  0.12054955  0.43453443
   0.44198858  0.12294159  0.30025503
   0.18745915  0.12052274  0.43419921
   0.56396044  0.04256294  0.87573273
   0.18663107  0.95647231  0.56573181
   0.68432120  0.78568983  0.12475060
   0.56097249  0.70330380  0.34496023
   0.31530354  0.03751510  0.38924613
   0.68336767  0.11485270  0.16667479
   0.81453251  0.20363638  0.21156975
   0.06055082  0.53787570  0.25579963
   0.56237421  0.70529446  0.47836902
   0.43457036  0.78534641  0.12455332
   0.56679706  0.37304842  0.30017774
   0.43560608  0.95341674  0.34484581
   0.18620903  0.95776149  0.69979690
   0.43317685  0.61525050  0.16640735
   0.93950297  0.45439253  0.21180471
   0.06121308  0.53282925  0.12434949
   0.81187551  0.37239460  0.52165230
   0.94220115  0.62377608  0.30006983
   0.31063698  0.03795621  0.25572955
   0.68496644  0.78857387  0.61066659
   0.19018961  0.46195336  0.83366232
   0.43313344  0.11471129  0.16656954
   0.31168470  0.37217252  0.52167223
   0.43607017  0.62331480  0.78851983
   0.06018990  0.03780997  0.25583286
   0.56182897  0.70645073  0.56569745
   0.93897373  0.29048360  0.74417819
   0.68561935  0.12379033  0.78825976
   0.18868546  0.45487589  0.21160837
   0.93982845  0.78739214  0.38923405
   0.68635194  0.29398967  0.87574704
   0.55684743  0.86512007  0.16645799
   0.43636596  0.45742330  0.69970881
   0.93615079  0.95303311  0.34489776
   0.68648744  0.62220843  0.52163113
   0.06469064  0.87423450  0.65501631
   0.06130291  0.87384066  0.78847520
   0.06468354  0.37423108  0.65499343
   0.68720711  0.45473557  0.47825049
   0.18528690  0.78827954  0.25579702
   0.43740522  0.12092996  0.43430895
   0.81201659  0.03292236  0.12441647
   0.93673670  0.62208836  0.52167820
   0.43985159  0.12436460  0.65500680
   0.81202105  0.53256442  0.12427038
   0.43581705  0.45342605  0.34496744