unknown system                          
           1
     9.726678    0.000000    0.000000
     0.000000    8.423550    0.000000
     0.000000    0.000000   45.000000
   Fe   Mn
 281   7
Direct configuration=     1
   0.06138242  0.03166338  0.12449996
   0.06317859  0.87146985  0.52117777
   0.19227046  0.12212400  0.78844131
   0.43359490  0.28776803  0.38903104
   0.30852591  0.71272788  0.83316814
   0.80835836  0.21249620  0.83318353
   0.18359438  0.78781188  0.38907670
   0.56283127  0.20743827  0.56538193
   0.05973001  0.04065966  0.74400557
   0.81335438  0.87150231  0.52128860
   0.18499752  0.28983663  0.74396816
   0.94128041  0.45212384  0.34492664
   0.93356988  0.28770348  0.38905785
   0.81340597  0.04239226  0.87557158
   0.18829189  0.79136597  0.61068170
   0.55870775  0.03743952  0.38901033
   0.93336268  0.96249370  0.83316329
   0.31350004  0.54213830  0.87558529
   0.68597027  0.29167095  0.74421925
   0.19217875  0.61274020  0.16670899
   0.81282820  0.20568788  0.47861761
   0.81367817  0.54051737  0.61068333
   0.31301481  0.87031301  0.43444262
   0.81575951  0.03641341  0.25604695
   0.69113696  0.95276533  0.34509651
   0.94221465  0.11275138  0.16676048
   0.93846524  0.12138087  0.52125263
   0.56592870  0.53665621  0.25613346
   0.68860238  0.79331001  0.87554491
   0.56775626  0.36430203  0.16702751
   0.43519805  0.79080670  0.74408350
   0.81369497  0.70779492  0.56540551
   0.56638730  0.87267127  0.78838767
   0.68839335  0.12150928  0.52127245
   0.19129586  0.28746805  0.25583381
   0.93339936  0.46274076  0.83320330
   0.06430717  0.20759828  0.69963726
   0.43914175  0.95776289  0.69966380
   0.30847325  0.21269993  0.83315244
   0.43468078  0.62569016  0.65482755
   0.31370507  0.54080572  0.61065276
   0.93895774  0.45744824  0.56540606
   0.68518241  0.79098743  0.74406462
   0.30901963  0.87584279  0.65490727
   0.68383975  0.78756661  0.38902857
   0.93503426  0.79074621  0.74407772
   0.06649014  0.20209234  0.34500530
   0.80838138  0.03762064  0.38904858
   0.44299116  0.12299257  0.78863645
   0.05971487  0.20469828  0.21195800
   0.06803172  0.36364564  0.16692167
   0.94149731  0.78738178  0.25625287
   0.56373069  0.20814801  0.69963126
   0.68872342  0.95806377  0.69959311
   0.44026465  0.78780057  0.12458139
   0.43863056  0.95772941  0.56544243
   0.81778628  0.37298552  0.78840335
   0.69127424  0.28687727  0.25613490
   0.18870113  0.45743136  0.56544497
   0.06751658  0.86330036  0.16692300
   0.18867856  0.29076653  0.61066552
   0.56624765  0.70245699  0.34501268
   0.31375064  0.20775258  0.69969997
   0.56343546  0.54212948  0.87558154
   0.06346798  0.70735388  0.56544861
   0.69241504  0.62209881  0.78838686
   0.30866214  0.53779294  0.38905434
   0.18839952  0.62159656  0.52126349
   0.56287530  0.87027918  0.43448587
   0.43874652  0.45747996  0.56539873
   0.43527726  0.29022559  0.74405046
   0.80458099  0.87306865  0.30028676
   0.81657630  0.70242965  0.34509758
   0.43347642  0.46253964  0.83316880
   0.68781558  0.95567116  0.47861390
   0.68872999  0.45789628  0.69967756
   0.56336496  0.87151800  0.52126058
   0.55874093  0.37579555  0.65487292
   0.80913064  0.87518644  0.65479040
   0.81304159  0.36969842  0.43441918
   0.81558089  0.53674156  0.25611346
   0.68348250  0.46272894  0.83316524
   0.19119246  0.78715062  0.12480939
   0.06351775  0.04200131  0.87562189
   0.30860832  0.37513122  0.65491408
   0.31621952  0.20227444  0.34493300
   0.81806348  0.36292930  0.16716296
   0.68334344  0.96259555  0.83317010
   0.55885547  0.87562925  0.65497472
   0.31354885  0.70693606  0.56555434
   0.31342851  0.53103379  0.12434856
   0.68370292  0.95504868  0.21194512
   0.31380526  0.20780627  0.56547383
   0.30998656  0.54092872  0.74408463
   0.68868903  0.95750495  0.56539621
   0.43843934  0.79101215  0.61062551
   0.69362119  0.61459868  0.16711428
   0.30457292  0.87311350  0.30031304
   0.31263412  0.70534860  0.47856763
   0.93848155  0.29103530  0.61062909
   0.42951939  0.62308038  0.30034689
   0.81800180  0.86316873  0.16691998
   0.55943664  0.20461507  0.21170955
   0.94272044  0.61413847  0.16687444
   0.93886427  0.79326110  0.87558098
   0.56718458  0.37243198  0.78845226
   0.06336472  0.37174273  0.52126128
   0.56338742  0.37139199  0.52123733
   0.67943447  0.12315526  0.30031003
   0.43333646  0.96262521  0.83317330
   0.19030934  0.28725080  0.12459594
   0.81693209  0.87247505  0.78837806
   0.31262000  0.37039269  0.43443534
   0.56326405  0.03148850  0.12459270
   0.43806212  0.29126745  0.61074641
   0.19120128  0.45179082  0.34496401
   0.43987810  0.28737701  0.12453793
   0.69133247  0.78708134  0.25622847
   0.43841845  0.12144250  0.52125592
   0.18864984  0.29331029  0.87567058
   0.18374267  0.12546278  0.65490905
   0.93375187  0.12517993  0.65476812
   0.30885953  0.20448251  0.21179543
   0.05869892  0.03752484  0.38899547
   0.19417708  0.11408185  0.16724117
   0.06302625  0.54095194  0.61065097
   0.94138448  0.28744145  0.25579869
   0.56334868  0.54095443  0.61075306
   0.93864750  0.95752295  0.56538159
   0.67939381  0.62337415  0.30021311
   0.93803957  0.62014078  0.43446779
   0.94326667  0.62264049  0.78849912
   0.56405043  0.70757722  0.69968870
   0.05855890  0.71281532  0.83317411
   0.92946298  0.12328225  0.30031471
   0.93812862  0.79123452  0.61062325
   0.44150959  0.78678853  0.25611549
   0.31756953  0.37204466  0.78857747
   0.43483254  0.45524089  0.21197426
   0.18854757  0.12192327  0.52124981
   0.81371101  0.70756349  0.69965422
   0.06372041  0.04067035  0.61065002
   0.55849103  0.21278866  0.83316115
   0.31364528  0.87133231  0.52115004
   0.69062193  0.28739839  0.12462655
   0.18517755  0.95484261  0.21193226
   0.68862510  0.29127784  0.61066585
   0.31343560  0.04062865  0.61064048
   0.94215352  0.12206002  0.78859328
   0.43900444  0.79319000  0.87558816
   0.81019348  0.04092493  0.74408530
   0.93909180  0.45764233  0.69968540
   0.18411377  0.62590801  0.65493841
   0.31328225  0.70811984  0.69960353
   0.93874704  0.28651237  0.12467304
   0.43793238  0.45563181  0.47860618
   0.06296449  0.70549185  0.47859087
   0.93807780  0.12047084  0.43445453
   0.42918682  0.12293871  0.30035467
   0.18808292  0.12007027  0.43449395
   0.56355205  0.04211348  0.87560032
   0.18862319  0.95682952  0.56523795
   0.69041453  0.78605266  0.12468908
   0.56311663  0.53065504  0.12438692
   0.30860672  0.03744588  0.38905018
   0.69242930  0.11383386  0.16709881
   0.80834607  0.20509565  0.21187989
   0.06595081  0.53679709  0.25613709
   0.56282089  0.70570719  0.47862139
   0.06323888  0.20742523  0.56542995
   0.55425779  0.37312950  0.30030009
   0.44129494  0.95198092  0.34496982
   0.18347524  0.96267469  0.83315093
   0.44186072  0.61252569  0.16693098
   0.93446281  0.45475904  0.21197439
   0.06293358  0.53281642  0.12455334
   0.81340313  0.37153119  0.52128149
   0.92944091  0.62314681  0.30035333
   0.31587531  0.03665584  0.25605889
   0.68832884  0.79129004  0.61063335
   0.18347079  0.46265013  0.83313525
   0.44265621  0.11397141  0.16696648
   0.31356106  0.37200184  0.52131614
   0.44173900  0.62237417  0.78837560
   0.06618007  0.03733967  0.25590291
   0.56321947  0.70794797  0.56537822
   0.93480557  0.29113473  0.74408077
   0.69234498  0.12217715  0.78865998
   0.18330523  0.45530664  0.21189358
   0.93365918  0.78755049  0.38906018
   0.68874246  0.29346308  0.87570110
   0.31824271  0.86369620  0.16703235
   0.43903011  0.45747062  0.69966027
   0.94146950  0.95231039  0.34496391
   0.68837774  0.62141425  0.52124128
   0.05884875  0.87575726  0.65493203
   0.06723716  0.87264827  0.78842806
   0.05873931  0.37595952  0.65492076
   0.68779087  0.45576636  0.47861248
   0.19139809  0.78633561  0.25619179
   0.43750695  0.12026853  0.43445098
   0.81376908  0.03289988  0.12449505
   0.93837215  0.62145127  0.52124977
   0.06283730  0.86967618  0.43447036
   0.81216939  0.53277590  0.12453467
   0.44127692  0.45214280  0.34495510
   0.81635851  0.20187176  0.34492650
   0.31637877  0.70200184  0.34497632
   0.68439384  0.12572607  0.65480997
   0.55447233  0.87313968  0.30027891
   0.06022809  0.54082590  0.74406985
   0.93461675  0.95457423  0.21190022
   0.80994699  0.70465184  0.21169382
   0.05444070  0.87316970  0.30031128
   0.17937932  0.12321493  0.30027549
   0.06642148  0.70216082  0.34495352
   0.81331240  0.04117176  0.61076824
   0.06328050  0.37028546  0.43431184
   0.56643780  0.20191176  0.34495670
   0.80442704  0.37313918  0.30034501
   0.43792370  0.95577373  0.47858140
   0.55864173  0.53724653  0.38901327
   0.06270663  0.20574109  0.47860193
   0.31659091  0.87215211  0.78854353
   0.93882180  0.95774469  0.69970436
   0.05435763  0.37295551  0.30035919
   0.68476942  0.62493480  0.65479829
   0.68867276  0.45748340  0.56539862
   0.43477930  0.95493857  0.21194002
   0.31275247  0.20576615  0.47857971
   0.43421578  0.12505604  0.65486669
   0.68798626  0.62060336  0.43438262
   0.81371072  0.20882915  0.69960897
   0.81278070  0.70560285  0.47861988
   0.81312041  0.87039778  0.43442427
   0.93758648  0.95577399  0.47860440
   0.56269080  0.20533920  0.47851414
   0.18775279  0.62067517  0.43441146
   0.31001824  0.04085855  0.74399532
   0.93433620  0.62498888  0.65475623
   0.55848952  0.71279594  0.83317920
   0.30437754  0.37302535  0.30035983
   0.55893072  0.70479163  0.21166161
   0.18787465  0.45564837  0.47863505
   0.31339300  0.04216469  0.87561223
   0.18907929  0.45777111  0.69971196
   0.81335088  0.54202538  0.87560135
   0.18352398  0.28770642  0.38905113
   0.43814610  0.62044471  0.43441443
   0.05855944  0.70509141  0.21187761
   0.56301161  0.36988941  0.43445655
   0.43840399  0.62143223  0.52124153
   0.80847411  0.71272678  0.83315190
   0.06703410  0.37207182  0.78855849
   0.43860501  0.29331366  0.87566656
   0.31237967  0.03255076  0.12459203
   0.68792187  0.12046585  0.43443045
   0.19125126  0.95218459  0.34500496
   0.05856798  0.21287234  0.83320510
   0.56273956  0.04115894  0.61065406
   0.68432986  0.45463108  0.21191539
   0.18507222  0.79094570  0.74403987
   0.17951004  0.62320696  0.30030872
   0.43353422  0.78747027  0.38903909
   0.44130740  0.28721107  0.25619663
   0.06345079  0.54205769  0.87558859
   0.55979589  0.04086887  0.74389070
   0.18869235  0.79340498  0.87561063
   0.93775669  0.45581787  0.47863111
   0.80846807  0.53746177  0.38906193
   0.81369580  0.20753305  0.56540730
   0.19293501  0.62221503  0.78851597
   0.05856291  0.53769063  0.38907462
   0.06413884  0.70825019  0.69964778
   0.31573662  0.53662906  0.25602557
   0.30950902  0.70448441  0.21184273
   0.56772549  0.86433020  0.16703944
   0.55989908  0.54061559  0.74403946
   0.69151237  0.45218190  0.34502557
   0.93892214  0.29366382  0.87565936
   0.56632643  0.03720118  0.25582836
   0.68265858  0.28804300  0.38897479
   0.31851718  0.36391540  0.16638128
   0.80973068  0.54075097  0.74415751
   0.18862312  0.95633104  0.69969961
   0.93883145  0.78761151  0.12480644
   0.80891406  0.37591229  0.65462764
   0.18796086  0.95579540  0.47857003
Direct configuration=     2
   0.06179332  0.03198939  0.12456250
   0.06316565  0.87167512  0.52125548
   0.19189293  0.12239383  0.78840996
   0.43382534  0.28773178  0.38909826
   0.30885471  0.71246732  0.83321932
   0.80871456  0.21223352  0.83323904
   0.18389732  0.78780580  0.38914334
   0.56287020  0.20727855  0.56540417
   0.06009113  0.04073474  0.74399653
   0.81333959  0.87168790  0.52136297
   0.18527437  0.28998373  0.74395399
   0.94069699  0.45232217  0.34496041
   0.93389913  0.28767917  0.38912006
   0.81327360  0.04257435  0.87551635
   0.18819585  0.79131046  0.61064342
   0.55898490  0.03740982  0.38908693
   0.93370924  0.96222961  0.83320933
   0.31336184  0.54231064  0.87554097
   0.68607405  0.29154966  0.74417498
   0.19189275  0.61318949  0.16670165
   0.81288152  0.20552544  0.47853990
   0.81350992  0.54063422  0.61063056
   0.31301794  0.87038113  0.43439682
   0.81541202  0.03647534  0.25605569
   0.69062391  0.95287999  0.34510062
   0.94205661  0.11305382  0.16675100
   0.93846342  0.12163637  0.52132073
   0.56549858  0.53668779  0.25612029
   0.68846461  0.79327432  0.87550916
   0.56757514  0.36465739  0.16696665
   0.43540727  0.79092051  0.74405454
   0.81360158  0.70770941  0.56543248
   0.56613548  0.87286673  0.78835872
   0.68834191  0.12176313  0.52133857
   0.19085851  0.28742196  0.25587617
   0.93372982  0.46248013  0.83324548
   0.06401630  0.20763479  0.69963042
   0.43899283  0.95773119  0.69965875
   0.30878077  0.21241028  0.83320062
   0.43485452  0.62563132  0.65483038
   0.31355180  0.54087232  0.61062748
   0.93883138  0.45730953  0.56543610
   0.68538521  0.79100799  0.74402859
   0.30930167  0.87573393  0.65489005
   0.68409827  0.78754644  0.38910003
   0.93532817  0.79074947  0.74404707
   0.06591990  0.20228705  0.34501788
   0.80870716  0.03762066  0.38911597
   0.44249335  0.12310275  0.78857629
   0.05997452  0.20449804  0.21192856
   0.06772934  0.36397630  0.16688436
   0.94100901  0.78732805  0.25622742
   0.56361466  0.20815866  0.69963289
   0.68859222  0.95801455  0.69959778
   0.44027637  0.78718791  0.12464397
   0.43858374  0.95759520  0.56548253
   0.81732662  0.37307710  0.78837986
   0.69081996  0.28689508  0.25612905
   0.18861752  0.45728856  0.56548049
   0.06717585  0.86364860  0.16688767
   0.18851849  0.29081365  0.61062370
   0.56570423  0.70265681  0.34502574
   0.31359400  0.20773540  0.69968446
   0.56330125  0.54228927  0.87553378
   0.06340677  0.70721987  0.56548893
   0.69202214  0.62243288  0.78835671
   0.30895697  0.53780840  0.38911751
   0.18836900  0.62189731  0.52132871
   0.56283740  0.87034598  0.43444380
   0.43870531  0.45734211  0.56544100
   0.43552444  0.29032068  0.74403099
   0.80521866  0.87291170  0.30031455
   0.81599503  0.70262284  0.34511167
   0.43380407  0.46233701  0.83321411
   0.68783326  0.95548191  0.47853796
   0.68857244  0.45786149  0.69966755
   0.56333717  0.87174524  0.52133204
   0.55898476  0.37565955  0.65485508
   0.80938623  0.87520811  0.65478605
   0.81298876  0.36992449  0.43439713
   0.81520273  0.53681395  0.25611906
   0.68380544  0.46245069  0.83321180
   0.19110760  0.78643100  0.12483673
   0.06336943  0.04218068  0.87557012
   0.30894559  0.37518294  0.65490563
   0.31567504  0.20242182  0.34495016
   0.81785263  0.36329556  0.16710494
   0.68363941  0.96228831  0.83321290
   0.55911742  0.87550068  0.65495007
   0.31348902  0.70690199  0.56558653
   0.31344885  0.53146125  0.12437363
   0.68410092  0.95493487  0.21195923
   0.31371180  0.20765381  0.56550865
   0.31023214  0.54087024  0.74405895
   0.68857968  0.95744601  0.56543564
   0.43834293  0.79096864  0.61058298
   0.69325377  0.61485273  0.16705773
   0.30522039  0.87292503  0.30032112
   0.31268096  0.70513949  0.47848831
   0.93840224  0.29100253  0.61058781
   0.43016572  0.62290223  0.30035848
   0.81791973  0.86351576  0.16688935
   0.55966570  0.20448741  0.21174112
   0.94240060  0.61459031  0.16686325
   0.93871384  0.79324055  0.87554090
   0.56684040  0.37266924  0.78842027
   0.06335749  0.37189943  0.52132671
   0.56339353  0.37161318  0.52130416
   0.68011364  0.12297354  0.30032354
   0.43364625  0.96237236  0.83322128
   0.19026370  0.28664493  0.12461884
   0.81656629  0.87264490  0.78834233
   0.31265726  0.37049861  0.43440604
   0.56337290  0.03183708  0.12463954
   0.43800049  0.29121516  0.61070539
   0.19068276  0.45201077  0.34500413
   0.43984545  0.28670937  0.12457236
   0.69087026  0.78700997  0.25620505
   0.43831828  0.12168851  0.52132952
   0.18852003  0.29326980  0.87561888
   0.18407695  0.12534134  0.65488480
   0.93412462  0.12514518  0.65478334
   0.30920867  0.20433400  0.21180869
   0.05897494  0.03744894  0.38907142
   0.19370976  0.11431742  0.16718553
   0.06296493  0.54096328  0.61061614
   0.94089612  0.28734439  0.25584767
   0.56328460  0.54096126  0.61069634
   0.93856201  0.95745612  0.56543170
   0.68006075  0.62320618  0.30023389
   0.93796780  0.62024842  0.43443097
   0.94272596  0.62282241  0.78846300
   0.56387342  0.70755345  0.69967808
   0.05890036  0.71258526  0.83322612
   0.93014645  0.12302872  0.30030971
   0.93806273  0.79120380  0.61057823
   0.44099964  0.78678740  0.25610178
   0.31714410  0.37230863  0.78850634
   0.43508443  0.45504705  0.21196804
   0.18847413  0.12213098  0.52131896
   0.81358753  0.70752001  0.69963843
   0.06358932  0.04068279  0.61060812
   0.55883356  0.21251062  0.83320065
   0.31360552  0.87153551  0.52123800
   0.69064693  0.28685451  0.12468785
   0.18534741  0.95470048  0.21194160
   0.68845780  0.29122609  0.61062166
   0.31326601  0.04067851  0.61060257
   0.94179738  0.12236545  0.78854574
   0.43885086  0.79316142  0.87553813
   0.81038577  0.04095069  0.74406613
   0.93889410  0.45762333  0.69967527
   0.18442506  0.62579785  0.65492579
   0.31328080  0.70799433  0.69961188
   0.93884705  0.28609223  0.12472597
   0.43797198  0.45546143  0.47853199
   0.06293250  0.70524327  0.47851072
   0.93802775  0.12054037  0.43441143
   0.42985518  0.12275494  0.30036115
   0.18802124  0.12027831  0.43443839
   0.56341128  0.04228750  0.87555327
   0.18857031  0.95683912  0.56525943
   0.69025447  0.78544654  0.12473853
   0.56327087  0.53118947  0.12447083
   0.30888703  0.03735783  0.38912084
   0.69217979  0.11405671  0.16707495
   0.80876676  0.20482177  0.21187705
   0.06552588  0.53682333  0.25613721
   0.56276697  0.70547512  0.47853425
   0.06323647  0.20728260  0.56546582
   0.55496886  0.37292585  0.30031765
   0.44073356  0.95219970  0.34498392
   0.18377655  0.96242142  0.83319853
   0.44180777  0.61297432  0.16690739
   0.93471660  0.45450264  0.21198478
   0.06330968  0.53301163  0.12459316
   0.81335029  0.37174194  0.52135461
   0.93007971  0.62294163  0.30037098
   0.31546910  0.03668535  0.25607239
   0.68821062  0.79126102  0.61059606
   0.18378001  0.46241772  0.83317488
   0.44232962  0.11422998  0.16694134
   0.31349808  0.37207856  0.52137382
   0.44148173  0.62258556  0.78835031
   0.06568730  0.03724009  0.25594352
   0.56323429  0.70775904  0.56542392
   0.93513014  0.29113140  0.74405716
   0.69194451  0.12246355  0.78858941
   0.18371783  0.45512230  0.21191988
   0.93398387  0.78752695  0.38911725
   0.68859758  0.29343865  0.87564930
   0.31800465  0.86400040  0.16698238
   0.43887162  0.45748549  0.69965526
   0.94090543  0.95250390  0.34497705
   0.68834037  0.62165651  0.52131977
   0.05916684  0.87562303  0.65490672
   0.06684645  0.87283664  0.78840117
   0.05914111  0.37580139  0.65490494
   0.68780497  0.45553632  0.47852901
   0.19092096  0.78642006  0.25617654
   0.43748560  0.12037057  0.43440516
   0.81378228  0.03328131  0.12455049
   0.93834293  0.62173222  0.52132754
   0.06276503  0.86986235  0.43442636
   0.81231345  0.53300366  0.12459052
   0.44075179  0.45234348  0.34497740
   0.81582957  0.20213093  0.34494236
   0.31583657  0.70219000  0.34499820
   0.68459651  0.12558601  0.65481516
   0.55513588  0.87298774  0.30029089
   0.06052394  0.54082541  0.74405258
   0.93485452  0.95449620  0.21191174
   0.81008901  0.70445931  0.21172470
   0.05512578  0.87299650  0.30032796
   0.18003998  0.12299955  0.30028844
   0.06585611  0.70236420  0.34496912
   0.81320833  0.04113872  0.61072213
   0.06316331  0.37041765  0.43430047
   0.56586523  0.20215728  0.34497759
   0.80508866  0.37292699  0.30035184
   0.43800585  0.95561930  0.47849434
   0.55891473  0.53725761  0.38908547
   0.06262516  0.20557412  0.47851624
   0.31632658  0.87246060  0.78849420
   0.93857115  0.95776658  0.69968800
   0.05501802  0.37277536  0.30035904
   0.68490606  0.62493750  0.65480050
   0.68859784  0.45738885  0.56542773
   0.43501502  0.95474884  0.21194033
   0.31288884  0.20563257  0.47850396
   0.43444662  0.12498865  0.65486039
   0.68793691  0.62062166  0.43434971
   0.81362287  0.20871664  0.69962168
   0.81284803  0.70540657  0.47853163
   0.81304150  0.87044339  0.43439174
   0.93755001  0.95564250  0.47851381
   0.56267894  0.20526743  0.47846184
   0.18774457  0.62074877  0.43437824
   0.31027881  0.04085096  0.74399013
   0.93460642  0.62501566  0.65477062
   0.55878610  0.71253414  0.83321872
   0.30504940  0.37281279  0.30035771
   0.55924203  0.70455157  0.21170225
   0.18785378  0.45549248  0.47854546
   0.31326241  0.04233571  0.87556155
   0.18888279  0.45773822  0.69969612
   0.81322437  0.54222992  0.87554947
   0.18379135  0.28772459  0.38910325
   0.43805996  0.62050716  0.43438631
   0.05901244  0.70484626  0.21187542
   0.56295588  0.37007686  0.43441900
   0.43836883  0.62172291  0.52131772
   0.80879686  0.71243222  0.83319131
   0.06666123  0.37234059  0.78849269
   0.43847026  0.29331184  0.87561010
   0.31261960  0.03293346  0.12464831
   0.68789268  0.12048269  0.43439957
   0.19072106  0.95239465  0.34501710
   0.05885651  0.21257279  0.83324876
   0.56274663  0.04108624  0.61061590
   0.68458385  0.45454442  0.21192925
   0.18530620  0.79096530  0.74403196
   0.18013606  0.62300965  0.30033069
   0.43378405  0.78745676  0.38909230
   0.44080863  0.28712856  0.25618392
   0.06333462  0.54225810  0.87554246
   0.56003299  0.04093504  0.74389875
   0.18853100  0.79334367  0.87556099
   0.93771668  0.45555459  0.47854656
   0.80881840  0.53744312  0.38913029
   0.81361226  0.20745234  0.56543525
   0.19243868  0.62239825  0.78847818
   0.05882866  0.53772038  0.38913444
   0.06383736  0.70810629  0.69965151
   0.31532700  0.53664739  0.25604166
   0.30977514  0.70428258  0.21184636
   0.56758192  0.86457241  0.16698991
   0.56009491  0.54070620  0.74402547
   0.69095400  0.45238622  0.34503203
   0.93876716  0.29360110  0.87560798
   0.56582952  0.03708089  0.25586807
   0.68304174  0.28795129  0.38903297
   0.31826389  0.36415662  0.16635953
   0.81000430  0.54081600  0.74413598
   0.18856431  0.95656261  0.69969965
   0.93898028  0.78711121  0.12485704
   0.80914414  0.37577805  0.65464408
   0.18790409  0.95559632  0.47852244
Direct configuration=     3
   0.06302599  0.03296742  0.12475013
   0.06312681  0.87229094  0.52148861
   0.19076036  0.12320335  0.78831592
   0.43451665  0.28762305  0.38929995
   0.30984114  0.71168564  0.83337287
   0.80978316  0.21144549  0.83340557
   0.18480614  0.78778755  0.38934325
   0.56298699  0.20679940  0.56547088
   0.06117450  0.04095998  0.74396940
   0.81329523  0.87224467  0.52158607
   0.18610491  0.29042504  0.74391145
   0.93894673  0.45291715  0.34506170
   0.93488688  0.28760623  0.38930666
   0.81287647  0.04312063  0.87535066
   0.18790773  0.79114390  0.61052858
   0.55981635  0.03732073  0.38931670
   0.93474893  0.96143732  0.83334747
   0.31294726  0.54282765  0.87540802
   0.68638537  0.29118578  0.74404219
   0.19103474  0.61453735  0.16667963
   0.81304149  0.20503811  0.47830676
   0.81300515  0.54098478  0.61047223
   0.31302736  0.87058547  0.43425943
   0.81436954  0.03666112  0.25608190
   0.68908476  0.95322400  0.34511297
   0.94158250  0.11396115  0.16672255
   0.93845797  0.12240288  0.52152500
   0.56420823  0.53678253  0.25608078
   0.68805129  0.79316724  0.87540192
   0.56703179  0.36572350  0.16678409
   0.43603491  0.79126193  0.74396768
   0.81332143  0.70745288  0.56551337
   0.56538001  0.87345310  0.78827186
   0.68818760  0.12252467  0.52153691
   0.18954646  0.28728368  0.25600322
   0.93472122  0.46169824  0.83337201
   0.06314367  0.20774434  0.69960991
   0.43854608  0.95763611  0.69964361
   0.30970334  0.21154134  0.83334517
   0.43537577  0.62545480  0.65483890
   0.31309198  0.54107212  0.61055166
   0.93845232  0.45689340  0.56552625
   0.68599364  0.79106967  0.74392051
   0.31014779  0.87540736  0.65483838
   0.68487382  0.78748592  0.38931439
   0.93620989  0.79075927  0.74395512
   0.06420917  0.20287119  0.34505562
   0.80968451  0.03762071  0.38931815
   0.44099991  0.12343329  0.78839579
   0.06075346  0.20389731  0.21184027
   0.06682221  0.36496826  0.16677240
   0.93954413  0.78716686  0.25615110
   0.56326659  0.20819059  0.69963777
   0.68819862  0.95786690  0.69961176
   0.44031155  0.78534994  0.12483170
   0.43844328  0.95719259  0.56560282
   0.81594765  0.37335183  0.78830937
   0.68945714  0.28694849  0.25611152
   0.18836669  0.45686017  0.56558707
   0.06615364  0.86469331  0.16678168
   0.18803827  0.29095502  0.61049821
   0.56407395  0.70325627  0.34506493
   0.31312408  0.20768385  0.69963791
   0.56289859  0.54276864  0.87539051
   0.06322313  0.70681783  0.56560989
   0.69084344  0.62343509  0.78826625
   0.30984146  0.53785477  0.38930702
   0.18827744  0.62279958  0.52152434
   0.56272371  0.87054640  0.43431759
   0.43858170  0.45692857  0.56556780
   0.43626597  0.29060594  0.74397257
   0.80713170  0.87244086  0.30039795
   0.81425121  0.70320240  0.34515393
   0.43478702  0.46172913  0.83335004
   0.68788628  0.95491415  0.47831017
   0.68809981  0.45775714  0.69963752
   0.56325379  0.87242695  0.52154640
   0.55971625  0.37525154  0.65480155
   0.81015302  0.87527312  0.65477301
   0.81283029  0.37060270  0.43433099
   0.81406825  0.53703114  0.25613584
   0.68477425  0.46161592  0.83335149
   0.19085301  0.78427212  0.12491876
   0.06292447  0.04271879  0.87541483
   0.30995741  0.37533810  0.65488028
   0.31404159  0.20286397  0.34500162
   0.81722009  0.36439432  0.16693089
   0.68452731  0.96136657  0.83334130
   0.55990326  0.87511500  0.65487613
   0.31330951  0.70679977  0.56568307
   0.31350989  0.53274365  0.12444887
   0.68529492  0.95459343  0.21200155
   0.31343144  0.20719645  0.56561311
   0.31096889  0.54069482  0.74398191
   0.68825165  0.95726920  0.56555394
   0.43805367  0.79083811  0.61045542
   0.69215151  0.61561487  0.16688807
   0.30716280  0.87235963  0.30034537
   0.31282148  0.70451216  0.47825033
   0.93816430  0.29090421  0.61046400
   0.43210469  0.62236777  0.30039324
   0.81767352  0.86455688  0.16679746
   0.56035289  0.20410441  0.21183584
   0.94144108  0.61594584  0.16682967
   0.93826256  0.79317891  0.87542068
   0.56580785  0.37338103  0.78832427
   0.06333579  0.37236951  0.52152300
   0.56341185  0.37227675  0.52150462
   0.68215115  0.12242838  0.30036409
   0.43457560  0.96161381  0.83336523
   0.19012677  0.28482733  0.12468753
   0.81546887  0.87315444  0.78823514
   0.31276905  0.37081635  0.43431815
   0.56369947  0.03288283  0.12478005
   0.43781558  0.29105830  0.61058232
   0.18912722  0.45267064  0.34512452
   0.43974751  0.28470646  0.12467564
   0.68948362  0.78679586  0.25613477
   0.43801777  0.12242653  0.52155031
   0.18813059  0.29314835  0.87546380
   0.18507980  0.12497701  0.65481205
   0.93524284  0.12504092  0.65482901
   0.31025608  0.20388849  0.21184847
   0.05980302  0.03722122  0.38929928
   0.19230780  0.11502415  0.16701864
   0.06278097  0.54099730  0.61051164
   0.93943103  0.28705321  0.25599462
   0.56309237  0.54098177  0.61052620
   0.93830553  0.95725565  0.56558202
   0.68206157  0.62270227  0.30029625
   0.93775248  0.62057136  0.43432051
   0.94110384  0.62336815  0.78835464
   0.56334237  0.70748214  0.69964620
   0.05992475  0.71189509  0.83338216
   0.93219688  0.12226812  0.30029470
   0.93786507  0.79111167  0.61044316
   0.43946979  0.78678398  0.25606064
   0.31586778  0.37310057  0.78829297
   0.43584009  0.45446551  0.21194937
   0.18825383  0.12275412  0.52152642
   0.81321708  0.70738957  0.69959106
   0.06319608  0.04072010  0.61048241
   0.55986114  0.21167648  0.83331915
   0.31348621  0.87214511  0.52150190
   0.69072191  0.28522289  0.12487174
   0.18585699  0.95427409  0.21196960
   0.68795593  0.29107081  0.61048909
   0.31275723  0.04082807  0.61048885
   0.94072897  0.12328172  0.78840311
   0.43839012  0.79307567  0.87538805
   0.81096265  0.04102798  0.74400862
   0.93830101  0.45756631  0.69964488
   0.18535893  0.62546739  0.65488791
   0.31327644  0.70761779  0.69963691
   0.93914709  0.28483182  0.12488477
   0.43809077  0.45495029  0.47830942
   0.06283651  0.70449753  0.47827028
   0.93787760  0.12074894  0.43428213
   0.43186026  0.12220363  0.30038058
   0.18783620  0.12090241  0.43427172
   0.56298897  0.04280955  0.87541211
   0.18841170  0.95686795  0.56532387
   0.68977431  0.78362819  0.12488685
   0.56373358  0.53279277  0.12472256
   0.30972799  0.03709366  0.38933279
   0.69143127  0.11472525  0.16700335
   0.81002886  0.20400013  0.21186853
   0.06425108  0.53690206  0.25613760
   0.56260521  0.70477889  0.47827281
   0.06322923  0.20685473  0.56557343
   0.55710205  0.37231490  0.30037031
   0.43904943  0.95285605  0.34502622
   0.18468047  0.96166160  0.83334131
   0.44164892  0.61432024  0.16683664
   0.93547795  0.45373344  0.21201593
   0.06443798  0.53359723  0.12471261
   0.81319175  0.37237420  0.52157398
   0.93199612  0.62232607  0.30042395
   0.31425048  0.03677388  0.25611288
   0.68785595  0.79117396  0.61048420
   0.18470766  0.46172048  0.83329377
   0.44134985  0.11500570  0.16686590
   0.31330914  0.37230874  0.52154687
   0.44070990  0.62321972  0.78827443
   0.06420898  0.03694134  0.25606535
   0.56327877  0.70719228  0.56556102
   0.93610383  0.29112139  0.74398633
   0.69074312  0.12332277  0.78837769
   0.18495566  0.45456927  0.21199881
   0.93495794  0.78745633  0.38928846
   0.68816294  0.29336537  0.87549392
   0.31729045  0.86491301  0.16683248
   0.43839616  0.45753008  0.69964021
   0.93921322  0.95308444  0.34501646
   0.68822824  0.62238331  0.52155523
   0.06012112  0.87522034  0.65483078
   0.06567433  0.87340178  0.78832050
   0.06034650  0.37532702  0.65485748
   0.68784725  0.45484620  0.47827859
   0.18948957  0.78667342  0.25613078
   0.43742155  0.12067668  0.43426768
   0.81382188  0.03442560  0.12471680
   0.93825528  0.62257504  0.52156084
   0.06254822  0.87042087  0.43429438
   0.81274560  0.53368696  0.12475810
   0.43917639  0.45294553  0.34504432