<?xml version="1.0" encoding="ISO-8859-1"?>
<modeling>
 <generator>
  <i name="program" type="string">vasp </i>
  <i name="version" type="string">5.4.4.18Apr17-6-g9f103f2a35  </i>
  <i name="subversion" type="string">(build Sep 27 2018 12:46:37) complex + VL-xray_ parallel </i>
  <i name="platform" type="string">LLNL_Quartz_ifc </i>
  <i name="date" type="string">2021 09 26 </i>
  <i name="time" type="string">21:01:36 </i>
 </generator>
 <incar>
  <i type="int" name="ISTART">     2</i>
  <i type="string" name="PREC">accurate</i>
  <i type="string" name="ALGO"> Fast</i>
  <i type="int" name="ICHARG">     2</i>
  <i type="int" name="INIWAV">     1</i>
  <i type="int" name="NELM">   100</i>
  <i type="int" name="NELMIN">     4</i>
  <i type="int" name="IBRION">     2</i>
  <i name="EDIFF">      0.00000100</i>
  <i type="int" name="NSW">     5</i>
  <i type="int" name="ISIF">     2</i>
  <i type="int" name="ISYM">     2</i>
  <i name="ENCUT">    450.00000000</i>
  <i name="POTIM">      0.25000000</i>
  <i type="string" name="LREAL"> Auto</i>
  <i type="int" name="ISMEAR">     0</i>
  <i name="SIGMA">      0.15000000</i>
  <i type="logical" name="LWAVE"> F  </i>
  <i type="logical" name="LCHARG"> F  </i>
  <i type="int" name="ICORELEVEL">     0</i>
  <i type="int" name="CLNT">     1</i>
  <i type="int" name="CLN">     1</i>
  <i type="int" name="INCAR     ">     0</i>
  <i name="CLZ">      0.00000000</i>
  <v type="int" name="KPOINT_BSE">    -1     0     0     0</v>
  <i type="int" name="NELM">   100</i>
 </incar>
 <structure name="primitive_cell" >
  <crystal>
   <varray name="basis" >
    <v>       9.72667804       0.00000000       0.00000000 </v>
    <v>       0.00000000       8.42355028       0.00000000 </v>
    <v>       0.00000000       0.00000000      45.00000000 </v>
   </varray>
   <i name="volume">   3686.99226691 </i>
   <varray name="rec_basis" >
    <v>       0.10281002       0.00000000       0.00000000 </v>
    <v>       0.00000000       0.11871479       0.00000000 </v>
    <v>       0.00000000       0.00000000       0.02222222 </v>
   </varray>
  </crystal>
  <varray name="positions" >
   <v>       0.06267704       0.03085066       0.12446339 </v>
   <v>      -0.05824909       0.11279251       0.16684780 </v>
   <v>       0.19323576       0.11090905       0.16599614 </v>
   <v>       0.06857894      -0.13592423       0.16687920 </v>
   <v>       0.18750444      -0.21479421       0.12435742 </v>
   <v>       0.31107515       0.03129266       0.12418458 </v>
   <v>      -0.06340566      -0.21744905       0.12455440 </v>
   <v>      -0.18893756       0.03185227       0.12440989 </v>
   <v>      -0.06292226       0.28327179       0.12459475 </v>
   <v>       0.18806017       0.28352302       0.12458842 </v>
   <v>      -0.18279443      -0.13753172       0.16697519 </v>
   <v>       0.06796621       0.36199367       0.16690438 </v>
   <v>       0.31670343      -0.13744711       0.16683159 </v>
   <v>      -0.30739259       0.11201362       0.16692098 </v>
   <v>       0.18113411      -0.04771206       0.21162715 </v>
   <v>      -0.18213149       0.36272948       0.16709643 </v>
   <v>      -0.05795629      -0.38716224       0.16691110 </v>
   <v>      -0.06909907      -0.04693581       0.21183290 </v>
   <v>       0.05521475       0.20322821       0.21193998 </v>
   <v>       0.31980264       0.36333587       0.16612300 </v>
   <v>      -0.31188546      -0.21673389       0.12445558 </v>
   <v>       0.06129279      -0.46804578       0.12459169 </v>
   <v>       0.19232693      -0.38833165       0.16677815 </v>
   <v>       0.44186157       0.11258096       0.16683751 </v>
   <v>       0.43890354      -0.21614331       0.12452145 </v>
   <v>      -0.31095138       0.28367365       0.12445179 </v>
   <v>       0.43803507       0.28495789       0.12430207 </v>
   <v>       0.05558410      -0.29779386       0.21158146 </v>
   <v>       0.30593031       0.20236600       0.21190052 </v>
   <v>      -0.43720322       0.03104076       0.12450662 </v>
   <v>       0.31312399      -0.46876308       0.12445536 </v>
   <v>      -0.18872665      -0.46828717       0.12436505 </v>
   <v>      -0.19414532       0.20271531       0.21156014 </v>
   <v>       0.30564452      -0.29756931       0.21170304 </v>
   <v>       0.43018800      -0.04688291       0.21184904 </v>
   <v>      -0.43198548      -0.13720745       0.16682097 </v>
   <v>      -0.30739454      -0.38695010       0.16701325 </v>
   <v>      -0.19432777      -0.29727959       0.21163361 </v>
   <v>       0.18031060       0.45316216       0.21188173 </v>
   <v>      -0.06886291       0.45260257       0.21170597 </v>
   <v>      -0.31957516      -0.04689454       0.21188289 </v>
   <v>       0.44299306      -0.38886304       0.16675275 </v>
   <v>      -0.43224579       0.36338030       0.16679744 </v>
   <v>       0.06557655       0.03542423       0.25602984 </v>
   <v>      -0.44462896       0.20215333       0.21150582 </v>
   <v>      -0.05939397      -0.21469374       0.25599763 </v>
   <v>      -0.18467571       0.03516913       0.25598335 </v>
   <v>       0.19051221      -0.21469460       0.25600345 </v>
   <v>       0.43103035       0.45302973       0.21188518 </v>
   <v>      -0.05944619       0.28535461       0.25596201 </v>
   <v>       0.31508525       0.03578125       0.25599841 </v>
   <v>       0.19052792       0.28543854       0.25594645 </v>
   <v>      -0.43712278      -0.46871785       0.12423875 </v>
   <v>      -0.31918014       0.45232095       0.21160767 </v>
   <v>      -0.44401303      -0.29759920       0.21156117 </v>
   <v>      -0.31000219      -0.21427251       0.25597674 </v>
   <v>       0.06546475      -0.46467758       0.25600503 </v>
   <v>      -0.30943833       0.28529801       0.25601322 </v>
   <v>       0.44062578      -0.21446374       0.25596276 </v>
   <v>       0.44051679       0.28549488       0.25598098 </v>
   <v>      -0.18440870      -0.46459957       0.25596586 </v>
   <v>      -0.43419362       0.03595709       0.25591617 </v>
   <v>       0.31557602      -0.46464260       0.25596948 </v>
   <v>       0.05349827      -0.12697915       0.30009160 </v>
   <v>       0.17936109       0.12276985       0.30028437 </v>
   <v>      -0.07115745       0.12218703       0.30025987 </v>
   <v>       0.30389964      -0.12772912       0.30026040 </v>
   <v>      -0.19596197      -0.12784685       0.30017372 </v>
   <v>       0.05399875       0.37241594       0.30023285 </v>
   <v>       0.17882835      -0.37770894       0.30027618 </v>
   <v>      -0.43443353      -0.46476118       0.25600847 </v>
   <v>       0.42867543       0.12203283       0.30034509 </v>
   <v>      -0.07131321      -0.37779725       0.30032068 </v>
   <v>       0.30402899       0.37251312       0.30025603 </v>
   <v>      -0.32040313       0.12187036       0.30019538 </v>
   <v>      -0.19653734       0.37199787       0.30032854 </v>
   <v>       0.42909758      -0.37749869       0.30028131 </v>
   <v>      -0.44633023      -0.12794316       0.30031962 </v>
   <v>      -0.32058426      -0.37813694       0.30010892 </v>
   <v>      -0.44622246       0.37218247       0.30033843 </v>
   <v>      -0.05742009      -0.04751884       0.34503028 </v>
   <v>       0.19125670      -0.04819869       0.34500036 </v>
   <v>       0.06577285       0.20265613       0.34505474 </v>
   <v>       0.06636983      -0.29799649       0.34494478 </v>
   <v>      -0.18352611       0.20192797       0.34496216 </v>
   <v>       0.31626145       0.20216789       0.34492181 </v>
   <v>      -0.18328045      -0.29766771       0.34504259 </v>
   <v>      -0.30857343      -0.04811781       0.34494805 </v>
   <v>       0.31610440      -0.29837311       0.34491954 </v>
   <v>      -0.05871079       0.45207712       0.34488421 </v>
   <v>       0.44181495      -0.04781567       0.34492841 </v>
   <v>       0.19178604       0.45201675       0.34498575 </v>
   <v>      -0.43374904       0.20184707       0.34496994 </v>
   <v>      -0.30887236       0.45199141       0.34490858 </v>
   <v>       0.44140792       0.45183719       0.34499152 </v>
   <v>       0.06448157       0.04244386      -0.12447026 </v>
   <v>      -0.43398784      -0.29832423       0.34490916 </v>
   <v>       0.19054455      -0.20421443      -0.12425261 </v>
   <v>      -0.06101295      -0.20549805      -0.12440311 </v>
   <v>       0.31426564       0.04139454      -0.12431230 </v>
   <v>      -0.18531203       0.04131812      -0.12460261 </v>
   <v>      -0.05771339       0.29610120      -0.12422957 </v>
   <v>       0.19091458       0.29692279      -0.12411003 </v>
   <v>       0.05841137       0.03736148       0.38906546 </v>
   <v>      -0.30804363      -0.20400819      -0.12423715 </v>
   <v>       0.06490513      -0.45816627      -0.12436085 </v>
   <v>       0.44110444      -0.20397328      -0.12426282 </v>
   <v>      -0.30985636       0.29593590      -0.12410647 </v>
   <v>       0.44088748       0.29715736      -0.12403267 </v>
   <v>       0.18342406      -0.21250912       0.38907560 </v>
   <v>      -0.06607111      -0.21262806       0.38896570 </v>
   <v>       0.30869606       0.03729073       0.38902628 </v>
   <v>       0.18336047       0.28857619       0.38907116 </v>
   <v>      -0.06629313       0.28737661       0.38894398 </v>
   <v>      -0.19140776       0.03743122       0.38907708 </v>
   <v>      -0.18540575      -0.45797799      -0.12437016 </v>
   <v>       0.31418962      -0.45797944      -0.12436883 </v>
   <v>      -0.43621780       0.04231763      -0.12438698 </v>
   <v>       0.05793123      -0.46230752       0.38899653 </v>
   <v>       0.43374625      -0.21240533       0.38907636 </v>
   <v>       0.43363097       0.28761798       0.38904198 </v>
   <v>      -0.31638962      -0.21218745       0.38905802 </v>
   <v>      -0.31632488       0.28763833       0.38904936 </v>
   <v>       0.30861605      -0.46237323       0.38908296 </v>
   <v>      -0.44133338       0.03754036       0.38890170 </v>
   <v>      -0.19132885      -0.46226402       0.38907202 </v>
   <v>      -0.43596516      -0.45812486      -0.12426590 </v>
   <v>       0.18373778      -0.03716770      -0.16688351 </v>
   <v>      -0.06658273      -0.03600404      -0.16673605 </v>
   <v>       0.05832228       0.21279676      -0.16672960 </v>
   <v>       0.05901205      -0.28694293      -0.16693332 </v>
   <v>       0.30864794       0.21302559      -0.16680378 </v>
   <v>      -0.19136673       0.21287730      -0.16651180 </v>
   <v>      -0.44154085      -0.46251039       0.38905808 </v>
   <v>       0.30857851      -0.28719832      -0.16682719 </v>
   <v>      -0.19127910      -0.28620114      -0.16664905 </v>
   <v>       0.43332354      -0.03722701      -0.16684820 </v>
   <v>      -0.31608602      -0.03618465      -0.16667153 </v>
   <v>       0.18365752       0.46300143      -0.16687731 </v>
   <v>      -0.06658996       0.46317465      -0.16690001 </v>
   <v>       0.06250515      -0.12942882       0.43444990 </v>
   <v>      -0.06159374       0.11970243       0.43440067 </v>
   <v>       0.18807774       0.12000265       0.43450394 </v>
   <v>      -0.44120842       0.21298741      -0.16654702 </v>
   <v>       0.43357021       0.46293801      -0.16687411 </v>
   <v>      -0.31637434       0.46365560      -0.16668876 </v>
   <v>      -0.18698703      -0.12874653       0.43445341 </v>
   <v>       0.31313410      -0.12927498       0.43445535 </v>
   <v>      -0.44154888      -0.28678049      -0.16693190 </v>
   <v>       0.06319431       0.37080294       0.43443279 </v>
   <v>       0.18803896      -0.37969371       0.43438334 </v>
   <v>      -0.06251927      -0.38067356       0.43463890 </v>
   <v>      -0.31237601       0.12021059       0.43446239 </v>
   <v>       0.43808134       0.12015297       0.43444974 </v>
   <v>       0.31292128       0.37071944       0.43444038 </v>
   <v>      -0.18746042       0.37047623       0.43448117 </v>
   <v>       0.43833340      -0.37970639       0.43426674 </v>
   <v>      -0.31180140      -0.37959162       0.43438725 </v>
   <v>      -0.43737678      -0.12956739       0.43447695 </v>
   <v>      -0.43699472       0.37039338       0.43446062 </v>
   <v>      -0.05501896       0.12465358      -0.21146461 </v>
   <v>       0.07089118      -0.12642589      -0.21172218 </v>
   <v>       0.19560038       0.12455520      -0.21151217 </v>
   <v>      -0.17973909      -0.12553973      -0.21164974 </v>
   <v>       0.32031122      -0.12571863      -0.21157201 </v>
   <v>       0.07023175       0.37462460      -0.21162381 </v>
   <v>      -0.05463130      -0.37565164      -0.21162980 </v>
   <v>       0.19517741      -0.37522676      -0.21145338 </v>
   <v>      -0.30446562       0.12452883      -0.21148516 </v>
   <v>      -0.17977489       0.37518835      -0.21172018 </v>
   <v>       0.44509578       0.12478660      -0.21147580 </v>
   <v>       0.32030979       0.37416491      -0.21151862 </v>
   <v>      -0.30479534      -0.37571979      -0.21165852 </v>
   <v>      -0.42995574      -0.12597052      -0.21167058 </v>
   <v>       0.44524696      -0.37531419      -0.21148665 </v>
   <v>       0.18789383      -0.04397959       0.47860223 </v>
   <v>      -0.06219685      -0.04409222       0.47867479 </v>
   <v>       0.06279102       0.20580536       0.47864667 </v>
   <v>      -0.42971174       0.37456226      -0.21152238 </v>
   <v>       0.06286729      -0.29429786       0.47861845 </v>
   <v>      -0.18704666       0.20573359       0.47855665 </v>
   <v>       0.31279312       0.20583573       0.47859404 </v>
   <v>      -0.18715873      -0.29407336       0.47861760 </v>
   <v>       0.31273211      -0.29438271       0.47863290 </v>
   <v>       0.43796458      -0.04401191       0.47860001 </v>
   <v>      -0.31234725      -0.04407764       0.47862604 </v>
   <v>      -0.06232239       0.45581309       0.47861712 </v>
   <v>       0.18789360       0.45590066       0.47863334 </v>
   <v>      -0.43718767       0.20580171       0.47862691 </v>
   <v>      -0.31219927       0.45579238       0.47864030 </v>
   <v>       0.43792762       0.45600492       0.47861692 </v>
   <v>      -0.43714234      -0.29409664       0.47863268 </v>
   <v>       0.06058524       0.04215439      -0.25583570 </v>
   <v>       0.18586830      -0.20815662      -0.25583689 </v>
   <v>      -0.06428068      -0.20804274      -0.25584702 </v>
   <v>       0.31070182       0.04215538      -0.25582823 </v>
   <v>      -0.18927357       0.04203073      -0.25584181 </v>
   <v>       0.18588735       0.29168508      -0.25584044 </v>
   <v>      -0.06400882       0.29160320      -0.25583553 </v>
   <v>       0.06079366      -0.45818438      -0.25585883 </v>
   <v>       0.43605312      -0.20774147      -0.25575196 </v>
   <v>      -0.31402871      -0.20827295      -0.25584732 </v>
   <v>       0.43574339       0.29200726      -0.25585124 </v>
   <v>      -0.31428796       0.29165808      -0.25582702 </v>
   <v>       0.31067799      -0.45792014      -0.25585202 </v>
   <v>      -0.18917809      -0.45847598      -0.25577979 </v>
   <v>      -0.43952720       0.04229951      -0.25583774 </v>
   <v>       0.06332664      -0.12800210      -0.47875454 </v>
   <v>      -0.06151777       0.12216516      -0.47867957 </v>
   <v>       0.18841609       0.12232795      -0.47869410 </v>
   <v>      -0.18647972      -0.12776168      -0.47872941 </v>
   <v>       0.31354871      -0.12785116      -0.47871293 </v>
   <v>       0.06350338       0.37239307      -0.47863807 </v>
   <v>       0.18846665      -0.37774659      -0.47867784 </v>
   <v>      -0.06154295      -0.37773093      -0.47860454 </v>
   <v>      -0.31144956       0.12233734      -0.47865125 </v>
   <v>       0.43826518       0.12197950      -0.47864773 </v>
   <v>      -0.18656815       0.37233347      -0.47865246 </v>
   <v>       0.31353962       0.37234458      -0.47864786 </v>
   <v>      -0.43915542      -0.45809836      -0.25578042 </v>
   <v>       0.43848409      -0.37779117      -0.47868035 </v>
   <v>      -0.31168779      -0.37759526      -0.47859415 </v>
   <v>      -0.43676377      -0.12791635      -0.47866541 </v>
   <v>      -0.43655307       0.37222846      -0.47868864 </v>
   <v>      -0.05957962      -0.04156974      -0.30030315 </v>
   <v>       0.19031067      -0.04170541      -0.30032723 </v>
   <v>       0.06501530       0.20824891      -0.30031048 </v>
   <v>       0.06525750      -0.29166917      -0.30031893 </v>
   <v>      -0.18484961       0.20818799      -0.30035417 </v>
   <v>       0.31504668       0.20829214      -0.30032444 </v>
   <v>      -0.18491085      -0.29184291      -0.30034917 </v>
   <v>      -0.30945862      -0.04165089      -0.30029212 </v>
   <v>       0.31515467      -0.29175755      -0.30037751 </v>
   <v>       0.44036252      -0.04168840      -0.30030678 </v>
   <v>      -0.05961542       0.45836452      -0.30032229 </v>
   <v>       0.19028966       0.45844151      -0.30031465 </v>
   <v>      -0.43463848       0.20841139      -0.30030691 </v>
   <v>      -0.30991235       0.45843227      -0.30031937 </v>
   <v>       0.44026957       0.45835870      -0.30031895 </v>
   <v>       0.18852666      -0.04242097      -0.43467477 </v>
   <v>      -0.06109737      -0.04210059      -0.43445431 </v>
   <v>       0.06382349       0.20768563      -0.43451531 </v>
   <v>      -0.43485888      -0.29180487      -0.30033224 </v>
   <v>       0.06369950      -0.29225593      -0.43453782 </v>
   <v>      -0.18610147       0.20765754      -0.43459401 </v>
   <v>       0.31381973       0.20775750      -0.43445048 </v>
   <v>      -0.18606396      -0.29245918      -0.43457429 </v>
   <v>       0.31383680      -0.29262421      -0.43444186 </v>
   <v>      -0.31131335      -0.04212967      -0.43455955 </v>
   <v>       0.43886710      -0.04224777      -0.43454630 </v>
   <v>      -0.06108903       0.45765355      -0.43457227 </v>
   <v>       0.18878661       0.45773372      -0.43457218 </v>
   <v>      -0.43607504       0.20763396      -0.43457798 </v>
   <v>      -0.31126683       0.45775919      -0.43455552 </v>
   <v>       0.43883428       0.45781434      -0.43454274 </v>
   <v>      -0.43621477      -0.29228145      -0.43457517 </v>
   <v>       0.05894018      -0.12422391      -0.34508056 </v>
   <v>       0.18398418       0.12577471      -0.34508088 </v>
   <v>      -0.06613580       0.12574396      -0.34505849 </v>
   <v>       0.30890070      -0.12423671      -0.34508310 </v>
   <v>      -0.19117153      -0.12432976      -0.34508285 </v>
   <v>       0.05883843       0.37565927      -0.34506925 </v>
   <v>       0.18385288      -0.37450928      -0.34503664 </v>
   <v>      -0.06611390      -0.37416826      -0.34507651 </v>
   <v>       0.43386016       0.12574357      -0.34508447 </v>
   <v>      -0.31597739       0.12612523      -0.34500964 </v>
   <v>       0.30887030       0.37554743      -0.34509215 </v>
   <v>      -0.19114989       0.37550685      -0.34506867 </v>
   <v>       0.43382770      -0.37418064      -0.34506430 </v>
   <v>      -0.44115497      -0.12432048      -0.34505382 </v>
   <v>      -0.31603158      -0.37404161      -0.34505296 </v>
   <v>      -0.44106394       0.37563242      -0.34507275 </v>
   <v>       0.06267297       0.04179661      -0.38914939 </v>
   <v>      -0.06219204      -0.20815791      -0.38919230 </v>
   <v>      -0.18698094       0.04156386      -0.38932385 </v>
   <v>       0.18765672      -0.20812085      -0.38913179 </v>
   <v>       0.31270730       0.04188222      -0.38908965 </v>
   <v>       0.18781829       0.29180139      -0.38920200 </v>
   <v>      -0.06217726       0.29187933      -0.38919995 </v>
   <v>       0.06262333      -0.45818920      -0.38914382 </v>
   <v>       0.43762446      -0.20805091      -0.38912633 </v>
   <v>      -0.31224122      -0.20814218      -0.38912231 </v>
   <v>       0.43782725       0.29177846      -0.38922168 </v>
   <v>      -0.31236724       0.29199636      -0.38913004 </v>
   <v>      -0.18738674      -0.45813832      -0.38913917 </v>
   <v>       0.31271669      -0.45810120      -0.38913402 </v>
   <v>      -0.43708870       0.04173685      -0.38926153 </v>
   <v>      -0.43728427      -0.45810602      -0.38914284 </v>
  </varray>
 </structure>
 <varray name="primitive_index" >
  <v type="int" >        1 </v>
  <v type="int" >       26 </v>
  <v type="int" >      282 </v>
  <v type="int" >       60 </v>
  <v type="int" >       83 </v>
  <v type="int" >      256 </v>
  <v type="int" >      212 </v>
  <v type="int" >      202 </v>
  <v type="int" >      155 </v>
  <v type="int" >      111 </v>
  <v type="int" >      102 </v>
  <v type="int" >       51 </v>
  <v type="int" >      192 </v>
  <v type="int" >      166 </v>
  <v type="int" >      146 </v>
  <v type="int" >      252 </v>
  <v type="int" >      104 </v>
  <v type="int" >      273 </v>
  <v type="int" >       50 </v>
  <v type="int" >      283 </v>
  <v type="int" >      163 </v>
  <v type="int" >      176 </v>
  <v type="int" >       20 </v>
  <v type="int" >      182 </v>
  <v type="int" >       48 </v>
  <v type="int" >      145 </v>
  <v type="int" >      117 </v>
  <v type="int" >      250 </v>
  <v type="int" >      123 </v>
  <v type="int" >      251 </v>
  <v type="int" >       91 </v>
  <v type="int" >      205 </v>
  <v type="int" >      167 </v>
  <v type="int" >      276 </v>
  <v type="int" >      229 </v>
  <v type="int" >      277 </v>
  <v type="int" >       97 </v>
  <v type="int" >      213 </v>
  <v type="int" >      189 </v>
  <v type="int" >      175 </v>
  <v type="int" >       92 </v>
  <v type="int" >      174 </v>
  <v type="int" >       30 </v>
  <v type="int" >      185 </v>
  <v type="int" >      103 </v>
  <v type="int" >       52 </v>
  <v type="int" >       24 </v>
  <v type="int" >      200 </v>
  <v type="int" >      139 </v>
  <v type="int" >      127 </v>
  <v type="int" >      179 </v>
  <v type="int" >       35 </v>
  <v type="int" >      164 </v>
  <v type="int" >      261 </v>
  <v type="int" >      243 </v>
  <v type="int" >      118 </v>
  <v type="int" >      168 </v>
  <v type="int" >       58 </v>
  <v type="int" >      137 </v>
  <v type="int" >      265 </v>
  <v type="int" >       81 </v>
  <v type="int" >      281 </v>
  <v type="int" >      275 </v>
  <v type="int" >      214 </v>
  <v type="int" >      215 </v>
  <v type="int" >      135 </v>
  <v type="int" >       98 </v>
  <v type="int" >       72 </v>
  <v type="int" >      226 </v>
  <v type="int" >      263 </v>
  <v type="int" >       28 </v>
  <v type="int" >      159 </v>
  <v type="int" >      178 </v>
  <v type="int" >      242 </v>
  <v type="int" >      109 </v>
  <v type="int" >      220 </v>
  <v type="int" >      101 </v>
  <v type="int" >      210 </v>
  <v type="int" >      130 </v>
  <v type="int" >      171 </v>
  <v type="int" >      287 </v>
  <v type="int" >      258 </v>
  <v type="int" >       47 </v>
  <v type="int" >      216 </v>
  <v type="int" >      207 </v>
  <v type="int" >       86 </v>
  <v type="int" >       73 </v>
  <v type="int" >       25 </v>
  <v type="int" >      208 </v>
  <v type="int" >       12 </v>
  <v type="int" >      172 </v>
  <v type="int" >      116 </v>
  <v type="int" >      219 </v>
  <v type="int" >      279 </v>
  <v type="int" >      206 </v>
  <v type="int" >       84 </v>
  <v type="int" >       62 </v>
  <v type="int" >      268 </v>
  <v type="int" >      105 </v>
  <v type="int" >      245 </v>
  <v type="int" >      284 </v>
  <v type="int" >      280 </v>
  <v type="int" >      120 </v>
  <v type="int" >      124 </v>
  <v type="int" >       29 </v>
  <v type="int" >      266 </v>
  <v type="int" >      150 </v>
  <v type="int" >      191 </v>
  <v type="int" >      255 </v>
  <v type="int" >        7 </v>
  <v type="int" >      190 </v>
  <v type="int" >      165 </v>
  <v type="int" >      248 </v>
  <v type="int" >       13 </v>
  <v type="int" >       38 </v>
  <v type="int" >      247 </v>
  <v type="int" >       18 </v>
  <v type="int" >      161 </v>
  <v type="int" >      286 </v>
  <v type="int" >      264 </v>
  <v type="int" >        4 </v>
  <v type="int" >       45 </v>
  <v type="int" >       55 </v>
  <v type="int" >       67 </v>
  <v type="int" >       16 </v>
  <v type="int" >      270 </v>
  <v type="int" >       64 </v>
  <v type="int" >      173 </v>
  <v type="int" >       17 </v>
  <v type="int" >      259 </v>
  <v type="int" >      134 </v>
  <v type="int" >       39 </v>
  <v type="int" >        6 </v>
  <v type="int" >      222 </v>
  <v type="int" >        5 </v>
  <v type="int" >      253 </v>
  <v type="int" >      110 </v>
  <v type="int" >       88 </v>
  <v type="int" >      181 </v>
  <v type="int" >       36 </v>
  <v type="int" >      204 </v>
  <v type="int" >      158 </v>
  <v type="int" >      160 </v>
  <v type="int" >      143 </v>
  <v type="int" >       74 </v>
  <v type="int" >       82 </v>
  <v type="int" >      285 </v>
  <v type="int" >       23 </v>
  <v type="int" >      241 </v>
  <v type="int" >      218 </v>
  <v type="int" >      238 </v>
  <v type="int" >      131 </v>
  <v type="int" >      257 </v>
  <v type="int" >      201 </v>
  <v type="int" >      113 </v>
  <v type="int" >       80 </v>
  <v type="int" >      249 </v>
  <v type="int" >      232 </v>
  <v type="int" >       69 </v>
  <v type="int" >      235 </v>
  <v type="int" >      149 </v>
  <v type="int" >      197 </v>
  <v type="int" >        3 </v>
  <v type="int" >      112 </v>
  <v type="int" >      224 </v>
  <v type="int" >      254 </v>
  <v type="int" >      132 </v>
  <v type="int" >      272 </v>
  <v type="int" >      188 </v>
  <v type="int" >       57 </v>
  <v type="int" >       49 </v>
  <v type="int" >      138 </v>
  <v type="int" >       66 </v>
  <v type="int" >       33 </v>
  <v type="int" >      184 </v>
  <v type="int" >      288 </v>
  <v type="int" >      236 </v>
  <v type="int" >      223 </v>
  <v type="int" >      106 </v>
  <v type="int" >      157 </v>
  <v type="int" >       21 </v>
  <v type="int" >      230 </v>
  <v type="int" >      234 </v>
  <v type="int" >       99 </v>
  <v type="int" >      221 </v>
  <v type="int" >       75 </v>
  <v type="int" >      269 </v>
  <v type="int" >      244 </v>
  <v type="int" >      237 </v>
  <v type="int" >      199 </v>
  <v type="int" >      156 </v>
  <v type="int" >      169 </v>
  <v type="int" >        9 </v>
  <v type="int" >      262 </v>
  <v type="int" >       46 </v>
  <v type="int" >      239 </v>
  <v type="int" >      151 </v>
  <v type="int" >       11 </v>
  <v type="int" >      187 </v>
  <v type="int" >      211 </v>
  <v type="int" >       31 </v>
  <v type="int" >       43 </v>
  <v type="int" >       71 </v>
  <v type="int" >       19 </v>
  <v type="int" >       94 </v>
  <v type="int" >       87 </v>
  <v type="int" >      267 </v>
  <v type="int" >        2 </v>
  <v type="int" >       27 </v>
  <v type="int" >      140 </v>
  <v type="int" >       10 </v>
  <v type="int" >      144 </v>
  <v type="int" >      107 </v>
  <v type="int" >       68 </v>
  <v type="int" >      203 </v>
  <v type="int" >       34 </v>
  <v type="int" >      152 </v>
  <v type="int" >      177 </v>
  <v type="int" >      183 </v>
  <v type="int" >      278 </v>
  <v type="int" >       14 </v>
  <v type="int" >      195 </v>
  <v type="int" >       77 </v>
  <v type="int" >      108 </v>
  <v type="int" >      225 </v>
  <v type="int" >      119 </v>
  <v type="int" >       37 </v>
  <v type="int" >      274 </v>
  <v type="int" >      233 </v>
  <v type="int" >       63 </v>
  <v type="int" >      141 </v>
  <v type="int" >       54 </v>
  <v type="int" >      154 </v>
  <v type="int" >      125 </v>
  <v type="int" >      136 </v>
  <v type="int" >      246 </v>
  <v type="int" >       53 </v>
  <v type="int" >       76 </v>
  <v type="int" >      193 </v>
  <v type="int" >      162 </v>
  <v type="int" >      129 </v>
  <v type="int" >      170 </v>
  <v type="int" >      133 </v>
  <v type="int" >       65 </v>
  <v type="int" >      271 </v>
  <v type="int" >       93 </v>
  <v type="int" >       32 </v>
  <v type="int" >       90 </v>
  <v type="int" >       95 </v>
  <v type="int" >       56 </v>
  <v type="int" >       42 </v>
  <v type="int" >       59 </v>
  <v type="int" >        8 </v>
  <v type="int" >      228 </v>
  <v type="int" >       70 </v>
  <v type="int" >      186 </v>
  <v type="int" >      196 </v>
  <v type="int" >      121 </v>
  <v type="int" >      122 </v>
  <v type="int" >       44 </v>
  <v type="int" >       79 </v>
  <v type="int" >      198 </v>
  <v type="int" >      153 </v>
  <v type="int" >      240 </v>
  <v type="int" >      231 </v>
  <v type="int" >      209 </v>
  <v type="int" >       85 </v>
  <v type="int" >      194 </v>
  <v type="int" >       40 </v>
  <v type="int" >       89 </v>
  <v type="int" >      227 </v>
  <v type="int" >       78 </v>
  <v type="int" >      142 </v>
  <v type="int" >      114 </v>
  <v type="int" >      217 </v>
  <v type="int" >       15 </v>
  <v type="int" >      148 </v>
  <v type="int" >       61 </v>
  <v type="int" >      100 </v>
  <v type="int" >      126 </v>
  <v type="int" >       96 </v>
  <v type="int" >      180 </v>
  <v type="int" >      115 </v>
  <v type="int" >      147 </v>
  <v type="int" >       22 </v>
  <v type="int" >       41 </v>
  <v type="int" >      260 </v>
  <v type="int" >      128 </v>
 </varray>
 <kpoints>
  <generation param="Gamma">
   <v type="int" name="divisions">       4        4        1 </v>
   <v name="usershift">      0.00000000       0.00000000       0.00000000 </v>
   <v name="genvec1">      0.25000000       0.00000000       0.00000000 </v>
   <v name="genvec2">      0.00000000       0.25000000       0.00000000 </v>
   <v name="genvec3">      0.00000000       0.00000000       1.00000000 </v>
   <v name="shift">      0.00000000       0.00000000       0.00000000 </v>
  </generation>
  <varray name="kpointlist" >
   <v>       0.00000000       0.00000000       0.00000000 </v>
   <v>       0.25000000       0.00000000       0.00000000 </v>
   <v>       0.50000000       0.00000000       0.00000000 </v>
   <v>       0.00000000       0.25000000       0.00000000 </v>
   <v>       0.25000000       0.25000000       0.00000000 </v>
   <v>       0.50000000       0.25000000       0.00000000 </v>
   <v>      -0.25000000       0.25000000       0.00000000 </v>
   <v>       0.00000000       0.50000000       0.00000000 </v>
   <v>       0.25000000       0.50000000       0.00000000 </v>
   <v>       0.50000000       0.50000000       0.00000000 </v>
  </varray>
  <varray name="weights" >
   <v>       0.06250000 </v>
   <v>       0.12500000 </v>
   <v>       0.06250000 </v>
   <v>       0.12500000 </v>
   <v>       0.12500000 </v>
   <v>       0.12500000 </v>
   <v>       0.12500000 </v>
   <v>       0.06250000 </v>
   <v>       0.12500000 </v>
   <v>       0.06250000 </v>
  </varray>
 </kpoints>
 <parameters>
  <separator name="general" >
   <i type="string" name="SYSTEM">unknown system</i>
   <i type="logical" name="LCOMPAT"> F  </i>
  </separator>
  <separator name="electronic" >
   <i type="string" name="PREC">accura</i>
   <i name="ENMAX">    450.00000000</i>
   <i name="ENAUG">    838.43500000</i>
   <i name="EDIFF">      0.00000100</i>
   <i type="int" name="IALGO">    68</i>
   <i type="int" name="IWAVPR">    11</i>
   <i type="int" name="NBANDS">  1386</i>
   <i name="NELECT">   2297.00000000</i>
   <i type="int" name="TURBO">     0</i>
   <i type="int" name="IRESTART">     0</i>
   <i type="int" name="NREBOOT">     0</i>
   <i type="int" name="NMIN">     0</i>
   <i name="EREF">      0.00000000</i>
   <separator name="electronic smearing" >
    <i type="int" name="ISMEAR">     0</i>
    <i name="SIGMA">      0.15000000</i>
    <i name="KSPACING">      0.50000000</i>
    <i type="logical" name="KGAMMA"> T  </i>
   </separator>
   <separator name="electronic projectors" >
    <i type="logical" name="LREAL"> T  </i>
    <v name="ROPT">     -0.00025000     -0.00025000</v>
    <i type="int" name="LMAXPAW">  -100</i>
    <i type="int" name="LMAXMIX">     2</i>
    <i type="logical" name="NLSPLINE"> F  </i>
   </separator>
   <separator name="electronic startup" >
    <i type="int" name="ISTART">     0</i>
    <i type="int" name="ICHARG">     2</i>
    <i type="int" name="INIWAV">     1</i>
   </separator>
   <separator name="electronic spin" >
    <i type="int" name="ISPIN">     1</i>
    <i type="logical" name="LNONCOLLINEAR"> F  </i>
    <v name="MAGMOM">      1.00000000      1.00000000      1.00000000      1.00000000      1.00000000      1.00000000      1.00000000      1.00000000      1.00000000      1.00000000      1.00000000      1.00000000      1.00000000      1.00000000      1.00000000      1.00000000      1.00000000      1.00000000      1.00000000      1.00000000
      1.00000000      1.00000000      1.00000000      1.00000000      1.00000000      1.00000000      1.00000000      1.00000000      1.00000000      1.00000000      1.00000000      1.00000000      1.00000000      1.00000000      1.00000000      1.00000000      1.00000000      1.00000000      1.00000000      1.00000000
      1.00000000      1.00000000      1.00000000      1.00000000      1.00000000      1.00000000      1.00000000      1.00000000      1.00000000      1.00000000      1.00000000      1.00000000      1.00000000      1.00000000      1.00000000      1.00000000      1.00000000      1.00000000      1.00000000      1.00000000
      1.00000000      1.00000000      1.00000000      1.00000000      1.00000000      1.00000000      1.00000000      1.00000000      1.00000000      1.00000000      1.00000000      1.00000000      1.00000000      1.00000000      1.00000000      1.00000000      1.00000000      1.00000000      1.00000000      1.00000000
      1.00000000      1.00000000      1.00000000      1.00000000      1.00000000      1.00000000      1.00000000      1.00000000      1.00000000      1.00000000      1.00000000      1.00000000      1.00000000      1.00000000      1.00000000      1.00000000      1.00000000      1.00000000      1.00000000      1.00000000
      1.00000000      1.00000000      1.00000000      1.00000000      1.00000000      1.00000000      1.00000000      1.00000000      1.00000000      1.00000000      1.00000000      1.00000000      1.00000000      1.00000000      1.00000000      1.00000000      1.00000000      1.00000000      1.00000000      1.00000000
      1.00000000      1.00000000      1.00000000      1.00000000      1.00000000      1.00000000      1.00000000      1.00000000      1.00000000      1.00000000      1.00000000      1.00000000      1.00000000      1.00000000      1.00000000      1.00000000      1.00000000      1.00000000      1.00000000      1.00000000
      1.00000000      1.00000000      1.00000000      1.00000000      1.00000000      1.00000000      1.00000000      1.00000000      1.00000000      1.00000000      1.00000000      1.00000000      1.00000000      1.00000000      1.00000000      1.00000000      1.00000000      1.00000000      1.00000000      1.00000000
      1.00000000      1.00000000      1.00000000      1.00000000      1.00000000      1.00000000      1.00000000      1.00000000      1.00000000      1.00000000      1.00000000      1.00000000      1.00000000      1.00000000      1.00000000      1.00000000      1.00000000      1.00000000      1.00000000      1.00000000
      1.00000000      1.00000000      1.00000000      1.00000000      1.00000000      1.00000000      1.00000000      1.00000000      1.00000000      1.00000000      1.00000000      1.00000000      1.00000000      1.00000000      1.00000000      1.00000000      1.00000000      1.00000000      1.00000000      1.00000000
      1.00000000      1.00000000      1.00000000      1.00000000      1.00000000      1.00000000      1.00000000      1.00000000      1.00000000      1.00000000      1.00000000      1.00000000      1.00000000      1.00000000      1.00000000      1.00000000      1.00000000      1.00000000      1.00000000      1.00000000
      1.00000000      1.00000000      1.00000000      1.00000000      1.00000000      1.00000000      1.00000000      1.00000000      1.00000000      1.00000000      1.00000000      1.00000000      1.00000000      1.00000000      1.00000000      1.00000000      1.00000000      1.00000000      1.00000000      1.00000000
      1.00000000      1.00000000      1.00000000      1.00000000      1.00000000      1.00000000      1.00000000      1.00000000      1.00000000      1.00000000      1.00000000      1.00000000      1.00000000      1.00000000      1.00000000      1.00000000      1.00000000      1.00000000      1.00000000      1.00000000
      1.00000000      1.00000000      1.00000000      1.00000000      1.00000000      1.00000000      1.00000000      1.00000000      1.00000000      1.00000000      1.00000000      1.00000000      1.00000000      1.00000000      1.00000000      1.00000000      1.00000000      1.00000000      1.00000000      1.00000000
      1.00000000      1.00000000      1.00000000      1.00000000      1.00000000      1.00000000      1.00000000      1.00000000</v>
    <i name="NUPDOWN">     -1.00000000</i>
    <i type="logical" name="LSORBIT"> F  </i>
    <v name="SAXIS">      0.00000000      0.00000000      1.00000000</v>
    <i type="logical" name="LSPIRAL"> F  </i>
    <v name="QSPIRAL">      0.00000000      0.00000000      0.00000000</v>
    <i type="logical" name="LZEROZ"> F  </i>
   </separator>
   <separator name="electronic exchange-correlation" >
    <i type="logical" name="LASPH"> F  </i>
    <i type="logical" name="LMETAGGA"> F  </i>
   </separator>
   <separator name="electronic convergence" >
    <i type="int" name="NELM">   100</i>
    <i type="int" name="NELMDL">     0</i>
    <i type="int" name="NELMIN">     4</i>
    <i name="ENINI">    450.00000000</i>
    <separator name="electronic convergence detail" >
     <i type="logical" name="LDIAG"> T  </i>
     <i type="logical" name="LSUBROT"> F  </i>
     <i name="WEIMIN">      0.00100000</i>
     <i name="EBREAK">      0.00000000</i>
     <i name="DEPER">      0.30000000</i>
     <i type="int" name="NRMM">     4</i>
     <i name="TIME">      0.40000000</i>
    </separator>
   </separator>
   <separator name="electronic mixer" >
    <i name="AMIX">      0.40000000</i>
    <i name="BMIX">      1.00000000</i>
    <i name="AMIN">      0.10000000</i>
    <i name="AMIX_MAG">      1.60000000</i>
    <i name="BMIX_MAG">      1.00000000</i>
    <separator name="electronic mixer details" >
     <i type="int" name="IMIX">     4</i>
     <i type="logical" name="MIXFIRST"> F  </i>
     <i type="int" name="MAXMIX">   -45</i>
     <i name="WC">    100.00000000</i>
     <i type="int" name="INIMIX">     1</i>
     <i type="int" name="MIXPRE">     1</i>
     <i type="int" name="MREMOVE">     5</i>
    </separator>
   </separator>
   <separator name="electronic dipolcorrection" >
    <i type="logical" name="LDIPOL"> F  </i>
    <i type="logical" name="LMONO"> F  </i>
    <i type="int" name="IDIPOL">     0</i>
    <i name="EPSILON">      1.00000000</i>
    <v name="DIPOL">   -100.00000000   -100.00000000   -100.00000000</v>
    <i name="EFIELD">      0.00000000</i>
   </separator>
  </separator>
  <separator name="grids" >
   <i type="int" name="NGX">    70</i>
   <i type="int" name="NGY">    60</i>
   <i type="int" name="NGZ">   320</i>
   <i type="int" name="NGXF">   140</i>
   <i type="int" name="NGYF">   120</i>
   <i type="int" name="NGZF">   640</i>
   <i type="logical" name="ADDGRID"> F  </i>
  </separator>
  <separator name="ionic" >
   <i type="int" name="NSW">     5</i>
   <i type="int" name="IBRION">     2</i>
   <i type="int" name="MDALGO">     0</i>
   <i type="int" name="ISIF">     2</i>
   <i name="PSTRESS">      0.00000000</i>
   <i name="EDIFFG">      0.00001000</i>
   <i type="int" name="NFREE">     1</i>
   <i name="POTIM">      0.25000000</i>
   <i name="SMASS">     -3.00000000</i>
   <i name="SCALEE">      1.00000000</i>
  </separator>
  <separator name="ionic md" >
   <i name="TEBEG">      0.00010000</i>
   <i name="TEEND">      0.00010000</i>
   <i type="int" name="NBLOCK">     1</i>
   <i type="int" name="KBLOCK">     5</i>
   <i type="int" name="NPACO">   256</i>
   <i name="APACO">     16.00000000</i>
  </separator>
  <separator name="symmetry" >
   <i type="int" name="ISYM">     2</i>
   <i name="SYMPREC">      0.00001000</i>
  </separator>
  <separator name="dos" >
   <i type="int" name="LORBIT">     0</i>
   <v name="RWIGS">     -1.00000000     -1.00000000</v>
   <i type="int" name="NEDOS">   301</i>
   <i name="EMIN">     10.00000000</i>
   <i name="EMAX">    -10.00000000</i>
   <i name="EFERMI">      0.00000000</i>
  </separator>
  <separator name="writing" >
   <i type="int" name="NWRITE">     2</i>
   <i type="logical" name="LWAVE"> F  </i>
   <i type="logical" name="LDOWNSAMPLE"> F  </i>
   <i type="logical" name="LCHARG"> F  </i>
   <i type="logical" name="LPARD"> F  </i>
   <i type="logical" name="LVTOT"> F  </i>
   <i type="logical" name="LVHAR"> F  </i>
   <i type="logical" name="LELF"> F  </i>
   <i type="logical" name="LOPTICS"> F  </i>
   <v name="STM">      0.00000000      0.00000000      0.00000000      0.00000000      0.00000000      0.00000000      0.00000000</v>
  </separator>
  <separator name="performance" >
   <i type="int" name="NPAR">    14</i>
   <i type="int" name="NSIM">     4</i>
   <i type="int" name="NBLK">    -1</i>
   <i type="logical" name="LPLANE"> T  </i>
   <i type="logical" name="LSCALAPACK"> T  </i>
   <i type="logical" name="LSCAAWARE"> T  </i>
   <i type="logical" name="LSCALU"> F  </i>
   <i type="logical" name="LASYNC"> F  </i>
   <i type="logical" name="LORBITALREAL"> F  </i>
  </separator>
  <separator name="miscellaneous" >
   <i type="int" name="IDIOT">     3</i>
   <i type="int" name="ISPECIAL">     0</i>
   <i type="logical" name="LMUSIC"> F  </i>
   <v name="POMASS">     55.84700000     54.93800000</v>
   <v name="DARWINR">      0.00000000      0.00000000</v>
   <v name="DARWINV">      1.00000000      1.00000000</v>
   <i type="logical" name="LCORR"> T  </i>
  </separator>
  <i type="logical" name="GGA_COMPAT"> T  </i>
  <i type="logical" name="LBERRY"> F  </i>
  <i type="int" name="ICORELEVEL">     0</i>
  <i type="logical" name="LDAU"> F  </i>
  <i type="int" name="I_CONSTRAINED_M">     0</i>
  <separator name="electronic exchange-correlation" >
   <i type="string" name="GGA">--</i>
   <i type="int" name="VOSKOWN">     0</i>
   <i type="logical" name="LHFCALC"> F  </i>
   <i type="string" name="PRECFOCK"></i>
   <i type="logical" name="LSYMGRAD"> F  </i>
   <i type="logical" name="LHFONE"> F  </i>
   <i type="logical" name="LRHFCALC"> F  </i>
   <i type="logical" name="LTHOMAS"> F  </i>
   <i type="logical" name="LMODELHF"> F  </i>
   <i name="ENCUT4O">     -1.00000000</i>
   <i type="int" name="EXXOEP">     0</i>
   <i type="int" name="FOURORBIT">     0</i>
   <i name="AEXX">      0.00000000</i>
   <i name="HFALPHA">      0.00000000</i>
   <i name="MCALPHA">      0.00000000</i>
   <i name="ALDAX">      1.00000000</i>
   <i name="AGGAX">      1.00000000</i>
   <i name="ALDAC">      1.00000000</i>
   <i name="AGGAC">      1.00000000</i>
   <i type="int" name="NKREDX">     1</i>
   <i type="int" name="NKREDY">     1</i>
   <i type="int" name="NKREDZ">     1</i>
   <i type="logical" name="SHIFTRED"> F  </i>
   <i type="logical" name="ODDONLY"> F  </i>
   <i type="logical" name="EVENONLY"> F  </i>
   <i type="int" name="LMAXFOCK">     0</i>
   <i type="int" name="NMAXFOCKAE">     0</i>
   <i type="logical" name="LFOCKAEDFT"> F  </i>
   <i name="HFSCREEN">      0.00000000</i>
   <i name="HFSCREENC">      0.00000000</i>
   <i type="int" name="NBANDSGWLOW">     0</i>
  </separator>
  <separator name="vdW DFT" >
   <i type="logical" name="LUSE_VDW"> F  </i>
   <i name="Zab_VDW">     -0.84910000</i>
   <i name="PARAM1">      0.12340000</i>
   <i name="PARAM2">      1.00000000</i>
   <i name="PARAM3">      0.00000000</i>
  </separator>
  <separator name="model GW" >
   <i type="int" name="MODEL_GW">     0</i>
   <i name="MODEL_EPS0">      7.68123389</i>
   <i name="MODEL_ALPHA">      1.00000000</i>
  </separator>
  <separator name="linear response parameters" >
   <i type="logical" name="LEPSILON"> F  </i>
   <i type="logical" name="LRPA"> F  </i>
   <i type="logical" name="LNABLA"> F  </i>
   <i type="logical" name="LVEL"> F  </i>
   <i type="int" name="KINTER">     0</i>
   <i name="CSHIFT">      0.10000000</i>
   <i name="OMEGAMAX">     -1.00000000</i>
   <i name="DEG_THRESHOLD">      0.00200000</i>
   <i name="RTIME">     -0.10000000</i>
   <i name="WPLASMAI">      0.00000000</i>
   <v name="DFIELD">      0.00000000      0.00000000      0.00000000</v>
   <v name="WPLASMA">      0.00000000      0.00000000      0.00000000      0.00000000      0.00000000      0.00000000      0.00000000      0.00000000      0.00000000</v>
  </separator>
  <separator name="orbital magnetization" >
   <i type="logical" name="NUCIND"> F  </i>
   <v name="MAGPOS">      0.00000000      0.00000000      0.00000000</v>
   <i type="logical" name="LNICSALL"> T  </i>
   <i type="logical" name="ORBITALMAG"> F  </i>
   <i type="logical" name="LMAGBLOCH"> F  </i>
   <i type="logical" name="LCHIMAG"> F  </i>
   <i type="logical" name="LGAUGE"> T  </i>
   <i type="int" name="MAGATOM">     0</i>
   <v name="MAGDIPOL">      0.00000000      0.00000000      0.00000000</v>
   <v name="AVECCONST">      0.00000000      0.00000000      0.00000000</v>
  </separator>
  <separator name="response functions" >
   <i type="logical" name="LADDER"> F  </i>
   <i type="logical" name="LRPAFORCE"> F  </i>
   <i type="logical" name="LFXC"> F  </i>
   <i type="logical" name="LHARTREE"> T  </i>
   <i type="int" name="IBSE">     0</i>
   <v type="int" name="KPOINT">    -1     0     0     0</v>
   <i type="logical" name="LTCTE"> F  </i>
   <i type="logical" name="LTETE"> F  </i>
   <i type="logical" name="LTRIPLET"> F  </i>
   <i type="logical" name="LFXCEPS"> F  </i>
   <i type="logical" name="LFXHEG"> F  </i>
   <i type="int" name="NATURALO">     2</i>
   <i type="logical" name="L2ORDER"> F  </i>
   <i type="logical" name="LMP2LT"> F  </i>
   <i type="logical" name="LUSEW"> F  </i>
   <i name="ENCUTGW">     -2.00000000</i>
   <i name="ENCUTGWSOFT">     -2.00000000</i>
   <i name="ENCUTLF">     -1.00000000</i>
   <i type="int" name="LMAXMP2">    -1</i>
   <i name="SCISSOR">      0.00000000</i>
   <i type="int" name="NOMEGA">     0</i>
   <i type="int" name="NOMEGAR">     0</i>
   <i type="int" name="NBANDSGW">    -1</i>
   <i type="int" name="NBANDSO">    -1</i>
   <i type="int" name="NBANDSV">    -1</i>
   <i type="int" name="NELM">   100</i>
   <i type="int" name="NELMHF">     1</i>
   <i type="int" name="DIM">     3</i>
   <i type="int" name="ANTIRES">     0</i>
   <i name="OMEGAMAX">    -30.00000000</i>
   <i name="OMEGAMIN">    -30.00000000</i>
   <i name="OMEGATL">   -200.00000000</i>
   <i type="int" name="OMEGAGRID">   140</i>
   <i name="CSHIFT">     -0.10000000</i>
   <i type="logical" name="SELFENERGY"> F  </i>
   <i type="logical" name="LSPECTRAL"> F  </i>
   <i type="logical" name="LSPECTRALGW"> F  </i>
   <i type="logical" name="LSINGLES"> F  </i>
   <i type="logical" name="LFERMIGW"> F  </i>
   <i type="logical" name="ODDONLYGW"> F  </i>
   <i type="logical" name="EVENONLYGW"> F  </i>
   <i type="int" name="NKREDLFX">     1</i>
   <i type="int" name="NKREDLFY">     1</i>
   <i type="int" name="NKREDLFZ">     1</i>
   <i type="int" name="MAXMEM">  2800</i>
   <i type="int" name="TELESCOPE">     0</i>
   <i type="int" name="TAUPAR">     1</i>
   <i type="int" name="OMEGAPAR">    -1</i>
   <i name="LAMBDA">      1.00000000</i>
  </separator>
  <separator name="External order field" >
   <i name="OFIELD_KAPPA">      0.00000000</i>
   <v name="OFIELD_K">      0.00000000      0.00000000      0.00000000</v>
   <i name="OFIELD_Q6_NEAR">      0.00000000</i>
   <i name="OFIELD_Q6_FAR">      0.00000000</i>
   <i name="OFIELD_A">      0.00000000</i>
  </separator>
 </parameters>
 <atominfo>
  <atoms>     288 </atoms>
  <types>       2 </types>
  <array name="atoms" >
   <dimension dim="1">ion</dimension>
   <field type="string">element</field>
   <field type="int">atomtype</field>
   <set>
    <rc><c>Fe</c><c>   1</c></rc>
    <rc><c>Fe</c><c>   1</c></rc>
    <rc><c>Fe</c><c>   1</c></rc>
    <rc><c>Fe</c><c>   1</c></rc>
    <rc><c>Fe</c><c>   1</c></rc>
    <rc><c>Fe</c><c>   1</c></rc>
    <rc><c>Fe</c><c>   1</c></rc>
    <rc><c>Fe</c><c>   1</c></rc>
    <rc><c>Fe</c><c>   1</c></rc>
    <rc><c>Fe</c><c>   1</c></rc>
    <rc><c>Fe</c><c>   1</c></rc>
    <rc><c>Fe</c><c>   1</c></rc>
    <rc><c>Fe</c><c>   1</c></rc>
    <rc><c>Fe</c><c>   1</c></rc>
    <rc><c>Fe</c><c>   1</c></rc>
    <rc><c>Fe</c><c>   1</c></rc>
    <rc><c>Fe</c><c>   1</c></rc>
    <rc><c>Fe</c><c>   1</c></rc>
    <rc><c>Fe</c><c>   1</c></rc>
    <rc><c>Fe</c><c>   1</c></rc>
    <rc><c>Fe</c><c>   1</c></rc>
    <rc><c>Fe</c><c>   1</c></rc>
    <rc><c>Fe</c><c>   1</c></rc>
    <rc><c>Fe</c><c>   1</c></rc>
    <rc><c>Fe</c><c>   1</c></rc>
    <rc><c>Fe</c><c>   1</c></rc>
    <rc><c>Fe</c><c>   1</c></rc>
    <rc><c>Fe</c><c>   1</c></rc>
    <rc><c>Fe</c><c>   1</c></rc>
    <rc><c>Fe</c><c>   1</c></rc>
    <rc><c>Fe</c><c>   1</c></rc>
    <rc><c>Fe</c><c>   1</c></rc>
    <rc><c>Fe</c><c>   1</c></rc>
    <rc><c>Fe</c><c>   1</c></rc>
    <rc><c>Fe</c><c>   1</c></rc>
    <rc><c>Fe</c><c>   1</c></rc>
    <rc><c>Fe</c><c>   1</c></rc>
    <rc><c>Fe</c><c>   1</c></rc>
    <rc><c>Fe</c><c>   1</c></rc>
    <rc><c>Fe</c><c>   1</c></rc>
    <rc><c>Fe</c><c>   1</c></rc>
    <rc><c>Fe</c><c>   1</c></rc>
    <rc><c>Fe</c><c>   1</c></rc>
    <rc><c>Fe</c><c>   1</c></rc>
    <rc><c>Fe</c><c>   1</c></rc>
    <rc><c>Fe</c><c>   1</c></rc>
    <rc><c>Fe</c><c>   1</c></rc>
    <rc><c>Fe</c><c>   1</c></rc>
    <rc><c>Fe</c><c>   1</c></rc>
    <rc><c>Fe</c><c>   1</c></rc>
    <rc><c>Fe</c><c>   1</c></rc>
    <rc><c>Fe</c><c>   1</c></rc>
    <rc><c>Fe</c><c>   1</c></rc>
    <rc><c>Fe</c><c>   1</c></rc>
    <rc><c>Fe</c><c>   1</c></rc>
    <rc><c>Fe</c><c>   1</c></rc>
    <rc><c>Fe</c><c>   1</c></rc>
    <rc><c>Fe</c><c>   1</c></rc>
    <rc><c>Fe</c><c>   1</c></rc>
    <rc><c>Fe</c><c>   1</c></rc>
    <rc><c>Fe</c><c>   1</c></rc>
    <rc><c>Fe</c><c>   1</c></rc>
    <rc><c>Fe</c><c>   1</c></rc>
    <rc><c>Fe</c><c>   1</c></rc>
    <rc><c>Fe</c><c>   1</c></rc>
    <rc><c>Fe</c><c>   1</c></rc>
    <rc><c>Fe</c><c>   1</c></rc>
    <rc><c>Fe</c><c>   1</c></rc>
    <rc><c>Fe</c><c>   1</c></rc>
    <rc><c>Fe</c><c>   1</c></rc>
    <rc><c>Fe</c><c>   1</c></rc>
    <rc><c>Fe</c><c>   1</c></rc>
    <rc><c>Fe</c><c>   1</c></rc>
    <rc><c>Fe</c><c>   1</c></rc>
    <rc><c>Fe</c><c>   1</c></rc>
    <rc><c>Fe</c><c>   1</c></rc>
    <rc><c>Fe</c><c>   1</c></rc>
    <rc><c>Fe</c><c>   1</c></rc>
    <rc><c>Fe</c><c>   1</c></rc>
    <rc><c>Fe</c><c>   1</c></rc>
    <rc><c>Fe</c><c>   1</c></rc>
    <rc><c>Fe</c><c>   1</c></rc>
    <rc><c>Fe</c><c>   1</c></rc>
    <rc><c>Fe</c><c>   1</c></rc>
    <rc><c>Fe</c><c>   1</c></rc>
    <rc><c>Fe</c><c>   1</c></rc>
    <rc><c>Fe</c><c>   1</c></rc>
    <rc><c>Fe</c><c>   1</c></rc>
    <rc><c>Fe</c><c>   1</c></rc>
    <rc><c>Fe</c><c>   1</c></rc>
    <rc><c>Fe</c><c>   1</c></rc>
    <rc><c>Fe</c><c>   1</c></rc>
    <rc><c>Fe</c><c>   1</c></rc>
    <rc><c>Fe</c><c>   1</c></rc>
    <rc><c>Fe</c><c>   1</c></rc>
    <rc><c>Fe</c><c>   1</c></rc>
    <rc><c>Fe</c><c>   1</c></rc>
    <rc><c>Fe</c><c>   1</c></rc>
    <rc><c>Fe</c><c>   1</c></rc>
    <rc><c>Fe</c><c>   1</c></rc>
    <rc><c>Fe</c><c>   1</c></rc>
    <rc><c>Fe</c><c>   1</c></rc>
    <rc><c>Fe</c><c>   1</c></rc>
    <rc><c>Fe</c><c>   1</c></rc>
    <rc><c>Fe</c><c>   1</c></rc>
    <rc><c>Fe</c><c>   1</c></rc>
    <rc><c>Fe</c><c>   1</c></rc>
    <rc><c>Fe</c><c>   1</c></rc>
    <rc><c>Fe</c><c>   1</c></rc>
    <rc><c>Fe</c><c>   1</c></rc>
    <rc><c>Fe</c><c>   1</c></rc>
    <rc><c>Fe</c><c>   1</c></rc>
    <rc><c>Fe</c><c>   1</c></rc>
    <rc><c>Fe</c><c>   1</c></rc>
    <rc><c>Fe</c><c>   1</c></rc>
    <rc><c>Fe</c><c>   1</c></rc>
    <rc><c>Fe</c><c>   1</c></rc>
    <rc><c>Fe</c><c>   1</c></rc>
    <rc><c>Fe</c><c>   1</c></rc>
    <rc><c>Fe</c><c>   1</c></rc>
    <rc><c>Fe</c><c>   1</c></rc>
    <rc><c>Fe</c><c>   1</c></rc>
    <rc><c>Fe</c><c>   1</c></rc>
    <rc><c>Fe</c><c>   1</c></rc>
    <rc><c>Fe</c><c>   1</c></rc>
    <rc><c>Fe</c><c>   1</c></rc>
    <rc><c>Fe</c><c>   1</c></rc>
    <rc><c>Fe</c><c>   1</c></rc>
    <rc><c>Fe</c><c>   1</c></rc>
    <rc><c>Fe</c><c>   1</c></rc>
    <rc><c>Fe</c><c>   1</c></rc>
    <rc><c>Fe</c><c>   1</c></rc>
    <rc><c>Fe</c><c>   1</c></rc>
    <rc><c>Fe</c><c>   1</c></rc>
    <rc><c>Fe</c><c>   1</c></rc>
    <rc><c>Fe</c><c>   1</c></rc>
    <rc><c>Fe</c><c>   1</c></rc>
    <rc><c>Fe</c><c>   1</c></rc>
    <rc><c>Fe</c><c>   1</c></rc>
    <rc><c>Fe</c><c>   1</c></rc>
    <rc><c>Fe</c><c>   1</c></rc>
    <rc><c>Fe</c><c>   1</c></rc>
    <rc><c>Fe</c><c>   1</c></rc>
    <rc><c>Fe</c><c>   1</c></rc>
    <rc><c>Fe</c><c>   1</c></rc>
    <rc><c>Fe</c><c>   1</c></rc>
    <rc><c>Fe</c><c>   1</c></rc>
    <rc><c>Fe</c><c>   1</c></rc>
    <rc><c>Fe</c><c>   1</c></rc>
    <rc><c>Fe</c><c>   1</c></rc>
    <rc><c>Fe</c><c>   1</c></rc>
    <rc><c>Fe</c><c>   1</c></rc>
    <rc><c>Fe</c><c>   1</c></rc>
    <rc><c>Fe</c><c>   1</c></rc>
    <rc><c>Fe</c><c>   1</c></rc>
    <rc><c>Fe</c><c>   1</c></rc>
    <rc><c>Fe</c><c>   1</c></rc>
    <rc><c>Fe</c><c>   1</c></rc>
    <rc><c>Fe</c><c>   1</c></rc>
    <rc><c>Fe</c><c>   1</c></rc>
    <rc><c>Fe</c><c>   1</c></rc>
    <rc><c>Fe</c><c>   1</c></rc>
    <rc><c>Fe</c><c>   1</c></rc>
    <rc><c>Fe</c><c>   1</c></rc>
    <rc><c>Fe</c><c>   1</c></rc>
    <rc><c>Fe</c><c>   1</c></rc>
    <rc><c>Fe</c><c>   1</c></rc>
    <rc><c>Fe</c><c>   1</c></rc>
    <rc><c>Fe</c><c>   1</c></rc>
    <rc><c>Fe</c><c>   1</c></rc>
    <rc><c>Fe</c><c>   1</c></rc>
    <rc><c>Fe</c><c>   1</c></rc>
    <rc><c>Fe</c><c>   1</c></rc>
    <rc><c>Fe</c><c>   1</c></rc>
    <rc><c>Fe</c><c>   1</c></rc>
    <rc><c>Fe</c><c>   1</c></rc>
    <rc><c>Fe</c><c>   1</c></rc>
    <rc><c>Fe</c><c>   1</c></rc>
    <rc><c>Fe</c><c>   1</c></rc>
    <rc><c>Fe</c><c>   1</c></rc>
    <rc><c>Fe</c><c>   1</c></rc>
    <rc><c>Fe</c><c>   1</c></rc>
    <rc><c>Fe</c><c>   1</c></rc>
    <rc><c>Fe</c><c>   1</c></rc>
    <rc><c>Fe</c><c>   1</c></rc>
    <rc><c>Fe</c><c>   1</c></rc>
    <rc><c>Fe</c><c>   1</c></rc>
    <rc><c>Fe</c><c>   1</c></rc>
    <rc><c>Fe</c><c>   1</c></rc>
    <rc><c>Fe</c><c>   1</c></rc>
    <rc><c>Fe</c><c>   1</c></rc>
    <rc><c>Fe</c><c>   1</c></rc>
    <rc><c>Fe</c><c>   1</c></rc>
    <rc><c>Fe</c><c>   1</c></rc>
    <rc><c>Fe</c><c>   1</c></rc>
    <rc><c>Fe</c><c>   1</c></rc>
    <rc><c>Fe</c><c>   1</c></rc>
    <rc><c>Fe</c><c>   1</c></rc>
    <rc><c>Fe</c><c>   1</c></rc>
    <rc><c>Fe</c><c>   1</c></rc>
    <rc><c>Fe</c><c>   1</c></rc>
    <rc><c>Fe</c><c>   1</c></rc>
    <rc><c>Fe</c><c>   1</c></rc>
    <rc><c>Fe</c><c>   1</c></rc>
    <rc><c>Fe</c><c>   1</c></rc>
    <rc><c>Fe</c><c>   1</c></rc>
    <rc><c>Fe</c><c>   1</c></rc>
    <rc><c>Fe</c><c>   1</c></rc>
    <rc><c>Fe</c><c>   1</c></rc>
    <rc><c>Fe</c><c>   1</c></rc>
    <rc><c>Fe</c><c>   1</c></rc>
    <rc><c>Fe</c><c>   1</c></rc>
    <rc><c>Fe</c><c>   1</c></rc>
    <rc><c>Fe</c><c>   1</c></rc>
    <rc><c>Fe</c><c>   1</c></rc>
    <rc><c>Fe</c><c>   1</c></rc>
    <rc><c>Fe</c><c>   1</c></rc>
    <rc><c>Fe</c><c>   1</c></rc>
    <rc><c>Fe</c><c>   1</c></rc>
    <rc><c>Fe</c><c>   1</c></rc>
    <rc><c>Fe</c><c>   1</c></rc>
    <rc><c>Fe</c><c>   1</c></rc>
    <rc><c>Fe</c><c>   1</c></rc>
    <rc><c>Fe</c><c>   1</c></rc>
    <rc><c>Fe</c><c>   1</c></rc>
    <rc><c>Fe</c><c>   1</c></rc>
    <rc><c>Fe</c><c>   1</c></rc>
    <rc><c>Fe</c><c>   1</c></rc>
    <rc><c>Fe</c><c>   1</c></rc>
    <rc><c>Fe</c><c>   1</c></rc>
    <rc><c>Fe</c><c>   1</c></rc>
    <rc><c>Fe</c><c>   1</c></rc>
    <rc><c>Fe</c><c>   1</c></rc>
    <rc><c>Fe</c><c>   1</c></rc>
    <rc><c>Fe</c><c>   1</c></rc>
    <rc><c>Fe</c><c>   1</c></rc>
    <rc><c>Fe</c><c>   1</c></rc>
    <rc><c>Fe</c><c>   1</c></rc>
    <rc><c>Fe</c><c>   1</c></rc>
    <rc><c>Fe</c><c>   1</c></rc>
    <rc><c>Fe</c><c>   1</c></rc>
    <rc><c>Fe</c><c>   1</c></rc>
    <rc><c>Fe</c><c>   1</c></rc>
    <rc><c>Fe</c><c>   1</c></rc>
    <rc><c>Fe</c><c>   1</c></rc>
    <rc><c>Fe</c><c>   1</c></rc>
    <rc><c>Fe</c><c>   1</c></rc>
    <rc><c>Fe</c><c>   1</c></rc>
    <rc><c>Fe</c><c>   1</c></rc>
    <rc><c>Fe</c><c>   1</c></rc>
    <rc><c>Fe</c><c>   1</c></rc>
    <rc><c>Fe</c><c>   1</c></rc>
    <rc><c>Fe</c><c>   1</c></rc>
    <rc><c>Fe</c><c>   1</c></rc>
    <rc><c>Fe</c><c>   1</c></rc>
    <rc><c>Fe</c><c>   1</c></rc>
    <rc><c>Fe</c><c>   1</c></rc>
    <rc><c>Fe</c><c>   1</c></rc>
    <rc><c>Fe</c><c>   1</c></rc>
    <rc><c>Fe</c><c>   1</c></rc>
    <rc><c>Fe</c><c>   1</c></rc>
    <rc><c>Fe</c><c>   1</c></rc>
    <rc><c>Fe</c><c>   1</c></rc>
    <rc><c>Fe</c><c>   1</c></rc>
    <rc><c>Fe</c><c>   1</c></rc>
    <rc><c>Fe</c><c>   1</c></rc>
    <rc><c>Fe</c><c>   1</c></rc>
    <rc><c>Fe</c><c>   1</c></rc>
    <rc><c>Fe</c><c>   1</c></rc>
    <rc><c>Fe</c><c>   1</c></rc>
    <rc><c>Fe</c><c>   1</c></rc>
    <rc><c>Fe</c><c>   1</c></rc>
    <rc><c>Fe</c><c>   1</c></rc>
    <rc><c>Fe</c><c>   1</c></rc>
    <rc><c>Fe</c><c>   1</c></rc>
    <rc><c>Fe</c><c>   1</c></rc>
    <rc><c>Fe</c><c>   1</c></rc>
    <rc><c>Fe</c><c>   1</c></rc>
    <rc><c>Fe</c><c>   1</c></rc>
    <rc><c>Fe</c><c>   1</c></rc>
    <rc><c>Fe</c><c>   1</c></rc>
    <rc><c>Mn</c><c>   2</c></rc>
    <rc><c>Mn</c><c>   2</c></rc>
    <rc><c>Mn</c><c>   2</c></rc>
    <rc><c>Mn</c><c>   2</c></rc>
    <rc><c>Mn</c><c>   2</c></rc>
    <rc><c>Mn</c><c>   2</c></rc>
    <rc><c>Mn</c><c>   2</c></rc>
   </set>
  </array>
  <array name="atomtypes" >
   <dimension dim="1">type</dimension>
   <field type="int">atomspertype</field>
   <field type="string">element</field>
   <field>mass</field>
   <field>valence</field>
   <field type="string">pseudopotential</field>
   <set>
    <rc><c> 281</c><c>Fe</c><c>     55.84700000</c><c>      8.00000000</c><c>  PAW_PBE Fe_GW 31Mar2010               </c></rc>
    <rc><c>   7</c><c>Mn</c><c>     54.93800000</c><c>      7.00000000</c><c>  PAW_PBE Mn_GW 31Mar2010               </c></rc>
   </set>
  </array>
 </atominfo>
 <structure name="initialpos" >
  <crystal>
   <varray name="basis" >
    <v>       9.72667804       0.00000000       0.00000000 </v>
    <v>       0.00000000       8.42355028       0.00000000 </v>
    <v>       0.00000000       0.00000000      45.00000000 </v>
   </varray>
   <i name="volume">   3686.99226691 </i>
   <varray name="rec_basis" >
    <v>       0.10281002       0.00000000       0.00000000 </v>
    <v>       0.00000000       0.11871479       0.00000000 </v>
    <v>       0.00000000       0.00000000       0.02222222 </v>
   </varray>
  </crystal>
  <varray name="positions" >
   <v>       0.06267704       0.03085066       0.12446339 </v>
   <v>       0.06332664       0.87199790       0.52124546 </v>
   <v>       0.19560038       0.12455520       0.78848783 </v>
   <v>       0.43363097       0.28761798       0.38904198 </v>
   <v>       0.30857851       0.71280168       0.83317281 </v>
   <v>       0.80863327       0.21287730       0.83348820 </v>
   <v>       0.18342406       0.78749088       0.38907560 </v>
   <v>       0.56392496       0.20763396       0.56542202 </v>
   <v>       0.06058524       0.04215439       0.74416430 </v>
   <v>       0.81352028       0.87223832       0.52127059 </v>
   <v>       0.18588735       0.29168508       0.74415956 </v>
   <v>       0.94128921       0.45207712       0.34488421 </v>
   <v>       0.93370687       0.28737661       0.38894398 </v>
   <v>       0.43848409       0.62220883       0.52131965 </v>
   <v>       0.18765672       0.79187915       0.61086821 </v>
   <v>       0.55866662       0.03754036       0.38890170 </v>
   <v>       0.93341727       0.96399596       0.83326395 </v>
   <v>       0.31418962       0.54202056       0.87563117 </v>
   <v>       0.68571204       0.29165808       0.74417298 </v>
   <v>       0.19232693       0.61166835       0.16677815 </v>
   <v>       0.81295334       0.20573359       0.47855665 </v>
   <v>       0.81261326       0.54186168       0.61086083 </v>
   <v>       0.31313410       0.87072502       0.43445535 </v>
   <v>       0.81532429       0.03516913       0.25598335 </v>
   <v>       0.69142657       0.95188219       0.34494805 </v>
   <v>       0.94175091       0.11279251       0.16684780 </v>
   <v>       0.93848223       0.12216516       0.52132043 </v>
   <v>       0.56556647       0.53523882       0.25600847 </v>
   <v>       0.69195637       0.79599181       0.87576285 </v>
   <v>       0.56775421       0.36338030       0.16679744 </v>
   <v>       0.43605312       0.79225853       0.74424804 </v>
   <v>       0.81393604       0.70754082       0.56542571 </v>
   <v>       0.57004426       0.87402948       0.78832942 </v>
   <v>       0.68855044       0.12233734       0.52134875 </v>
   <v>       0.19052792       0.28543854       0.25594645 </v>
   <v>       0.93341004       0.46317465       0.83309999 </v>
   <v>       0.06501530       0.20824891       0.69968952 </v>
   <v>       0.80859224       0.03743122       0.38907708 </v>
   <v>       0.30864794       0.21302559       0.83319622 </v>
   <v>       0.43382770       0.62581936       0.65493570 </v>
   <v>       0.31271669       0.54189880       0.61086598 </v>
   <v>       0.93891097       0.45765355       0.56542773 </v>
   <v>       0.68597129       0.79172705       0.74415268 </v>
   <v>       0.30890070       0.87576329       0.65491690 </v>
   <v>       0.68361038       0.78781255       0.38905802 </v>
   <v>       0.93571932       0.79195726       0.74415298 </v>
   <v>       0.06577285       0.20265613       0.34505474 </v>
   <v>       0.43890354       0.78385669       0.12452145 </v>
   <v>       0.44509578       0.12478660       0.78852420 </v>
   <v>       0.05521475       0.20322821       0.21193998 </v>
   <v>       0.06796621       0.36199367       0.16690438 </v>
   <v>       0.94060603       0.78530626       0.25599763 </v>
   <v>       0.56536152       0.20841139       0.69969309 </v>
   <v>       0.69054138       0.95834911       0.69970788 </v>
   <v>       0.68367512       0.28763833       0.38904936 </v>
   <v>       0.43886710       0.95775223       0.56545370 </v>
   <v>       0.82022511       0.37518835       0.78827982 </v>
   <v>       0.69056167       0.28529801       0.25601322 </v>
   <v>       0.18878661       0.45773372       0.56542782 </v>
   <v>       0.06857894       0.86407577       0.16687920 </v>
   <v>       0.18781829       0.29180139       0.61079800 </v>
   <v>       0.56601216       0.70167577       0.34490916 </v>
   <v>       0.31504668       0.20829214       0.69967556 </v>
   <v>       0.56403484       0.54187514       0.87573410 </v>
   <v>       0.06369950       0.70774407       0.56546218 </v>
   <v>       0.69520466       0.62428021       0.78834148 </v>
   <v>       0.30861605       0.53762677       0.38908296 </v>
   <v>       0.18846665       0.62225341       0.52132216 </v>
   <v>       0.56262322       0.87043261       0.43447695 </v>
   <v>       0.43883428       0.45781434       0.56545726 </v>
   <v>       0.43574339       0.29200726       0.74414876 </v>
   <v>       0.80403803       0.87215315       0.30017372 </v>
   <v>       0.81671955       0.70233229       0.34504259 </v>
   <v>       0.43357021       0.46293801       0.83312589 </v>
   <v>       0.68765275       0.95592236       0.47862604 </v>
   <v>       0.69008765       0.45843227       0.69968063 </v>
   <v>       0.56323623       0.87208365       0.52133459 </v>
   <v>       0.55893606       0.37563242       0.65492725 </v>
   <v>       0.80882847       0.87567024       0.65491715 </v>
   <v>       0.81253958       0.37047623       0.43448117 </v>
   <v>       0.81559130       0.53540043       0.25596586 </v>
   <v>       0.68362566       0.46365560       0.83331124 </v>
   <v>       0.18750444       0.78520579       0.12435742 </v>
   <v>       0.06448157       0.04244386       0.87552974 </v>
   <v>       0.30887030       0.37554743       0.65490785 </v>
   <v>       0.31626145       0.20216789       0.34492181 </v>
   <v>       0.81082191       0.54152402       0.74422021 </v>
   <v>       0.68391398       0.96381535       0.83332847 </v>
   <v>       0.55884503       0.87567952       0.65494618 </v>
   <v>       0.31383680       0.70737579       0.56555814 </v>
   <v>       0.31312399       0.53123692       0.12445536 </v>
   <v>       0.68042484       0.95310546       0.21188289 </v>
   <v>       0.31381973       0.20775750       0.56554952 </v>
   <v>       0.31067799       0.54207986       0.74414798 </v>
   <v>       0.68868665       0.95787033       0.56544045 </v>
   <v>       0.43762446       0.79194909       0.61087367 </v>
   <v>       0.69260546       0.61304990       0.16701325 </v>
   <v>       0.30389964       0.87227088       0.30026040 </v>
   <v>       0.31273211       0.70561729       0.47863290 </v>
   <v>       0.93782274       0.29187933       0.61080005 </v>
   <v>       0.42909758       0.62250131       0.30028131 </v>
   <v>       0.81720557       0.86246828       0.16697519 </v>
   <v>       0.55537104       0.20215333       0.21150582 </v>
   <v>       0.94204371       0.61283776       0.16691110 </v>
   <v>       0.93898705       0.79450195       0.87559689 </v>
   <v>       0.57028826       0.37456226       0.78847762 </v>
   <v>       0.06350338       0.37239307       0.52136193 </v>
   <v>       0.56344693       0.37222846       0.52131136 </v>
   <v>       0.67959687       0.12187036       0.30019538 </v>
   <v>       0.43332354       0.96277299       0.83315180 </v>
   <v>       0.18806017       0.28352302       0.12458842 </v>
   <v>       0.82026091       0.87446027       0.78835026 </v>
   <v>       0.31292128       0.37071944       0.43444038 </v>
   <v>       0.93780796       0.79184209       0.61080770 </v>
   <v>       0.43782725       0.29177846       0.61077832 </v>
   <v>       0.19178604       0.45201675       0.34498575 </v>
   <v>       0.43803507       0.28495789       0.12430207 </v>
   <v>       0.68999781       0.78572749       0.25597674 </v>
   <v>       0.19031067       0.95829459       0.69967277 </v>
   <v>       0.19091458       0.29692279       0.87588997 </v>
   <v>       0.18398418       0.12577471       0.65491912 </v>
   <v>       0.93386420       0.12574396       0.65494151 </v>
   <v>       0.30593031       0.20236600       0.21190052 </v>
   <v>       0.05841137       0.03736148       0.38906546 </v>
   <v>       0.44036252       0.95831160       0.69969322 </v>
   <v>       0.06262333       0.54181080       0.61085618 </v>
   <v>       0.94055381       0.28535461       0.25596201 </v>
   <v>       0.56271573       0.54189398       0.61085716 </v>
   <v>       0.93890263       0.95789941       0.56554569 </v>
   <v>       0.67941574       0.62186306       0.30010892 </v>
   <v>       0.93748073       0.61932644       0.43463890 </v>
   <v>       0.94536870       0.62434836       0.78837020 </v>
   <v>       0.56514112       0.70819513       0.69966776 </v>
   <v>       0.05901205       0.71305707       0.83306668 </v>
   <v>       0.92884255       0.12218703       0.30025987 </v>
   <v>       0.94038458       0.45836452       0.69967771 </v>
   <v>       0.44062578       0.78553626       0.25596276 </v>
   <v>       0.32030979       0.37416491       0.78848138 </v>
   <v>       0.43103035       0.45302973       0.21188518 </v>
   <v>       0.18841609       0.12232795       0.52130590 </v>
   <v>       0.81508915       0.70815709       0.69965083 </v>
   <v>       0.06267297       0.04179661       0.61085061 </v>
   <v>       0.55879158       0.21298741       0.83345298 </v>
   <v>       0.31354871       0.87214884       0.52128707 </v>
   <v>       0.68904862       0.28367365       0.12445179 </v>
   <v>       0.18113411       0.95228794       0.21162715 </v>
   <v>       0.68763276       0.29199636       0.61086996 </v>
   <v>       0.31270730       0.04188222       0.61091035 </v>
   <v>       0.94498104       0.12465358       0.78853539 </v>
   <v>       0.44110444       0.79602672       0.87573718 </v>
   <v>       0.81072643       0.04203073       0.74415819 </v>
   <v>       0.43826518       0.12197950       0.52135227 </v>
   <v>       0.18385288       0.62549072       0.65496336 </v>
   <v>       0.31515467       0.70824245       0.69962249 </v>
   <v>       0.93707774       0.28327179       0.12459475 </v>
   <v>       0.43792762       0.45600492       0.47861692 </v>
   <v>       0.06286729       0.70570214       0.47861845 </v>
   <v>       0.93840626       0.11970243       0.43440067 </v>
   <v>       0.42867543       0.12203283       0.30034509 </v>
   <v>       0.18807774       0.12000265       0.43450394 </v>
   <v>       0.56378220       0.04231763       0.87561302 </v>
   <v>       0.18852666       0.95757903       0.56532523 </v>
   <v>       0.68811454       0.78326611       0.12445558 </v>
   <v>       0.56287722       0.53128215       0.12423875 </v>
   <v>       0.30869606       0.03729073       0.38902628 </v>
   <v>       0.69260741       0.11201362       0.16692098 </v>
   <v>       0.80585468       0.20271531       0.21156014 </v>
   <v>       0.06546475       0.53532242       0.25600503 </v>
   <v>       0.56285766       0.70590336       0.47863268 </v>
   <v>       0.06382349       0.20768563       0.56548469 </v>
   <v>       0.55377754       0.37218247       0.30033843 </v>
   <v>       0.44181495       0.95218433       0.34492841 </v>
   <v>       0.18373778       0.96283230       0.83311649 </v>
   <v>       0.44299306       0.61113696       0.16675275 </v>
   <v>       0.93113709       0.45260257       0.21170597 </v>
   <v>       0.06129279       0.53195422       0.12459169 </v>
   <v>       0.81343185       0.37233347       0.52134754 </v>
   <v>       0.92868679       0.62220275       0.30032068 </v>
   <v>       0.31508525       0.03578125       0.25599841 </v>
   <v>       0.68775878       0.79185782       0.61087769 </v>
   <v>       0.18365752       0.46300143       0.83312269 </v>
   <v>       0.44186157       0.11258096       0.16683751 </v>
   <v>       0.31353962       0.37234458       0.52135214 </v>
   <v>       0.44524696       0.62468581       0.78851335 </v>
   <v>       0.06557655       0.03542423       0.25602984 </v>
   <v>       0.56378523       0.70771855       0.56542483 </v>
   <v>       0.93599118       0.29160320       0.74416447 </v>
   <v>       0.69553438       0.12452883       0.78851484 </v>
   <v>       0.18031060       0.45316216       0.21188173 </v>
   <v>       0.93392889       0.78737194       0.38896570 </v>
   <v>       0.69014364       0.29593590       0.87589353 </v>
   <v>       0.31670343       0.86255289       0.16683159 </v>
   <v>       0.44026957       0.45835870       0.69968105 </v>
   <v>       0.80885011       0.37550685       0.65493133 </v>
   <v>       0.68831221       0.62240474       0.52140585 </v>
   <v>       0.05894018       0.87577609       0.65491944 </v>
   <v>       0.07089118       0.87357411       0.78827782 </v>
   <v>       0.05883843       0.37565927       0.65493075 </v>
   <v>       0.68780073       0.45579238       0.47864030 </v>
   <v>       0.19051221       0.78530540       0.25600345 </v>
   <v>       0.43808134       0.12015297       0.43444974 </v>
   <v>       0.81106244       0.03185227       0.12440989 </v>
   <v>       0.93845705       0.62226907       0.52139546 </v>
   <v>       0.06250515       0.87057118       0.43444990 </v>
   <v>       0.81127335       0.53171283       0.12436505 </v>
   <v>       0.44140792       0.45183719       0.34499152 </v>
   <v>       0.81647389       0.20192797       0.34496216 </v>
   <v>       0.31610440       0.70162689       0.34491954 </v>
   <v>       0.68402261       0.12612523       0.65499036 </v>
   <v>       0.55366977       0.87205684       0.30031962 </v>
   <v>       0.06079366       0.54181562       0.74414117 </v>
   <v>       0.93659434       0.78255095       0.12455440 </v>
   <v>       0.80567223       0.70272041       0.21163361 </v>
   <v>       0.05349827       0.87302085       0.30009160 </v>
   <v>       0.17936109       0.12276985       0.30028437 </v>
   <v>       0.06636983       0.70200351       0.34494478 </v>
   <v>       0.81301906       0.04156386       0.61067615 </v>
   <v>       0.06319431       0.37080294       0.43443279 </v>
   <v>       0.56625096       0.20184707       0.34496994 </v>
   <v>       0.80346266       0.37199787       0.30032854 </v>
   <v>       0.43796458       0.95598809       0.47860001 </v>
   <v>       0.55845915       0.53748961       0.38905808 </v>
   <v>       0.06279102       0.20580536       0.47864667 </v>
   <v>       0.32031122       0.87428137       0.78842799 </v>
   <v>       0.94042038       0.95843026       0.69969685 </v>
   <v>       0.05399875       0.37241594       0.30023285 </v>
   <v>       0.68396842       0.62595839       0.65494704 </v>
   <v>       0.68873317       0.45775919       0.56544448 </v>
   <v>       0.43018800       0.95311709       0.21184904 </v>
   <v>       0.31279312       0.20583573       0.47859404 </v>
   <v>       0.43386016       0.12574357       0.65491553 </v>
   <v>       0.68819860       0.62040838       0.43438725 </v>
   <v>       0.81515039       0.20818799       0.69964583 </v>
   <v>       0.81284127       0.70592664       0.47861760 </v>
   <v>       0.56300528       0.37039338       0.43446062 </v>
   <v>       0.93780315       0.95590778       0.47867479 </v>
   <v>       0.56281233       0.20580171       0.47862691 </v>
   <v>       0.18803896       0.62030629       0.43438334 </v>
   <v>       0.31070182       0.04215538       0.74417177 </v>
   <v>       0.93388610       0.62583174       0.65492349 </v>
   <v>       0.55845112       0.71321951       0.83306810 </v>
   <v>       0.30402899       0.37251312       0.30025603 </v>
   <v>       0.55598697       0.70240080       0.21156117 </v>
   <v>       0.18789360       0.45590066       0.47863334 </v>
   <v>       0.31426564       0.04139454       0.87568770 </v>
   <v>       0.19028966       0.45844151       0.69968535 </v>
   <v>       0.81459425       0.54202201       0.87562984 </v>
   <v>       0.18336047       0.28857619       0.38907116 </v>
   <v>       0.43833340       0.62029361       0.43426674 </v>
   <v>       0.05558410       0.70220614       0.21158146 </v>
   <v>       0.56279678       0.03104076       0.12450662 </v>
   <v>       0.81786851       0.36272948       0.16709643 </v>
   <v>       0.80872090       0.71379886       0.83335095 </v>
   <v>       0.07023175       0.37462460       0.78837619 </v>
   <v>       0.44088748       0.29715736       0.87596733 </v>
   <v>       0.31107515       0.03129266       0.12418458 </v>
   <v>       0.68762399       0.12021059       0.43446239 </v>
   <v>       0.19125670       0.95180131       0.34500036 </v>
   <v>       0.05832228       0.21279676       0.83327040 </v>
   <v>       0.56291130       0.04173685       0.61073847 </v>
   <v>       0.68081986       0.45232095       0.21160767 </v>
   <v>       0.18586830       0.79184338       0.74416311 </v>
   <v>       0.17882835       0.62229106       0.30027618 </v>
   <v>       0.43374625       0.78759467       0.38907636 </v>
   <v>       0.44051679       0.28549488       0.25598098 </v>
   <v>       0.06490513       0.54183373       0.87563915 </v>
   <v>       0.56047280       0.04229951       0.74416226 </v>
   <v>       0.19054455       0.79578557       0.87574739 </v>
   <v>       0.93767761       0.45581309       0.47861712 </v>
   <v>       0.80867115       0.53773598       0.38907202 </v>
   <v>       0.81389853       0.20765754       0.56540599 </v>
   <v>       0.19517741       0.62477324       0.78854662 </v>
   <v>       0.93090093       0.95306419       0.21183290 </v>
   <v>       0.06525750       0.70833083       0.69968107 </v>
   <v>       0.31557602       0.53535740       0.25596948 </v>
   <v>       0.30564452       0.70243069       0.21170304 </v>
   <v>       0.56801452       0.86279255       0.16682097 </v>
   <v>       0.56084458       0.54190164       0.74421958 </v>
   <v>       0.69112764       0.45199141       0.34490858 </v>
   <v>       0.94228661       0.29610120       0.87577043 </v>
   <v>       0.56580638       0.03595709       0.25591617 </v>
   <v>       0.19323576       0.11090905       0.16599614 </v>
   <v>       0.31980264       0.36333587       0.16612300 </v>
   <v>       0.81468797       0.04131812       0.87539739 </v>
   <v>       0.81301297       0.87125347       0.43445341 </v>
   <v>       0.05793123       0.53769248       0.38899653 </v>
   <v>       0.94257991       0.95248116       0.34503028 </v>
   <v>       0.18789383       0.95602041       0.47860223 </v>
  </varray>
 </structure>
 <calculation>
  <scstep>
   <time name="dav">   54.90   54.92</time>
   <time name="total">   55.05   55.11</time>
   <energy>
    <i name="alphaZ">  16403.00255340 </i>
    <i name="ewald"> 730332.96655037 </i>
    <i name="hartreedc">-921983.76923155 </i>
    <i name="XCdc">  -6388.75725053 </i>
    <i name="pawpsdc"> 163151.95320885 </i>
    <i name="pawaedc">-160818.84594568 </i>
    <i name="eentropy">     -1.04722666 </i>
    <i name="bandstr">  38624.32303471 </i>
    <i name="atom"> 169914.59583762 </i>
    <i name="e_fr_energy">  29234.42153052 </i>
    <i name="e_wo_entrp">  29235.46875719 </i>
    <i name="e_0_energy">  29234.94514386 </i>
   </energy>
  </scstep>
  <scstep>
   <time name="dav">   54.53   54.56</time>
   <time name="total">   54.53   54.56</time>
   <energy>
    <i name="e_fr_energy">   1197.71541601 </i>
    <i name="e_wo_entrp">   1199.17929023 </i>
    <i name="e_0_energy">   1198.44735312 </i>
   </energy>
  </scstep>
  <scstep>
   <time name="dav">   72.04   72.09</time>
   <time name="total">   72.05   72.09</time>
   <energy>
    <i name="e_fr_energy">  -1940.64616419 </i>
    <i name="e_wo_entrp">  -1937.05738993 </i>
    <i name="e_0_energy">  -1938.85177706 </i>
   </energy>
  </scstep>
  <scstep>
   <time name="dav">   89.76   89.80</time>
   <time name="total">   89.77   89.81</time>
   <energy>
    <i name="e_fr_energy">  -2610.69457255 </i>
    <i name="e_wo_entrp">  -2607.13878416 </i>
    <i name="e_0_energy">  -2608.91667836 </i>
   </energy>
  </scstep>
  <scstep>
   <time name="dav">   85.67   85.72</time>
   <time name="total">   87.78   87.83</time>
   <energy>
    <i name="e_fr_energy">  -2730.84694423 </i>
    <i name="e_wo_entrp">  -2727.17382448 </i>
    <i name="e_0_energy">  -2729.01038436 </i>
   </energy>
  </scstep>
  <scstep>
   <time name="diag">    8.26    8.26</time>
   <time name="diis">   38.02   38.03</time>
   <time name="orth">    2.34    2.34</time>
   <time name="total">   50.74   50.79</time>
   <energy>
    <i name="e_fr_energy">  -6036.48262200 </i>
    <i name="e_wo_entrp">  -6033.33584017 </i>
    <i name="e_0_energy">  -6034.90923108 </i>
   </energy>
  </scstep>
  <scstep>
   <time name="diag">    8.26    8.26</time>
   <time name="diis">   35.65   35.66</time>
   <time name="orth">    2.32    2.32</time>
   <time name="total">   48.39   48.44</time>
[...]
       <r>     5.8790     0.0000  2772.0000 </r>
       <r>     5.9220     0.0000  2772.0000 </r>
       <r>     5.9649     0.0000  2772.0000 </r>
       <r>     6.0078     0.0000  2772.0000 </r>
       <r>     6.0507     0.0000  2772.0000 </r>
       <r>     6.0936     0.0000  2772.0000 </r>
       <r>     6.1365     0.0000  2772.0000 </r>
       <r>     6.1794     0.0000  2772.0000 </r>
       <r>     6.2223     0.0000  2772.0000 </r>
       <r>     6.2652     0.0000  2772.0000 </r>
       <r>     6.3082     0.0000  2772.0000 </r>
       <r>     6.3511     0.0000  2772.0000 </r>
       <r>     6.3940     0.0000  2772.0000 </r>
       <r>     6.4369     0.0000  2772.0000 </r>
       <r>     6.4798     0.0000  2772.0000 </r>
       <r>     6.5227     0.0000  2772.0000 </r>
       <r>     6.5656     0.0000  2772.0000 </r>
       <r>     6.6085     0.0000  2772.0000 </r>
       <r>     6.6514     0.0000  2772.0000 </r>
       <r>     6.6944     0.0000  2772.0000 </r>
       <r>     6.7373     0.0000  2772.0000 </r>
       <r>     6.7802     0.0000  2772.0000 </r>
       <r>     6.8231     0.0000  2772.0000 </r>
      </set>
     </set>
    </array>
   </total>
  </dos>
 </calculation>
 <structure name="finalpos" >
  <crystal>
   <varray name="basis" >
    <v>       9.72667804       0.00000000       0.00000000 </v>
    <v>       0.00000000       8.42355028       0.00000000 </v>
    <v>       0.00000000       0.00000000      45.00000000 </v>
   </varray>
   <i name="volume">   3686.99226691 </i>
   <varray name="rec_basis" >
    <v>       0.10281002       0.00000000       0.00000000 </v>
    <v>       0.00000000       0.11871479       0.00000000 </v>
    <v>       0.00000000       0.00000000       0.02222222 </v>
   </varray>
  </crystal>
  <varray name="positions" >
   <v>       0.06318935       0.03176248       0.12453956 </v>
   <v>       0.06316147       0.87287198       0.52178433 </v>
   <v>       0.19192903       0.12551943       0.78828492 </v>
   <v>       0.43516780       0.28685312       0.38942236 </v>
   <v>       0.31136791       0.71208907       0.83354739 </v>
   <v>       0.81126160       0.21168500       0.83359729 </v>
   <v>       0.18546261       0.78738782       0.38946332 </v>
   <v>       0.56323046       0.20708472       0.56570611 </v>
   <v>       0.06258524       0.04191614       0.74389688 </v>
   <v>       0.81311151       0.87322660       0.52170515 </v>
   <v>       0.18771056       0.29219858       0.74388975 </v>
   <v>       0.93783188       0.45330574       0.34500146 </v>
   <v>       0.93532229       0.28692175       0.38941074 </v>
   <v>       0.43817972       0.62347816       0.52174400 </v>
   <v>       0.18740657       0.79171656       0.61048457 </v>
   <v>       0.56045010       0.03751714       0.38944889 </v>
   <v>       0.93525859       0.96236479       0.83351919 </v>
   <v>       0.31349871       0.54507114       0.87521879 </v>
   <v>       0.68783608       0.29204233       0.74388881 </v>
   <v>       0.18955616       0.61328192       0.16671833 </v>
   <v>       0.81308599       0.20495484       0.47810453 </v>
   <v>       0.81234635       0.54153474       0.61046162 </v>
   <v>       0.31296821       0.87089196       0.43417484 </v>
   <v>       0.81216823       0.03528624       0.25601586 </v>
   <v>       0.68768757       0.95282455       0.34501213 </v>
   <v>       0.94002061       0.11449712       0.16672054 </v>
   <v>       0.93836512       0.12354558       0.52175747 </v>
   <v>       0.56226440       0.53560738       0.25601897 </v>
   <v>       0.68919209       0.79383454       0.87542549 </v>
   <v>       0.56558718       0.36490743       0.16650688 </v>
   <v>       0.43801699       0.79205829       0.74391580 </v>
   <v>       0.81326481       0.70718924       0.56575462 </v>
   <v>       0.56669517       0.87505534       0.78807115 </v>
   <v>       0.68837612       0.12342124       0.52174523 </v>
   <v>       0.18726375       0.28559585       0.25608955 </v>
   <v>       0.93602284       0.46224597       0.83347697 </v>
   <v>       0.06388163       0.20837339       0.69973872 </v>
   <v>       0.80958647       0.03763635       0.38947531 </v>
   <v>       0.31146627       0.21189051       0.83355644 </v>
   <v>       0.43583945       0.62536192       0.65493061 </v>
   <v>       0.31245058       0.54168537       0.61043295 </v>
   <v>       0.93815338       0.45710126       0.56575123 </v>
   <v>       0.68799521       0.79204749       0.74385521 </v>
   <v>       0.31085312       0.87539262       0.65493073 </v>
   <v>       0.68578588       0.78767296       0.38939039 </v>
   <v>       0.93781720       0.79197974       0.74386745 </v>
   <v>       0.06289061       0.20366520       0.34508223 </v>
   <v>       0.43907939       0.78125423       0.12495098 </v>
   <v>       0.44198050       0.12556025       0.78830846 </v>
   <v>       0.05891406       0.20212611       0.21181180 </v>
   <v>       0.06558343       0.36402960       0.16682250 </v>
   <v>       0.93722110       0.78562778       0.25594507 </v>
   <v>       0.56385710       0.20832749       0.69973441 </v>
   <v>       0.68882997       0.95846016       0.69974512 </v>
   <v>       0.68540202       0.28710024       0.38945036 </v>
   <v>       0.43855910       0.95730495       0.56586480 </v>
   <v>       0.81689067       0.37552855       0.78813744 </v>
   <v>       0.68743379       0.28576876       0.25610163 </v>
   <v>       0.18838481       0.45713028       0.56573993 </v>
   <v>       0.06564591       0.86452966       0.16658272 </v>
   <v>       0.18728212       0.29151647       0.61044056 </v>
   <v>       0.56284214       0.70276229       0.34499422 </v>
   <v>       0.31394988       0.20844487       0.69973650 </v>
   <v>       0.56363645       0.54466852       0.87530080 </v>
   <v>       0.06333205       0.70692448       0.56583933 </v>
   <v>       0.69170944       0.62558108       0.78830074 </v>
   <v>       0.31075824       0.53771625       0.38942799 </v>
   <v>       0.18821581       0.62351523       0.52170060 </v>
   <v>       0.56222054       0.87094638       0.43423291 </v>
   <v>       0.43831720       0.45717098       0.56575226 </v>
   <v>       0.43792859       0.29216800       0.74391574 </v>
   <v>       0.80773693       0.87077917       0.30030871 </v>
   <v>       0.81261833       0.70368527       0.34510262 </v>
   <v>       0.43630704       0.46158387       0.83359388 </v>
   <v>       0.68768373       0.95492348       0.47818937 </v>
   <v>       0.68899171       0.45836432       0.69977485 </v>
   <v>       0.56313037       0.87310639       0.52181388 </v>
   <v>       0.56085569       0.37541458       0.65492823 </v>
   <v>       0.81088086       0.87549077       0.65494207 </v>
   <v>       0.81274660       0.37081056       0.43422330 </v>
   <v>       0.81218046       0.53565789       0.25608307 </v>
   <v>       0.68601784       0.46210042       0.83355864 </v>
   <v>       0.18781556       0.78228086       0.12483931 </v>
   <v>       0.06427072       0.04553409       0.87526029 </v>
   <v>       0.31092481       0.37533336       0.65495194 </v>
   <v>       0.31282361       0.20347866       0.34506717 </v>
   <v>       0.81277109       0.54158506       0.74388204 </v>
   <v>       0.68654113       0.96228750       0.83358888 </v>
   <v>       0.56098212       0.87556370       0.65493319 </v>
   <v>       0.31326496       0.70707746       0.56585187 </v>
   <v>       0.31342105       0.53236097       0.12450251 </v>
   <v>       0.68383814       0.95204676       0.21184965 </v>
   <v>       0.31354421       0.20744268       0.56583842 </v>
   <v>       0.31277996       0.54194259       0.74384586 </v>
   <v>       0.68806724       0.95725172       0.56574125 </v>
   <v>       0.43739286       0.79175283       0.61044808 </v>
   <v>       0.69037603       0.61485884       0.16675246 </v>
   <v>       0.30787714       0.87098211       0.30028534 </v>
   <v>       0.31302803       0.70445808       0.47812056 </v>
   <v>       0.93737873       0.29158044       0.61047964 </v>
   <v>       0.43310575       0.62094662       0.30036762 </v>
   <v>       0.81551635       0.86385566       0.16668552 </v>
   <v>       0.55830155       0.20202406       0.21176965 </v>
   <v>       0.93963087       0.61436678       0.16665565 </v>
   <v>       0.93968505       0.79308216       0.87531393 </v>
   <v>       0.56699555       0.37515341       0.78821065 </v>
   <v>       0.06327562       0.37311805       0.52175299 </v>
   <v>       0.56316162       0.37320081       0.52176590 </v>
   <v>       0.68296000       0.12087050       0.30039982 </v>
   <v>       0.43583686       0.96189623       0.83359551 </v>
   <v>       0.18898368       0.28168870       0.12447754 </v>
   <v>       0.81687190       0.87527540       0.78818264 </v>
   <v>       0.31251555       0.37124256       0.43426637 </v>
   <v>       0.93747815       0.79167594       0.61045034 </v>
   <v>       0.43746505       0.29155572       0.61045124 </v>
   <v>       0.18836119       0.45307672       0.34506949 </v>
   <v>       0.43790434       0.28220787       0.12446368 </v>
   <v>       0.68726073       0.78531009       0.25595868 </v>
   <v>       0.18891397       0.95840466       0.69979123 </v>
   <v>       0.18934778       0.29412626       0.87538567 </v>
   <v>       0.18585536       0.12548300       0.65491832 </v>
   <v>       0.93583326       0.12540386       0.65489757 </v>
   <v>       0.30871632       0.20176513       0.21173948 </v>
   <v>       0.06043111       0.03708707       0.38945229 </v>
   <v>       0.43892901       0.95846466       0.69977584 </v>
   <v>       0.06232431       0.54164066       0.61044443 </v>
   <v>       0.93711825       0.28598802       0.25598483 </v>
   <v>       0.56237187       0.54157592       0.61045380 </v>
   <v>       0.93809693       0.95741624       0.56583187 </v>
   <v>       0.68269266       0.62084091       0.30030461 </v>
   <v>       0.93779734       0.62068988       0.43432118 </v>
   <v>       0.94202623       0.62553494       0.78824886 </v>
   <v>       0.56397201       0.70833977       0.69975407 </v>
   <v>       0.06176649       0.71187753       0.83332665 </v>
   <v>       0.93282661       0.12142683       0.30030138 </v>
   <v>       0.93890546       0.45839211       0.69976328 </v>
   <v>       0.43725038       0.78547870       0.25601294 </v>
   <v>       0.31684900       0.37500078       0.78825857 </v>
   <v>       0.43422726       0.45200742       0.21187410 </v>
   <v>       0.18823813       0.12359487       0.52168335 </v>
   <v>       0.81397391       0.70854184       0.69969651 </v>
   <v>       0.06242998       0.04157441       0.61047291 </v>
   <v>       0.56193429       0.21213363       0.83373186 </v>
   <v>       0.31355308       0.87291666       0.52172335 </v>
   <v>       0.68940990       0.28210163       0.12494356 </v>
   <v>       0.18348496       0.95169610       0.21188314 </v>
   <v>       0.68739901       0.29157901       0.61046690 </v>
   <v>       0.31240450       0.04153135       0.61047493 </v>
   <v>       0.94198830       0.12565863       0.78830439 </v>
   <v>       0.43931611       0.79392508       0.87529800 </v>
   <v>       0.81270490       0.04184451       0.74394022 </v>
   <v>       0.43804069       0.12327768       0.52172562 </v>
   <v>       0.18584660       0.62548045       0.65494572 </v>
   <v>       0.31391487       0.70822703       0.69971035 </v>
   <v>       0.93825283       0.28227711       0.12493491 </v>
   <v>       0.43825258       0.45505765       0.47810758 </v>
   <v>       0.06283427       0.70450858       0.47809361 </v>
   <v>       0.93799647       0.12092385       0.43416811 </v>
   <v>       0.43299438       0.12077212       0.30041750 </v>
   <v>       0.18785640       0.12186176       0.43429254 </v>
   <v>       0.56252749       0.04577747       0.87532232 </v>
   <v>       0.18832589       0.95714350       0.56551843 </v>
   <v>       0.68855220       0.78225184       0.12480833 </v>
   <v>       0.56263678       0.53198951       0.12469526 </v>
   <v>       0.31090106       0.03752259       0.38951194 </v>
   <v>       0.69025688       0.11357397       0.16659869 </v>
   <v>       0.80866594       0.20191155       0.21182353 </v>
   <v>       0.06231247       0.53585249       0.25603815 </v>
   <v>       0.56269047       0.70474179       0.47807024 </v>
   <v>       0.06312357       0.20737820       0.56584601 </v>
   <v>       0.55806994       0.37083343       0.30028589 </v>
   <v>       0.43812707       0.95294184       0.34502152 </v>
   <v>       0.18654833       0.96157822       0.83350871 </v>
   <v>       0.44077896       0.61293990       0.16649360 </v>
   <v>       0.93376721       0.45192195       0.21195085 </v>
   <v>       0.06289449       0.53204367       0.12487181 </v>
   <v>       0.81322376       0.37310064       0.52174071 </v>
   <v>       0.93295383       0.62109066       0.30035052 </v>
   <v>       0.31210975       0.03533639       0.25610560 </v>
   <v>       0.68726807       0.79165895       0.61045561 </v>
   <v>       0.18611124       0.46166321       0.83354078 </v>
   <v>       0.43985025       0.11443154       0.16664593 </v>
   <v>       0.31318258       0.37308840       0.52175499 </v>
   <v>       0.44204381       0.62518918       0.78834608 </v>
   <v>       0.06242281       0.03547330       0.25602794 </v>
   <v>       0.56313841       0.70723423       0.56572283 </v>
   <v>       0.93782317       0.29199513       0.74387725 </v>
   <v>       0.69188507       0.12572409       0.78836469 </v>
   <v>       0.18348699       0.45194547       0.21185175 </v>
   <v>       0.93506192       0.78708125       0.38938507 </v>
   <v>       0.68842105       0.29395495       0.87547156 </v>
   <v>       0.31509149       0.86387383       0.16657533 </v>
   <v>       0.43884918       0.45837814       0.69978053 </v>
   <v>       0.81090912       0.37547497       0.65493042 </v>
   <v>       0.68810606       0.62323833       0.52174308 </v>
   <v>       0.06076410       0.87534986       0.65493553 </v>
   <v>       0.06705578       0.87525433       0.78807162 </v>
   <v>       0.06076277       0.37537397       0.65495063 </v>
   <v>       0.68777835       0.45513220       0.47817661 </v>
   <v>       0.18742249       0.78535881       0.25595642 </v>
   <v>       0.43750533       0.12132515       0.43420028 </v>
   <v>       0.81217870       0.03220804       0.12479163 </v>
   <v>       0.93843867       0.62335968       0.52178566 </v>
   <v>       0.06291326       0.87022188       0.43414110 </v>
   <v>       0.81315883       0.53176688       0.12480117 </v>
   <v>       0.43795331       0.45291734       0.34506520 </v>
   <v>       0.81255977       0.20344072       0.34496281 </v>
   <v>       0.31255898       0.70271849       0.34508482 </v>
   <v>       0.68583996       0.12528945       0.65490403 </v>
   <v>       0.55793183       0.87086636       0.30031957 </v>
   <v>       0.06269275       0.54178772       0.74388187 </v>
   <v>       0.93813765       0.78115457       0.12493897 </v>
   <v>       0.80865431       0.70176628       0.21180806 </v>
   <v>       0.05805850       0.87113705       0.30036096 </v>
   <v>       0.18286488       0.12105628       0.30040699 </v>
   <v>       0.06322084       0.70296858       0.34493267 </v>
   <v>       0.81230311       0.04173605       0.61045838 </v>
   <v>       0.06322433       0.37076780       0.43430821 </v>
   <v>       0.56294861       0.20347427       0.34504552 </v>
   <v>       0.80770324       0.37089036       0.30030473 </v>
   <v>       0.43838234       0.95532350       0.47815792 </v>
   <v>       0.56034165       0.53761436       0.38940606 </v>
   <v>       0.06215049       0.20499672       0.47820506 </v>
   <v>       0.31693078       0.87544257       0.78820225 </v>
   <v>       0.93888974       0.95843464       0.69976491 </v>
   <v>       0.05792483       0.37124963       0.30035703 </v>
   <v>       0.68586189       0.62529491       0.65493211 </v>
   <v>       0.68819913       0.45714547       0.56578228 </v>
   <v>       0.43381562       0.95190298       0.21179293 </v>
   <v>       0.31367021       0.20492314       0.47807656 </v>
   <v>       0.43589668       0.12541215       0.65490621 </v>
   <v>       0.68767494       0.62116093       0.43419307 </v>
   <v>       0.81386389       0.20855057       0.69975075 </v>
   <v>       0.81278512       0.70470519       0.47824122 </v>
   <v>       0.56216846       0.37121308       0.43417832 </v>
   <v>       0.93734258       0.95577855       0.47813453 </v>
   <v>       0.56257361       0.20500797       0.47814953 </v>
   <v>       0.18750084       0.62119300       0.43424261 </v>
   <v>       0.31276478       0.04208584       0.74392423 </v>
   <v>       0.93578065       0.62533124       0.65494844 </v>
   <v>       0.56142773       0.71207668       0.83338862 </v>
   <v>       0.30812587       0.37099925       0.30026879 </v>
   <v>       0.55848101       0.70191471       0.21185138 </v>
   <v>       0.18803294       0.45501194       0.47816918 </v>
   <v>       0.31355549       0.04453788       0.87528954 </v>
   <v>       0.18891826       0.45829244       0.69975174 </v>
   <v>       0.81370773       0.54420491       0.87528459 </v>
   <v>       0.18560660       0.28788488       0.38938596 </v>
   <v>       0.43780639       0.62092058       0.43419269 </v>
   <v>       0.05872959       0.70201514       0.21173150 </v>
   <v>       0.56358305       0.03195022       0.12485976 </v>
   <v>       0.81591975       0.36455219       0.16661358 </v>
   <v>       0.81130439       0.71251590       0.83351592 </v>
   <v>       0.06679320       0.37516475       0.78816930 </v>
   <v>       0.43988437       0.29444122       0.87545095 </v>
   <v>       0.31228932       0.03269039       0.12440146 </v>
   <v>       0.68752250       0.12106817       0.43424758 </v>
   <v>       0.18825289       0.95334369       0.34506801 </v>
   <v>       0.06106696       0.21190236       0.83358055 </v>
   <v>       0.56239889       0.04158162       0.61045251 </v>
   <v>       0.68363877       0.45192712       0.21187817 </v>
   <v>       0.18771176       0.79224693       0.74389493 </v>
   <v>       0.18302485       0.62122613       0.30034567 </v>
   <v>       0.43556463       0.78751505       0.38931820 </v>
   <v>       0.43693145       0.28581027       0.25604988 </v>
   <v>       0.06363638       0.54452475       0.87527281 </v>
   <v>       0.56293882       0.04204685       0.74389438 </v>
   <v>       0.18946224       0.79411012       0.87531156 </v>
   <v>       0.93742105       0.45471891       0.47821620 </v>
   <v>       0.81010806       0.53756735       0.38945159 </v>
   <v>       0.81319678       0.20734974       0.56569440 </v>
   <v>       0.19196207       0.62512421       0.78828814 </v>
   <v>       0.93396751       0.95179892       0.21187682 </v>
   <v>       0.06376229       0.70830879       0.69973441 </v>
   <v>       0.31234624       0.53536393       0.25605649 </v>
   <v>       0.30885349       0.70173081       0.21179412 </v>
   <v>       0.56612225       0.86424337       0.16657300 </v>
   <v>       0.56276719       0.54168561       0.74394071 </v>
   <v>       0.68740622       0.45326611       0.34507056 </v>
   <v>       0.94042591       0.29435284       0.87543208 </v>
   <v>       0.56202545       0.03545340       0.25605696 </v>
   <v>       0.19074284       0.11299924       0.16618207 </v>
   <v>       0.31646485       0.36458130       0.16620857 </v>
   <v>       0.81391518       0.04443752       0.87513639 </v>
   <v>       0.81257277       0.87073008       0.43424057 </v>
   <v>       0.06011468       0.53765187       0.38923754 </v>
   <v>       0.93831145       0.95302353       0.34505060 </v>
   <v>       0.18776025       0.95478499       0.47832223 </v>
  </varray>
 </structure>
</modeling>
