<?xml version="1.0" encoding="ISO-8859-1"?>
<modeling>
 <generator>
  <i name="program" type="string">vasp </i>
  <i name="version" type="string">5.4.4.18Apr17-6-g9f103f2a35  </i>
  <i name="subversion" type="string">(build Sep 27 2018 12:46:37) complex + VL-xray_ parallel </i>
  <i name="platform" type="string">LLNL_Quartz_ifc </i>
  <i name="date" type="string">2021 09 27 </i>
  <i name="time" type="string">00:15:07 </i>
 </generator>
 <incar>
  <i type="int" name="ISTART">     2</i>
  <i type="string" name="PREC">accurate</i>
  <i type="string" name="ALGO"> Fast</i>
  <i type="int" name="ICHARG">     2</i>
  <i type="int" name="INIWAV">     1</i>
  <i type="int" name="NELM">   100</i>
  <i type="int" name="NELMIN">     4</i>
  <i type="int" name="IBRION">     2</i>
  <i name="EDIFF">      0.00000100</i>
  <i type="int" name="NSW">     5</i>
  <i type="int" name="ISIF">     2</i>
  <i type="int" name="ISYM">     2</i>
  <i name="ENCUT">    450.00000000</i>
  <i name="POTIM">      0.25000000</i>
  <i type="string" name="LREAL"> Auto</i>
  <i type="int" name="ISMEAR">     0</i>
  <i name="SIGMA">      0.15000000</i>
  <i type="logical" name="LWAVE"> F  </i>
  <i type="logical" name="LCHARG"> F  </i>
  <i type="int" name="ICORELEVEL">     0</i>
  <i type="int" name="CLNT">     1</i>
  <i type="int" name="CLN">     1</i>
  <i type="int" name="INCAR     ">     0</i>
  <i name="CLZ">      0.00000000</i>
  <v type="int" name="KPOINT_BSE">    -1     0     0     0</v>
  <i type="int" name="NELM">   100</i>
 </incar>
 <structure name="primitive_cell" >
  <crystal>
   <varray name="basis" >
    <v>       9.72667804       0.00000000       0.00000000 </v>
    <v>       0.00000000       8.42355028       0.00000000 </v>
    <v>       0.00000000       0.00000000      45.00000000 </v>
   </varray>
   <i name="volume">   3686.99226691 </i>
   <varray name="rec_basis" >
    <v>       0.10281002       0.00000000       0.00000000 </v>
    <v>       0.00000000       0.11871479       0.00000000 </v>
    <v>       0.00000000       0.00000000       0.02222222 </v>
   </varray>
  </crystal>
  <varray name="positions" >
   <v>       0.06324028       0.02848157       0.12408208 </v>
   <v>       0.18285338       0.11271633       0.16662752 </v>
   <v>       0.18663656      -0.21220478       0.12415886 </v>
   <v>       0.05602870      -0.13504271       0.16675350 </v>
   <v>      -0.06368198      -0.21111087       0.12431801 </v>
   <v>       0.31156154       0.03169881       0.12420217 </v>
   <v>      -0.18523151       0.02973263       0.12405296 </v>
   <v>      -0.06901147       0.11367766       0.16684815 </v>
   <v>       0.18613519       0.28596930       0.12413808 </v>
   <v>      -0.06432239       0.28682996       0.12403759 </v>
   <v>       0.30657315      -0.13683396       0.16680270 </v>
   <v>       0.05554536       0.36532706       0.16666667 </v>
   <v>      -0.19244195      -0.13683081       0.16675974 </v>
   <v>       0.43250437       0.11286208       0.16659842 </v>
   <v>       0.18197819      -0.38643751       0.16665080 </v>
   <v>      -0.05992652      -0.04590024       0.21132470 </v>
   <v>       0.43578406      -0.21311069       0.12418312 </v>
   <v>       0.30701394       0.36382385       0.16667777 </v>
   <v>       0.19104488      -0.04510340       0.21166622 </v>
   <v>      -0.06764724      -0.38712262       0.16667814 </v>
   <v>       0.06547501       0.20571531       0.21117935 </v>
   <v>       0.06312148      -0.47041894       0.12392664 </v>
   <v>       0.43375879       0.28583133       0.12407789 </v>
   <v>      -0.31605450      -0.21203113       0.12433656 </v>
   <v>      -0.19445293       0.36582234       0.16580402 </v>
   <v>      -0.31796909       0.11321586       0.16674159 </v>
   <v>      -0.31412609       0.28640920       0.12394836 </v>
   <v>       0.06722176      -0.29575599       0.21137779 </v>
   <v>      -0.18358002       0.20314822       0.21125053 </v>
   <v>       0.31152324      -0.47002116       0.12403892 </v>
   <v>      -0.43738190       0.03237095       0.12436533 </v>
   <v>      -0.18673736      -0.47150526       0.12396507 </v>
   <v>       0.31595581       0.20559060       0.21130424 </v>
   <v>      -0.18393702      -0.29647269       0.21132209 </v>
   <v>      -0.44300309      -0.13874990       0.16650692 </v>
   <v>       0.43249966      -0.38740925       0.16614989 </v>
   <v>       0.31574360      -0.29385338       0.21166807 </v>
   <v>      -0.30989742      -0.04543167       0.21176320 </v>
   <v>       0.44013065      -0.04502566       0.21189626 </v>
   <v>      -0.31800277      -0.38843531       0.16613507 </v>
   <v>       0.18959437       0.45388354       0.21121584 </v>
   <v>      -0.05932233       0.45392400       0.21159861 </v>
   <v>      -0.44284538       0.36399554       0.16655731 </v>
   <v>       0.05873099       0.03710133       0.25574384 </v>
   <v>       0.18356565      -0.21304507       0.25535409 </v>
   <v>      -0.06643041      -0.21304997       0.25544734 </v>
   <v>       0.30939550       0.03743599       0.25551073 </v>
   <v>      -0.43351320       0.20324492       0.21138271 </v>
   <v>      -0.19027793       0.03839952       0.25585886 </v>
   <v>      -0.43762969      -0.47092203       0.12438933 </v>
   <v>       0.18379261       0.28721771       0.25589004 </v>
   <v>      -0.06629740       0.28749818       0.25583159 </v>
   <v>      -0.31081329       0.45382369       0.21170724 </v>
   <v>       0.44081105       0.45335807       0.21124885 </v>
   <v>      -0.43201735      -0.29762926       0.21186182 </v>
   <v>       0.43324866      -0.21266401       0.25561244 </v>
   <v>       0.05872798      -0.46278461       0.25582896 </v>
   <v>       0.43348586       0.28768138       0.25578679 </v>
   <v>      -0.31656187      -0.21200870       0.25581582 </v>
   <v>      -0.31634441       0.28727574       0.25591757 </v>
   <v>       0.30823929      -0.46361996       0.25579944 </v>
   <v>      -0.44016728       0.03755435       0.25543499 </v>
   <v>      -0.19134496      -0.46282858       0.25578580 </v>
   <v>       0.07087058      -0.12693648       0.30017267 </v>
   <v>      -0.05439851       0.12283564       0.30010788 </v>
   <v>       0.19494395       0.12220809       0.30013728 </v>
   <v>      -0.17897909      -0.12674776       0.30022596 </v>
   <v>       0.31953997      -0.12661172       0.30004228 </v>
   <v>       0.06937282       0.37435003       0.30007149 </v>
   <v>      -0.44227003      -0.46200604       0.25564606 </v>
   <v>      -0.05520379      -0.37685408       0.29992981 </v>
   <v>       0.19514831      -0.37709901       0.30007402 </v>
   <v>      -0.30455072       0.12308841       0.30030409 </v>
   <v>      -0.17969579       0.37323044       0.30010603 </v>
   <v>       0.32032179       0.37235835       0.30001986 </v>
   <v>       0.44472264       0.12300155       0.30040621 </v>
   <v>      -0.30511227      -0.37599055       0.30016338 </v>
   <v>      -0.42925915      -0.12692309       0.30018659 </v>
   <v>       0.44601837      -0.37671555       0.30010407 </v>
   <v>      -0.43012752       0.37178606       0.30014296 </v>
   <v>       0.18367376      -0.04764511       0.34491531 </v>
   <v>      -0.06599789      -0.04872663       0.34478846 </v>
   <v>       0.05870161       0.20274726       0.34494876 </v>
   <v>       0.05853871      -0.29765012       0.34494139 </v>
   <v>       0.30885684       0.20264932       0.34468479 </v>
   <v>      -0.19119642       0.20269910       0.34500071 </v>
   <v>       0.30894680      -0.29817605       0.34483227 </v>
   <v>       0.43355201      -0.04753887       0.34491873 </v>
   <v>      -0.19143226      -0.29741545       0.34492205 </v>
   <v>      -0.31712744      -0.04798695       0.34470742 </v>
   <v>       0.18361431       0.45281293       0.34489777 </v>
   <v>      -0.06650253       0.45227907       0.34484035 </v>
   <v>      -0.44128713       0.20280105       0.34474630 </v>
   <v>       0.43365715       0.45249999       0.34497386 </v>
   <v>       0.06557784       0.03923241      -0.12427615 </v>
   <v>      -0.31620516       0.45233129       0.34498268 </v>
   <v>      -0.44115253      -0.29799482       0.34488237 </v>
   <v>       0.18796134      -0.20263216      -0.12392174 </v>
   <v>      -0.06309573      -0.20412972      -0.12436984 </v>
   <v>       0.31419929       0.04137125      -0.12410952 </v>
   <v>      -0.18768076       0.04088968      -0.12427663 </v>
   <v>       0.18854291       0.29697908      -0.12374195 </v>
   <v>      -0.06523083       0.29836339      -0.12443424 </v>
   <v>       0.43631789      -0.20210831      -0.12374637 </v>
   <v>       0.06382745      -0.45896601      -0.12404811 </v>
   <v>      -0.31575201      -0.20222495      -0.12405574 </v>
   <v>       0.06666340       0.03814902       0.38912836 </v>
   <v>       0.43637142       0.29856471      -0.12351765 </v>
   <v>      -0.31464923       0.29874211      -0.12392511 </v>
   <v>       0.31365941      -0.45883228      -0.12384584 </v>
   <v>      -0.05883087      -0.21249696       0.38888562 </v>
   <v>      -0.18796180      -0.45967230      -0.12410674 </v>
   <v>       0.19349289      -0.21244334       0.38883674 </v>
   <v>       0.31611877       0.03717079       0.38880142 </v>
   <v>      -0.18206297       0.03939648       0.38922846 </v>
   <v>      -0.05901250       0.28651970       0.38891372 </v>
   <v>      -0.43713853       0.04063384      -0.12396329 </v>
   <v>       0.19109521       0.28758665       0.38896889 </v>
   <v>       0.06748154      -0.46126317       0.38910292 </v>
   <v>      -0.30847660      -0.21220477       0.38901962 </v>
   <v>       0.44154309      -0.21229285       0.38907828 </v>
   <v>      -0.30850717       0.28732736       0.38904542 </v>
   <v>       0.44155177       0.28758288       0.38916418 </v>
   <v>      -0.18379596      -0.46238835       0.38905604 </v>
   <v>      -0.43767037      -0.45917155      -0.12402466 </v>
   <v>       0.31591494      -0.46164076       0.38891241 </v>
   <v>      -0.43356826       0.03778825       0.38905409 </v>
   <v>      -0.05750620      -0.03480133      -0.16605137 </v>
   <v>       0.06675471       0.21569537      -0.16583060 </v>
   <v>       0.19192052      -0.03610306      -0.16637601 </v>
   <v>       0.06585246      -0.28298129      -0.16593532 </v>
   <v>      -0.18230235       0.21496028      -0.16628702 </v>
   <v>       0.31685558       0.21274441      -0.16652562 </v>
   <v>      -0.43385357      -0.46239870       0.38903533 </v>
   <v>      -0.18291560      -0.28431633      -0.16657688 </v>
   <v>      -0.30846091      -0.03755593      -0.16647694 </v>
   <v>       0.31805554      -0.28630959      -0.16678819 </v>
   <v>       0.44254653      -0.03679056      -0.16668091 </v>
   <v>      -0.05759791       0.46406215      -0.16600123 </v>
   <v>       0.19169512       0.46361838      -0.16648368 </v>
   <v>       0.06191363      -0.12857586       0.43441261 </v>
   <v>       0.18699953       0.12047463       0.43427520 </v>
   <v>      -0.43394582       0.21364118      -0.16679239 </v>
   <v>      -0.06318172       0.11923361       0.43462951 </v>
   <v>      -0.30783425       0.46216791      -0.16667010 </v>
   <v>       0.44250740       0.46327049      -0.16668336 </v>
   <v>      -0.43377652      -0.28619079      -0.16664515 </v>
   <v>      -0.18826926      -0.12879098       0.43425963 </v>
   <v>       0.31186228      -0.12952047       0.43451258 </v>
   <v>       0.06279682       0.37184714       0.43435351 </v>
   <v>      -0.06267043      -0.37964618       0.43443943 </v>
   <v>       0.18742784      -0.38012114       0.43445689 </v>
   <v>       0.43695545       0.12072999       0.43439315 </v>
   <v>      -0.31217420       0.11998784       0.43433389 </v>
   <v>      -0.18830158       0.37132367       0.43423734 </v>
   <v>       0.31245479       0.37062096       0.43446927 </v>
   <v>       0.43644103      -0.37869365       0.43436846 </v>
   <v>      -0.31212335      -0.37968183       0.43447667 </v>
   <v>      -0.43762788      -0.12946057       0.43441957 </v>
   <v>      -0.43821370       0.37107291       0.43434953 </v>
   <v>       0.18364256       0.12423374      -0.21122044 </v>
   <v>       0.05925468      -0.12601520      -0.21154013 </v>
   <v>      -0.06593288       0.12475519      -0.21145145 </v>
   <v>       0.31082258      -0.12753927      -0.21173582 </v>
   <v>      -0.19141626      -0.12684283      -0.21159211 </v>
   <v>       0.05909598       0.37418207      -0.21145249 </v>
   <v>       0.43393898       0.12364834      -0.21091296 </v>
   <v>       0.18446763      -0.37678263      -0.21150469 </v>
   <v>      -0.06741174      -0.37432828      -0.21176169 </v>
   <v>       0.30865379       0.37376035      -0.21117679 </v>
   <v>      -0.31777663       0.12370226      -0.21135622 </v>
   <v>      -0.19127592       0.37460760      -0.21156162 </v>
   <v>       0.43300287      -0.37626988      -0.21103621 </v>
   <v>      -0.31683749      -0.37617209      -0.21130135 </v>
   <v>      -0.44094294      -0.12658306      -0.21157342 </v>
   <v>       0.18730729      -0.04407515       0.47867333 </v>
   <v>      -0.06271178      -0.04489712       0.47874713 </v>
   <v>       0.06243358       0.20581831       0.47865373 </v>
   <v>      -0.44121445       0.37304474      -0.21123556 </v>
   <v>       0.06228828      -0.29410822       0.47856155 </v>
   <v>       0.31253225       0.20561711       0.47872904 </v>
   <v>      -0.18785520       0.20586979       0.47867640 </v>
   <v>       0.31225441      -0.29414596       0.47865804 </v>
   <v>      -0.18766353      -0.29410825       0.47865682 </v>
   <v>       0.43719379      -0.04425377       0.47866327 </v>
   <v>      -0.31254927      -0.04412777       0.47868484 </v>
   <v>      -0.06257058       0.45554461       0.47865161 </v>
   <v>       0.18742589       0.45566648       0.47867818 </v>
   <v>      -0.43783201       0.20583558       0.47866993 </v>
   <v>       0.43745058       0.45587172       0.47859786 </v>
   <v>      -0.31297623       0.45557993       0.47863992 </v>
   <v>      -0.43763732      -0.29437768       0.47866952 </v>
   <v>       0.06541353       0.04013689      -0.25582273 </v>
   <v>      -0.05927883      -0.20929206      -0.25541881 </v>
   <v>       0.18927942      -0.20819006      -0.25553755 </v>
   <v>      -0.18418382       0.03994991      -0.25574064 </v>
   <v>      -0.06102537       0.29087870      -0.25548380 </v>
   <v>       0.19028989       0.29125003      -0.25565773 </v>
   <v>       0.31497415       0.04171159      -0.25594185 </v>
   <v>       0.06438491      -0.45916202      -0.25558193 </v>
   <v>       0.43952681      -0.20799303      -0.25559936 </v>
   <v>      -0.31000520      -0.20816961      -0.25581832 </v>
   <v>      -0.31021487       0.29131947      -0.25576897 </v>
   <v>       0.43945716       0.29219870      -0.25586517 </v>
   <v>      -0.18436292      -0.45976536      -0.25585983 </v>
   <v>       0.31525674      -0.45945307      -0.25579877 </v>
   <v>      -0.43451447       0.04133249      -0.25568602 </v>
   <v>       0.06194444      -0.12824738      -0.47860490 </v>
   <v>       0.18695276       0.12194695      -0.47863406 </v>
   <v>      -0.06357083       0.12186164      -0.47843624 </v>
   <v>       0.31176534      -0.12803942      -0.47858555 </v>
   <v>      -0.18834241      -0.12853801      -0.47859443 </v>
   <v>       0.06136739       0.37236929      -0.47858307 </v>
   <v>      -0.06321222      -0.37804581      -0.47859317 </v>
   <v>      -0.43520328      -0.45926388      -0.25601564 </v>
   <v>       0.18685367      -0.37851159      -0.47854098 </v>
   <v>       0.43684233       0.12172910      -0.47849794 </v>
   <v>      -0.31326295       0.12186577      -0.47860084 </v>
   <v>       0.31161769       0.37200329      -0.47859834 </v>
   <v>      -0.18819419       0.37223085      -0.47860347 </v>
   <v>       0.43663150      -0.37797194      -0.47863243 </v>
   <v>      -0.31338094      -0.37861816      -0.47862906 </v>
   <v>      -0.43799132      -0.12782255      -0.47853078 </v>
   <v>      -0.43812510       0.37186352      -0.47856816 </v>
   <v>       0.18537481      -0.04266817      -0.30017680 </v>
   <v>      -0.06476142      -0.04187190      -0.30033909 </v>
   <v>       0.06009495       0.20819448      -0.30029344 </v>
   <v>       0.06058597      -0.29209184      -0.30038795 </v>
   <v>       0.31012834       0.20731037      -0.30012260 </v>
   <v>      -0.18910307       0.20766325      -0.30019551 </v>
   <v>       0.31022351      -0.29302997      -0.30024483 </v>
   <v>       0.43539933      -0.04225896      -0.30028593 </v>
   <v>      -0.18985690      -0.29201223      -0.30036214 </v>
   <v>      -0.31442445      -0.04258934      -0.30025496 </v>
   <v>       0.18527391       0.45798677      -0.30030682 </v>
   <v>      -0.06474603       0.45809110      -0.30029688 </v>
   <v>      -0.43952250       0.20738396      -0.30019631 </v>
   <v>       0.43572670       0.45748976      -0.30026227 </v>
   <v>      -0.31490144       0.45773270      -0.30029238 </v>
   <v>      -0.43963694      -0.29297113      -0.30023717 </v>
   <v>       0.18678962      -0.04288832      -0.43448332 </v>
   <v>      -0.06345247      -0.04268695      -0.43446812 </v>
   <v>       0.06219497       0.20718300      -0.43462292 </v>
   <v>       0.06172804      -0.29351948      -0.43446945 </v>
   <v>       0.31135108       0.20654093      -0.43448024 </v>
   <v>      -0.18872999       0.20691909      -0.43453134 </v>
   <v>       0.31126095      -0.29301797      -0.43447265 </v>
   <v>      -0.18885609      -0.29346266      -0.43453167 </v>
   <v>       0.43670413      -0.04320457      -0.43460962 </v>
   <v>      -0.31277024      -0.04307480      -0.43447971 </v>
   <v>       0.18718838       0.45699598      -0.43449449 </v>
   <v>      -0.06350088       0.45649202      -0.43441066 </v>
   <v>      -0.43791796       0.20702706      -0.43447520 </v>
   <v>       0.43659125       0.45697732      -0.43447396 </v>
   <v>      -0.31371476       0.45664123      -0.43456641 </v>
   <v>      -0.43784634      -0.29299894      -0.43448421 </v>
   <v>       0.06628845      -0.12550848      -0.34507828 </v>
   <v>       0.19112891       0.12512334      -0.34489013 </v>
   <v>      -0.05865629       0.12479217      -0.34508996 </v>
   <v>      -0.18389684      -0.12498759      -0.34500203 </v>
   <v>       0.31639319      -0.12511259      -0.34501144 </v>
   <v>       0.06637433       0.37432677      -0.34507107 </v>
   <v>      -0.05845751      -0.37472836      -0.34506984 </v>
   <v>       0.19123590      -0.37510755      -0.34499483 </v>
   <v>      -0.30870198       0.12499417      -0.34504561 </v>
   <v>       0.44137251       0.12467078      -0.34506185 </v>
   <v>      -0.18357224       0.37476169      -0.34507661 </v>
   <v>       0.31613429       0.37419729      -0.34498843 </v>
   <v>      -0.30913053      -0.37497817      -0.34488407 </v>
   <v>      -0.43376764      -0.12482879      -0.34501015 </v>
   <v>       0.44124426      -0.37513235      -0.34500511 </v>
   <v>      -0.43370371       0.37490019      -0.34509098 </v>
   <v>       0.05895004       0.03799223      -0.38912247 </v>
   <v>       0.18349493      -0.21206818      -0.38914349 </v>
   <v>      -0.06647616      -0.21239512      -0.38909970 </v>
   <v>       0.30894812       0.03841310      -0.38899046 </v>
   <v>      -0.19090508       0.03838339      -0.38905162 </v>
   <v>       0.18418630       0.28846892      -0.38895439 </v>
   <v>      -0.06623122       0.28785928      -0.38903243 </v>
   <v>       0.43388520      -0.21183983      -0.38906916 </v>
   <v>       0.05876583      -0.46212357      -0.38904206 </v>
   <v>      -0.31625180      -0.21203559      -0.38909546 </v>
   <v>       0.43390868       0.28806683      -0.38908774 </v>
   <v>      -0.31613330       0.28852279      -0.38897846 </v>
   <v>       0.30879051      -0.46160539      -0.38898413 </v>
   <v>      -0.19106299      -0.46177909      -0.38896103 </v>
   <v>      -0.44083791       0.03857103      -0.38892304 </v>
   <v>      -0.44114241      -0.46153394      -0.38899183 </v>
  </varray>
 </structure>
 <varray name="primitive_index" >
  <v type="int" >        1 </v>
  <v type="int" >      125 </v>
  <v type="int" >       83 </v>
  <v type="int" >       60 </v>
  <v type="int" >       44 </v>
  <v type="int" >      256 </v>
  <v type="int" >      202 </v>
  <v type="int" >       26 </v>
  <v type="int" >      111 </v>
  <v type="int" >      155 </v>
  <v type="int" >       46 </v>
  <v type="int" >       51 </v>
  <v type="int" >      102 </v>
  <v type="int" >      182 </v>
  <v type="int" >       20 </v>
  <v type="int" >      212 </v>
  <v type="int" >      170 </v>
  <v type="int" >      108 </v>
  <v type="int" >      146 </v>
  <v type="int" >      104 </v>
  <v type="int" >       50 </v>
  <v type="int" >      176 </v>
  <v type="int" >      117 </v>
  <v type="int" >      163 </v>
  <v type="int" >      284 </v>
  <v type="int" >      166 </v>
  <v type="int" >      145 </v>
  <v type="int" >      250 </v>
  <v type="int" >      167 </v>
  <v type="int" >       91 </v>
  <v type="int" >      114 </v>
  <v type="int" >      205 </v>
  <v type="int" >      249 </v>
  <v type="int" >      213 </v>
  <v type="int" >      192 </v>
  <v type="int" >      174 </v>
  <v type="int" >      276 </v>
  <v type="int" >       92 </v>
  <v type="int" >      229 </v>
  <v type="int" >       97 </v>
  <v type="int" >      189 </v>
  <v type="int" >      175 </v>
  <v type="int" >       30 </v>
  <v type="int" >      185 </v>
  <v type="int" >      200 </v>
  <v type="int" >       52 </v>
  <v type="int" >      179 </v>
  <v type="int" >      103 </v>
  <v type="int" >       24 </v>
  <v type="int" >      283 </v>
  <v type="int" >      112 </v>
  <v type="int" >      127 </v>
  <v type="int" >      261 </v>
  <v type="int" >      139 </v>
  <v type="int" >      288 </v>
  <v type="int" >      137 </v>
  <v type="int" >      168 </v>
  <v type="int" >      265 </v>
  <v type="int" >      118 </v>
  <v type="int" >       58 </v>
  <v type="int" >      275 </v>
  <v type="int" >      221 </v>
  <v type="int" >       81 </v>
  <v type="int" >      214 </v>
  <v type="int" >      135 </v>
  <v type="int" >      215 </v>
  <v type="int" >       72 </v>
  <v type="int" >       98 </v>
  <v type="int" >      226 </v>
  <v type="int" >       28 </v>
  <v type="int" >      178 </v>
  <v type="int" >      263 </v>
  <v type="int" >      109 </v>
  <v type="int" >      220 </v>
  <v type="int" >      242 </v>
  <v type="int" >      159 </v>
  <v type="int" >      130 </v>
  <v type="int" >      210 </v>
  <v type="int" >      101 </v>
  <v type="int" >      171 </v>
  <v type="int" >      258 </v>
  <v type="int" >      194 </v>
  <v type="int" >       47 </v>
  <v type="int" >      216 </v>
  <v type="int" >       86 </v>
  <v type="int" >      207 </v>
  <v type="int" >      208 </v>
  <v type="int" >      172 </v>
  <v type="int" >       73 </v>
  <v type="int" >       25 </v>
  <v type="int" >      116 </v>
  <v type="int" >       12 </v>
  <v type="int" >      219 </v>
  <v type="int" >      206 </v>
  <v type="int" >      282 </v>
  <v type="int" >       48 </v>
  <v type="int" >      164 </v>
  <v type="int" >      268 </v>
  <v type="int" >      281 </v>
  <v type="int" >      245 </v>
  <v type="int" >       14 </v>
  <v type="int" >      120 </v>
  <v type="int" >      280 </v>
  <v type="int" >      150 </v>
  <v type="int" >      266 </v>
  <v type="int" >       29 </v>
  <v type="int" >      124 </v>
  <v type="int" >      255 </v>
  <v type="int" >      191 </v>
  <v type="int" >       18 </v>
  <v type="int" >      190 </v>
  <v type="int" >      231 </v>
  <v type="int" >      287 </v>
  <v type="int" >      165 </v>
  <v type="int" >      279 </v>
  <v type="int" >       13 </v>
  <v type="int" >      161 </v>
  <v type="int" >      248 </v>
  <v type="int" >      273 </v>
  <v type="int" >       45 </v>
  <v type="int" >      264 </v>
  <v type="int" >       84 </v>
  <v type="int" >        4 </v>
  <v type="int" >      123 </v>
  <v type="int" >       64 </v>
  <v type="int" >       67 </v>
  <v type="int" >       16 </v>
  <v type="int" >       17 </v>
  <v type="int" >      259 </v>
  <v type="int" >        7 </v>
  <v type="int" >      134 </v>
  <v type="int" >        6 </v>
  <v type="int" >       39 </v>
  <v type="int" >      222 </v>
  <v type="int" >      253 </v>
  <v type="int" >       88 </v>
  <v type="int" >        5 </v>
  <v type="int" >      110 </v>
  <v type="int" >       36 </v>
  <v type="int" >      181 </v>
  <v type="int" >      285 </v>
  <v type="int" >      160 </v>
  <v type="int" >      143 </v>
  <v type="int" >      158 </v>
  <v type="int" >       82 </v>
  <v type="int" >       74 </v>
  <v type="int" >      241 </v>
  <v type="int" >      235 </v>
  <v type="int" >       23 </v>
  <v type="int" >      218 </v>
  <v type="int" >      131 </v>
  <v type="int" >      238 </v>
  <v type="int" >      201 </v>
  <v type="int" >      257 </v>
  <v type="int" >       80 </v>
  <v type="int" >      113 </v>
  <v type="int" >      278 </v>
  <v type="int" >      232 </v>
  <v type="int" >       69 </v>
  <v type="int" >      251 </v>
  <v type="int" >        3 </v>
  <v type="int" >      197 </v>
  <v type="int" >      149 </v>
  <v type="int" >      224 </v>
  <v type="int" >       55 </v>
  <v type="int" >      254 </v>
  <v type="int" >       49 </v>
  <v type="int" >      272 </v>
  <v type="int" >      132 </v>
  <v type="int" >      138 </v>
  <v type="int" >      188 </v>
  <v type="int" >       57 </v>
  <v type="int" >      184 </v>
  <v type="int" >       66 </v>
  <v type="int" >       33 </v>
  <v type="int" >       94 </v>
  <v type="int" >      236 </v>
  <v type="int" >      223 </v>
  <v type="int" >      106 </v>
  <v type="int" >      157 </v>
  <v type="int" >      230 </v>
  <v type="int" >       21 </v>
  <v type="int" >       99 </v>
  <v type="int" >      234 </v>
  <v type="int" >      105 </v>
  <v type="int" >       75 </v>
  <v type="int" >      269 </v>
  <v type="int" >      244 </v>
  <v type="int" >      237 </v>
  <v type="int" >      156 </v>
  <v type="int" >      199 </v>
  <v type="int" >      169 </v>
  <v type="int" >        9 </v>
  <v type="int" >      277 </v>
  <v type="int" >      262 </v>
  <v type="int" >      151 </v>
  <v type="int" >      187 </v>
  <v type="int" >       11 </v>
  <v type="int" >      239 </v>
  <v type="int" >      211 </v>
  <v type="int" >       31 </v>
  <v type="int" >       43 </v>
  <v type="int" >       19 </v>
  <v type="int" >       71 </v>
  <v type="int" >       87 </v>
  <v type="int" >      243 </v>
  <v type="int" >      267 </v>
  <v type="int" >       27 </v>
  <v type="int" >      140 </v>
  <v type="int" >      286 </v>
  <v type="int" >      144 </v>
  <v type="int" >       10 </v>
  <v type="int" >      107 </v>
  <v type="int" >      203 </v>
  <v type="int" >      270 </v>
  <v type="int" >       68 </v>
  <v type="int" >      119 </v>
  <v type="int" >       34 </v>
  <v type="int" >      183 </v>
  <v type="int" >      177 </v>
  <v type="int" >      252 </v>
  <v type="int" >      195 </v>
  <v type="int" >       77 </v>
  <v type="int" >      247 </v>
  <v type="int" >      173 </v>
  <v type="int" >      225 </v>
  <v type="int" >       37 </v>
  <v type="int" >      274 </v>
  <v type="int" >       63 </v>
  <v type="int" >      233 </v>
  <v type="int" >      154 </v>
  <v type="int" >       38 </v>
  <v type="int" >      141 </v>
  <v type="int" >       54 </v>
  <v type="int" >      246 </v>
  <v type="int" >      152 </v>
  <v type="int" >       53 </v>
  <v type="int" >      193 </v>
  <v type="int" >       76 </v>
  <v type="int" >      133 </v>
  <v type="int" >      162 </v>
  <v type="int" >      129 </v>
  <v type="int" >       62 </v>
  <v type="int" >       65 </v>
  <v type="int" >       93 </v>
  <v type="int" >      271 </v>
  <v type="int" >       90 </v>
  <v type="int" >       32 </v>
  <v type="int" >       56 </v>
  <v type="int" >       95 </v>
  <v type="int" >       59 </v>
  <v type="int" >       42 </v>
  <v type="int" >        8 </v>
  <v type="int" >       70 </v>
  <v type="int" >      228 </v>
  <v type="int" >      186 </v>
  <v type="int" >      196 </v>
  <v type="int" >      121 </v>
  <v type="int" >      122 </v>
  <v type="int" >       79 </v>
  <v type="int" >        2 </v>
  <v type="int" >      198 </v>
  <v type="int" >      240 </v>
  <v type="int" >      153 </v>
  <v type="int" >      209 </v>
  <v type="int" >      204 </v>
  <v type="int" >       35 </v>
  <v type="int" >       85 </v>
  <v type="int" >      227 </v>
  <v type="int" >       89 </v>
  <v type="int" >       40 </v>
  <v type="int" >       78 </v>
  <v type="int" >      142 </v>
  <v type="int" >       15 </v>
  <v type="int" >      136 </v>
  <v type="int" >      148 </v>
  <v type="int" >      217 </v>
  <v type="int" >       61 </v>
  <v type="int" >      100 </v>
  <v type="int" >       96 </v>
  <v type="int" >      126 </v>
  <v type="int" >      180 </v>
  <v type="int" >      115 </v>
  <v type="int" >      147 </v>
  <v type="int" >       41 </v>
  <v type="int" >       22 </v>
  <v type="int" >      260 </v>
  <v type="int" >      128 </v>
 </varray>
 <kpoints>
  <generation param="Gamma">
   <v type="int" name="divisions">       4        4        1 </v>
   <v name="usershift">      0.00000000       0.00000000       0.00000000 </v>
   <v name="genvec1">      0.25000000       0.00000000       0.00000000 </v>
   <v name="genvec2">      0.00000000       0.25000000       0.00000000 </v>
   <v name="genvec3">      0.00000000       0.00000000       1.00000000 </v>
   <v name="shift">      0.00000000       0.00000000       0.00000000 </v>
  </generation>
  <varray name="kpointlist" >
   <v>       0.00000000       0.00000000       0.00000000 </v>
   <v>       0.25000000       0.00000000       0.00000000 </v>
   <v>       0.50000000       0.00000000       0.00000000 </v>
   <v>       0.00000000       0.25000000       0.00000000 </v>
   <v>       0.25000000       0.25000000       0.00000000 </v>
   <v>       0.50000000       0.25000000       0.00000000 </v>
   <v>      -0.25000000       0.25000000       0.00000000 </v>
   <v>       0.00000000       0.50000000       0.00000000 </v>
   <v>       0.25000000       0.50000000       0.00000000 </v>
   <v>       0.50000000       0.50000000       0.00000000 </v>
  </varray>
  <varray name="weights" >
   <v>       0.06250000 </v>
   <v>       0.12500000 </v>
   <v>       0.06250000 </v>
   <v>       0.12500000 </v>
   <v>       0.12500000 </v>
   <v>       0.12500000 </v>
   <v>       0.12500000 </v>
   <v>       0.06250000 </v>
   <v>       0.12500000 </v>
   <v>       0.06250000 </v>
  </varray>
 </kpoints>
 <parameters>
  <separator name="general" >
   <i type="string" name="SYSTEM">unknown system</i>
   <i type="logical" name="LCOMPAT"> F  </i>
  </separator>
  <separator name="electronic" >
   <i type="string" name="PREC">accura</i>
   <i name="ENMAX">    450.00000000</i>
   <i name="ENAUG">    838.43500000</i>
   <i name="EDIFF">      0.00000100</i>
   <i type="int" name="IALGO">    68</i>
   <i type="int" name="IWAVPR">    11</i>
   <i type="int" name="NBANDS">  1386</i>
   <i name="NELECT">   2290.00000000</i>
   <i type="int" name="TURBO">     0</i>
   <i type="int" name="IRESTART">     0</i>
   <i type="int" name="NREBOOT">     0</i>
   <i type="int" name="NMIN">     0</i>
   <i name="EREF">      0.00000000</i>
   <separator name="electronic smearing" >
    <i type="int" name="ISMEAR">     0</i>
    <i name="SIGMA">      0.15000000</i>
    <i name="KSPACING">      0.50000000</i>
    <i type="logical" name="KGAMMA"> T  </i>
   </separator>
   <separator name="electronic projectors" >
    <i type="logical" name="LREAL"> T  </i>
    <v name="ROPT">     -0.00025000     -0.00025000</v>
    <i type="int" name="LMAXPAW">  -100</i>
    <i type="int" name="LMAXMIX">     2</i>
    <i type="logical" name="NLSPLINE"> F  </i>
   </separator>
   <separator name="electronic startup" >
    <i type="int" name="ISTART">     0</i>
    <i type="int" name="ICHARG">     2</i>
    <i type="int" name="INIWAV">     1</i>
   </separator>
   <separator name="electronic spin" >
    <i type="int" name="ISPIN">     1</i>
    <i type="logical" name="LNONCOLLINEAR"> F  </i>
    <v name="MAGMOM">      1.00000000      1.00000000      1.00000000      1.00000000      1.00000000      1.00000000      1.00000000      1.00000000      1.00000000      1.00000000      1.00000000      1.00000000      1.00000000      1.00000000      1.00000000      1.00000000      1.00000000      1.00000000      1.00000000      1.00000000
      1.00000000      1.00000000      1.00000000      1.00000000      1.00000000      1.00000000      1.00000000      1.00000000      1.00000000      1.00000000      1.00000000      1.00000000      1.00000000      1.00000000      1.00000000      1.00000000      1.00000000      1.00000000      1.00000000      1.00000000
      1.00000000      1.00000000      1.00000000      1.00000000      1.00000000      1.00000000      1.00000000      1.00000000      1.00000000      1.00000000      1.00000000      1.00000000      1.00000000      1.00000000      1.00000000      1.00000000      1.00000000      1.00000000      1.00000000      1.00000000
      1.00000000      1.00000000      1.00000000      1.00000000      1.00000000      1.00000000      1.00000000      1.00000000      1.00000000      1.00000000      1.00000000      1.00000000      1.00000000      1.00000000      1.00000000      1.00000000      1.00000000      1.00000000      1.00000000      1.00000000
      1.00000000      1.00000000      1.00000000      1.00000000      1.00000000      1.00000000      1.00000000      1.00000000      1.00000000      1.00000000      1.00000000      1.00000000      1.00000000      1.00000000      1.00000000      1.00000000      1.00000000      1.00000000      1.00000000      1.00000000
      1.00000000      1.00000000      1.00000000      1.00000000      1.00000000      1.00000000      1.00000000      1.00000000      1.00000000      1.00000000      1.00000000      1.00000000      1.00000000      1.00000000      1.00000000      1.00000000      1.00000000      1.00000000      1.00000000      1.00000000
      1.00000000      1.00000000      1.00000000      1.00000000      1.00000000      1.00000000      1.00000000      1.00000000      1.00000000      1.00000000      1.00000000      1.00000000      1.00000000      1.00000000      1.00000000      1.00000000      1.00000000      1.00000000      1.00000000      1.00000000
      1.00000000      1.00000000      1.00000000      1.00000000      1.00000000      1.00000000      1.00000000      1.00000000      1.00000000      1.00000000      1.00000000      1.00000000      1.00000000      1.00000000      1.00000000      1.00000000      1.00000000      1.00000000      1.00000000      1.00000000
      1.00000000      1.00000000      1.00000000      1.00000000      1.00000000      1.00000000      1.00000000      1.00000000      1.00000000      1.00000000      1.00000000      1.00000000      1.00000000      1.00000000      1.00000000      1.00000000      1.00000000      1.00000000      1.00000000      1.00000000
      1.00000000      1.00000000      1.00000000      1.00000000      1.00000000      1.00000000      1.00000000      1.00000000      1.00000000      1.00000000      1.00000000      1.00000000      1.00000000      1.00000000      1.00000000      1.00000000      1.00000000      1.00000000      1.00000000      1.00000000
      1.00000000      1.00000000      1.00000000      1.00000000      1.00000000      1.00000000      1.00000000      1.00000000      1.00000000      1.00000000      1.00000000      1.00000000      1.00000000      1.00000000      1.00000000      1.00000000      1.00000000      1.00000000      1.00000000      1.00000000
      1.00000000      1.00000000      1.00000000      1.00000000      1.00000000      1.00000000      1.00000000      1.00000000      1.00000000      1.00000000      1.00000000      1.00000000      1.00000000      1.00000000      1.00000000      1.00000000      1.00000000      1.00000000      1.00000000      1.00000000
      1.00000000      1.00000000      1.00000000      1.00000000      1.00000000      1.00000000      1.00000000      1.00000000      1.00000000      1.00000000      1.00000000      1.00000000      1.00000000      1.00000000      1.00000000      1.00000000      1.00000000      1.00000000      1.00000000      1.00000000
      1.00000000      1.00000000      1.00000000      1.00000000      1.00000000      1.00000000      1.00000000      1.00000000      1.00000000      1.00000000      1.00000000      1.00000000      1.00000000      1.00000000      1.00000000      1.00000000      1.00000000      1.00000000      1.00000000      1.00000000
      1.00000000      1.00000000      1.00000000      1.00000000      1.00000000      1.00000000      1.00000000      1.00000000</v>
    <i name="NUPDOWN">     -1.00000000</i>
    <i type="logical" name="LSORBIT"> F  </i>
    <v name="SAXIS">      0.00000000      0.00000000      1.00000000</v>
    <i type="logical" name="LSPIRAL"> F  </i>
    <v name="QSPIRAL">      0.00000000      0.00000000      0.00000000</v>
    <i type="logical" name="LZEROZ"> F  </i>
   </separator>
   <separator name="electronic exchange-correlation" >
    <i type="logical" name="LASPH"> F  </i>
    <i type="logical" name="LMETAGGA"> F  </i>
   </separator>
   <separator name="electronic convergence" >
    <i type="int" name="NELM">   100</i>
    <i type="int" name="NELMDL">     0</i>
    <i type="int" name="NELMIN">     4</i>
    <i name="ENINI">    450.00000000</i>
    <separator name="electronic convergence detail" >
     <i type="logical" name="LDIAG"> T  </i>
     <i type="logical" name="LSUBROT"> F  </i>
     <i name="WEIMIN">      0.00100000</i>
     <i name="EBREAK">      0.00000000</i>
     <i name="DEPER">      0.30000000</i>
     <i type="int" name="NRMM">     4</i>
     <i name="TIME">      0.40000000</i>
    </separator>
   </separator>
   <separator name="electronic mixer" >
    <i name="AMIX">      0.40000000</i>
    <i name="BMIX">      1.00000000</i>
    <i name="AMIN">      0.10000000</i>
    <i name="AMIX_MAG">      1.60000000</i>
    <i name="BMIX_MAG">      1.00000000</i>
    <separator name="electronic mixer details" >
     <i type="int" name="IMIX">     4</i>
     <i type="logical" name="MIXFIRST"> F  </i>
     <i type="int" name="MAXMIX">   -45</i>
     <i name="WC">    100.00000000</i>
     <i type="int" name="INIMIX">     1</i>
     <i type="int" name="MIXPRE">     1</i>
     <i type="int" name="MREMOVE">     5</i>
    </separator>
   </separator>
   <separator name="electronic dipolcorrection" >
    <i type="logical" name="LDIPOL"> F  </i>
    <i type="logical" name="LMONO"> F  </i>
    <i type="int" name="IDIPOL">     0</i>
    <i name="EPSILON">      1.00000000</i>
    <v name="DIPOL">   -100.00000000   -100.00000000   -100.00000000</v>
    <i name="EFIELD">      0.00000000</i>
   </separator>
  </separator>
  <separator name="grids" >
   <i type="int" name="NGX">    70</i>
   <i type="int" name="NGY">    60</i>
   <i type="int" name="NGZ">   320</i>
   <i type="int" name="NGXF">   140</i>
   <i type="int" name="NGYF">   120</i>
   <i type="int" name="NGZF">   640</i>
   <i type="logical" name="ADDGRID"> F  </i>
  </separator>
  <separator name="ionic" >
   <i type="int" name="NSW">     5</i>
   <i type="int" name="IBRION">     2</i>
   <i type="int" name="MDALGO">     0</i>
   <i type="int" name="ISIF">     2</i>
   <i name="PSTRESS">      0.00000000</i>
   <i name="EDIFFG">      0.00001000</i>
   <i type="int" name="NFREE">     1</i>
   <i name="POTIM">      0.25000000</i>
   <i name="SMASS">     -3.00000000</i>
   <i name="SCALEE">      1.00000000</i>
  </separator>
  <separator name="ionic md" >
   <i name="TEBEG">      0.00010000</i>
   <i name="TEEND">      0.00010000</i>
   <i type="int" name="NBLOCK">     1</i>
   <i type="int" name="KBLOCK">     5</i>
   <i type="int" name="NPACO">   256</i>
   <i name="APACO">     16.00000000</i>
  </separator>
  <separator name="symmetry" >
   <i type="int" name="ISYM">     2</i>
   <i name="SYMPREC">      0.00001000</i>
  </separator>
  <separator name="dos" >
   <i type="int" name="LORBIT">     0</i>
   <v name="RWIGS">     -1.00000000     -1.00000000</v>
   <i type="int" name="NEDOS">   301</i>
   <i name="EMIN">     10.00000000</i>
   <i name="EMAX">    -10.00000000</i>
   <i name="EFERMI">      0.00000000</i>
  </separator>
  <separator name="writing" >
   <i type="int" name="NWRITE">     2</i>
   <i type="logical" name="LWAVE"> F  </i>
   <i type="logical" name="LDOWNSAMPLE"> F  </i>
   <i type="logical" name="LCHARG"> F  </i>
   <i type="logical" name="LPARD"> F  </i>
   <i type="logical" name="LVTOT"> F  </i>
   <i type="logical" name="LVHAR"> F  </i>
   <i type="logical" name="LELF"> F  </i>
   <i type="logical" name="LOPTICS"> F  </i>
   <v name="STM">      0.00000000      0.00000000      0.00000000      0.00000000      0.00000000      0.00000000      0.00000000</v>
  </separator>
  <separator name="performance" >
   <i type="int" name="NPAR">    14</i>
   <i type="int" name="NSIM">     4</i>
   <i type="int" name="NBLK">    -1</i>
   <i type="logical" name="LPLANE"> T  </i>
   <i type="logical" name="LSCALAPACK"> T  </i>
   <i type="logical" name="LSCAAWARE"> T  </i>
   <i type="logical" name="LSCALU"> F  </i>
   <i type="logical" name="LASYNC"> F  </i>
   <i type="logical" name="LORBITALREAL"> F  </i>
  </separator>
  <separator name="miscellaneous" >
   <i type="int" name="IDIOT">     3</i>
   <i type="int" name="ISPECIAL">     0</i>
   <i type="logical" name="LMUSIC"> F  </i>
   <v name="POMASS">     55.84700000     54.93800000</v>
   <v name="DARWINR">      0.00000000      0.00000000</v>
   <v name="DARWINV">      1.00000000      1.00000000</v>
   <i type="logical" name="LCORR"> T  </i>
  </separator>
  <i type="logical" name="GGA_COMPAT"> T  </i>
  <i type="logical" name="LBERRY"> F  </i>
  <i type="int" name="ICORELEVEL">     0</i>
  <i type="logical" name="LDAU"> F  </i>
  <i type="int" name="I_CONSTRAINED_M">     0</i>
  <separator name="electronic exchange-correlation" >
   <i type="string" name="GGA">--</i>
   <i type="int" name="VOSKOWN">     0</i>
   <i type="logical" name="LHFCALC"> F  </i>
   <i type="string" name="PRECFOCK"></i>
   <i type="logical" name="LSYMGRAD"> F  </i>
   <i type="logical" name="LHFONE"> F  </i>
   <i type="logical" name="LRHFCALC"> F  </i>
   <i type="logical" name="LTHOMAS"> F  </i>
   <i type="logical" name="LMODELHF"> F  </i>
   <i name="ENCUT4O">     -1.00000000</i>
   <i type="int" name="EXXOEP">     0</i>
   <i type="int" name="FOURORBIT">     0</i>
   <i name="AEXX">      0.00000000</i>
   <i name="HFALPHA">      0.00000000</i>
   <i name="MCALPHA">      0.00000000</i>
   <i name="ALDAX">      1.00000000</i>
   <i name="AGGAX">      1.00000000</i>
   <i name="ALDAC">      1.00000000</i>
   <i name="AGGAC">      1.00000000</i>
   <i type="int" name="NKREDX">     1</i>
   <i type="int" name="NKREDY">     1</i>
   <i type="int" name="NKREDZ">     1</i>
   <i type="logical" name="SHIFTRED"> F  </i>
   <i type="logical" name="ODDONLY"> F  </i>
   <i type="logical" name="EVENONLY"> F  </i>
   <i type="int" name="LMAXFOCK">     0</i>
   <i type="int" name="NMAXFOCKAE">     0</i>
   <i type="logical" name="LFOCKAEDFT"> F  </i>
   <i name="HFSCREEN">      0.00000000</i>
   <i name="HFSCREENC">      0.00000000</i>
   <i type="int" name="NBANDSGWLOW">     0</i>
  </separator>
  <separator name="vdW DFT" >
   <i type="logical" name="LUSE_VDW"> F  </i>
   <i name="Zab_VDW">     -0.84910000</i>
   <i name="PARAM1">      0.12340000</i>
   <i name="PARAM2">      1.00000000</i>
   <i name="PARAM3">      0.00000000</i>
  </separator>
  <separator name="model GW" >
   <i type="int" name="MODEL_GW">     0</i>
   <i name="MODEL_EPS0">      7.68123389</i>
   <i name="MODEL_ALPHA">      1.00000000</i>
  </separator>
  <separator name="linear response parameters" >
   <i type="logical" name="LEPSILON"> F  </i>
   <i type="logical" name="LRPA"> F  </i>
   <i type="logical" name="LNABLA"> F  </i>
   <i type="logical" name="LVEL"> F  </i>
   <i type="int" name="KINTER">     0</i>
   <i name="CSHIFT">      0.10000000</i>
   <i name="OMEGAMAX">     -1.00000000</i>
   <i name="DEG_THRESHOLD">      0.00200000</i>
   <i name="RTIME">     -0.10000000</i>
   <i name="WPLASMAI">      0.00000000</i>
   <v name="DFIELD">      0.00000000      0.00000000      0.00000000</v>
   <v name="WPLASMA">      0.00000000      0.00000000      0.00000000      0.00000000      0.00000000      0.00000000      0.00000000      0.00000000      0.00000000</v>
  </separator>
  <separator name="orbital magnetization" >
   <i type="logical" name="NUCIND"> F  </i>
   <v name="MAGPOS">      0.00000000      0.00000000      0.00000000</v>
   <i type="logical" name="LNICSALL"> T  </i>
   <i type="logical" name="ORBITALMAG"> F  </i>
   <i type="logical" name="LMAGBLOCH"> F  </i>
   <i type="logical" name="LCHIMAG"> F  </i>
   <i type="logical" name="LGAUGE"> T  </i>
   <i type="int" name="MAGATOM">     0</i>
   <v name="MAGDIPOL">      0.00000000      0.00000000      0.00000000</v>
   <v name="AVECCONST">      0.00000000      0.00000000      0.00000000</v>
  </separator>
  <separator name="response functions" >
   <i type="logical" name="LADDER"> F  </i>
   <i type="logical" name="LRPAFORCE"> F  </i>
   <i type="logical" name="LFXC"> F  </i>
   <i type="logical" name="LHARTREE"> T  </i>
   <i type="int" name="IBSE">     0</i>
   <v type="int" name="KPOINT">    -1     0     0     0</v>
   <i type="logical" name="LTCTE"> F  </i>
   <i type="logical" name="LTETE"> F  </i>
   <i type="logical" name="LTRIPLET"> F  </i>
   <i type="logical" name="LFXCEPS"> F  </i>
   <i type="logical" name="LFXHEG"> F  </i>
   <i type="int" name="NATURALO">     2</i>
   <i type="logical" name="L2ORDER"> F  </i>
   <i type="logical" name="LMP2LT"> F  </i>
   <i type="logical" name="LUSEW"> F  </i>
   <i name="ENCUTGW">     -2.00000000</i>
   <i name="ENCUTGWSOFT">     -2.00000000</i>
   <i name="ENCUTLF">     -1.00000000</i>
   <i type="int" name="LMAXMP2">    -1</i>
   <i name="SCISSOR">      0.00000000</i>
   <i type="int" name="NOMEGA">     0</i>
   <i type="int" name="NOMEGAR">     0</i>
   <i type="int" name="NBANDSGW">    -1</i>
   <i type="int" name="NBANDSO">    -1</i>
   <i type="int" name="NBANDSV">    -1</i>
   <i type="int" name="NELM">   100</i>
   <i type="int" name="NELMHF">     1</i>
   <i type="int" name="DIM">     3</i>
   <i type="int" name="ANTIRES">     0</i>
   <i name="OMEGAMAX">    -30.00000000</i>
   <i name="OMEGAMIN">    -30.00000000</i>
   <i name="OMEGATL">   -200.00000000</i>
   <i type="int" name="OMEGAGRID">   140</i>
   <i name="CSHIFT">     -0.10000000</i>
   <i type="logical" name="SELFENERGY"> F  </i>
   <i type="logical" name="LSPECTRAL"> F  </i>
   <i type="logical" name="LSPECTRALGW"> F  </i>
   <i type="logical" name="LSINGLES"> F  </i>
   <i type="logical" name="LFERMIGW"> F  </i>
   <i type="logical" name="ODDONLYGW"> F  </i>
   <i type="logical" name="EVENONLYGW"> F  </i>
   <i type="int" name="NKREDLFX">     1</i>
   <i type="int" name="NKREDLFY">     1</i>
   <i type="int" name="NKREDLFZ">     1</i>
   <i type="int" name="MAXMEM">  2800</i>
   <i type="int" name="TELESCOPE">     0</i>
   <i type="int" name="TAUPAR">     1</i>
   <i type="int" name="OMEGAPAR">    -1</i>
   <i name="LAMBDA">      1.00000000</i>
  </separator>
  <separator name="External order field" >
   <i name="OFIELD_KAPPA">      0.00000000</i>
   <v name="OFIELD_K">      0.00000000      0.00000000      0.00000000</v>
   <i name="OFIELD_Q6_NEAR">      0.00000000</i>
   <i name="OFIELD_Q6_FAR">      0.00000000</i>
   <i name="OFIELD_A">      0.00000000</i>
  </separator>
 </parameters>
 <atominfo>
  <atoms>     288 </atoms>
  <types>       2 </types>
  <array name="atoms" >
   <dimension dim="1">ion</dimension>
   <field type="string">element</field>
   <field type="int">atomtype</field>
   <set>
    <rc><c>Fe</c><c>   1</c></rc>
    <rc><c>Fe</c><c>   1</c></rc>
    <rc><c>Fe</c><c>   1</c></rc>
    <rc><c>Fe</c><c>   1</c></rc>
    <rc><c>Fe</c><c>   1</c></rc>
    <rc><c>Fe</c><c>   1</c></rc>
    <rc><c>Fe</c><c>   1</c></rc>
    <rc><c>Fe</c><c>   1</c></rc>
    <rc><c>Fe</c><c>   1</c></rc>
    <rc><c>Fe</c><c>   1</c></rc>
    <rc><c>Fe</c><c>   1</c></rc>
    <rc><c>Fe</c><c>   1</c></rc>
    <rc><c>Fe</c><c>   1</c></rc>
    <rc><c>Fe</c><c>   1</c></rc>
    <rc><c>Fe</c><c>   1</c></rc>
    <rc><c>Fe</c><c>   1</c></rc>
    <rc><c>Fe</c><c>   1</c></rc>
    <rc><c>Fe</c><c>   1</c></rc>
    <rc><c>Fe</c><c>   1</c></rc>
    <rc><c>Fe</c><c>   1</c></rc>
    <rc><c>Fe</c><c>   1</c></rc>
    <rc><c>Fe</c><c>   1</c></rc>
    <rc><c>Fe</c><c>   1</c></rc>
    <rc><c>Fe</c><c>   1</c></rc>
    <rc><c>Fe</c><c>   1</c></rc>
    <rc><c>Fe</c><c>   1</c></rc>
    <rc><c>Fe</c><c>   1</c></rc>
    <rc><c>Fe</c><c>   1</c></rc>
    <rc><c>Fe</c><c>   1</c></rc>
    <rc><c>Fe</c><c>   1</c></rc>
    <rc><c>Fe</c><c>   1</c></rc>
    <rc><c>Fe</c><c>   1</c></rc>
    <rc><c>Fe</c><c>   1</c></rc>
    <rc><c>Fe</c><c>   1</c></rc>
    <rc><c>Fe</c><c>   1</c></rc>
    <rc><c>Fe</c><c>   1</c></rc>
    <rc><c>Fe</c><c>   1</c></rc>
    <rc><c>Fe</c><c>   1</c></rc>
    <rc><c>Fe</c><c>   1</c></rc>
    <rc><c>Fe</c><c>   1</c></rc>
    <rc><c>Fe</c><c>   1</c></rc>
    <rc><c>Fe</c><c>   1</c></rc>
    <rc><c>Fe</c><c>   1</c></rc>
    <rc><c>Fe</c><c>   1</c></rc>
    <rc><c>Fe</c><c>   1</c></rc>
    <rc><c>Fe</c><c>   1</c></rc>
    <rc><c>Fe</c><c>   1</c></rc>
    <rc><c>Fe</c><c>   1</c></rc>
    <rc><c>Fe</c><c>   1</c></rc>
    <rc><c>Fe</c><c>   1</c></rc>
    <rc><c>Fe</c><c>   1</c></rc>
    <rc><c>Fe</c><c>   1</c></rc>
    <rc><c>Fe</c><c>   1</c></rc>
    <rc><c>Fe</c><c>   1</c></rc>
    <rc><c>Fe</c><c>   1</c></rc>
    <rc><c>Fe</c><c>   1</c></rc>
    <rc><c>Fe</c><c>   1</c></rc>
    <rc><c>Fe</c><c>   1</c></rc>
    <rc><c>Fe</c><c>   1</c></rc>
    <rc><c>Fe</c><c>   1</c></rc>
    <rc><c>Fe</c><c>   1</c></rc>
    <rc><c>Fe</c><c>   1</c></rc>
    <rc><c>Fe</c><c>   1</c></rc>
    <rc><c>Fe</c><c>   1</c></rc>
    <rc><c>Fe</c><c>   1</c></rc>
    <rc><c>Fe</c><c>   1</c></rc>
    <rc><c>Fe</c><c>   1</c></rc>
    <rc><c>Fe</c><c>   1</c></rc>
    <rc><c>Fe</c><c>   1</c></rc>
    <rc><c>Fe</c><c>   1</c></rc>
    <rc><c>Fe</c><c>   1</c></rc>
    <rc><c>Fe</c><c>   1</c></rc>
    <rc><c>Fe</c><c>   1</c></rc>
    <rc><c>Fe</c><c>   1</c></rc>
    <rc><c>Fe</c><c>   1</c></rc>
    <rc><c>Fe</c><c>   1</c></rc>
    <rc><c>Fe</c><c>   1</c></rc>
    <rc><c>Fe</c><c>   1</c></rc>
    <rc><c>Fe</c><c>   1</c></rc>
    <rc><c>Fe</c><c>   1</c></rc>
    <rc><c>Fe</c><c>   1</c></rc>
    <rc><c>Fe</c><c>   1</c></rc>
    <rc><c>Fe</c><c>   1</c></rc>
    <rc><c>Fe</c><c>   1</c></rc>
    <rc><c>Fe</c><c>   1</c></rc>
    <rc><c>Fe</c><c>   1</c></rc>
    <rc><c>Fe</c><c>   1</c></rc>
    <rc><c>Fe</c><c>   1</c></rc>
    <rc><c>Fe</c><c>   1</c></rc>
    <rc><c>Fe</c><c>   1</c></rc>
    <rc><c>Fe</c><c>   1</c></rc>
    <rc><c>Fe</c><c>   1</c></rc>
    <rc><c>Fe</c><c>   1</c></rc>
    <rc><c>Fe</c><c>   1</c></rc>
    <rc><c>Fe</c><c>   1</c></rc>
    <rc><c>Fe</c><c>   1</c></rc>
    <rc><c>Fe</c><c>   1</c></rc>
    <rc><c>Fe</c><c>   1</c></rc>
    <rc><c>Fe</c><c>   1</c></rc>
    <rc><c>Fe</c><c>   1</c></rc>
    <rc><c>Fe</c><c>   1</c></rc>
    <rc><c>Fe</c><c>   1</c></rc>
    <rc><c>Fe</c><c>   1</c></rc>
    <rc><c>Fe</c><c>   1</c></rc>
    <rc><c>Fe</c><c>   1</c></rc>
    <rc><c>Fe</c><c>   1</c></rc>
    <rc><c>Fe</c><c>   1</c></rc>
    <rc><c>Fe</c><c>   1</c></rc>
    <rc><c>Fe</c><c>   1</c></rc>
    <rc><c>Fe</c><c>   1</c></rc>
    <rc><c>Fe</c><c>   1</c></rc>
    <rc><c>Fe</c><c>   1</c></rc>
    <rc><c>Fe</c><c>   1</c></rc>
    <rc><c>Fe</c><c>   1</c></rc>
    <rc><c>Fe</c><c>   1</c></rc>
    <rc><c>Fe</c><c>   1</c></rc>
    <rc><c>Fe</c><c>   1</c></rc>
    <rc><c>Fe</c><c>   1</c></rc>
    <rc><c>Fe</c><c>   1</c></rc>
    <rc><c>Fe</c><c>   1</c></rc>
    <rc><c>Fe</c><c>   1</c></rc>
    <rc><c>Fe</c><c>   1</c></rc>
    <rc><c>Fe</c><c>   1</c></rc>
    <rc><c>Fe</c><c>   1</c></rc>
    <rc><c>Fe</c><c>   1</c></rc>
    <rc><c>Fe</c><c>   1</c></rc>
    <rc><c>Fe</c><c>   1</c></rc>
    <rc><c>Fe</c><c>   1</c></rc>
    <rc><c>Fe</c><c>   1</c></rc>
    <rc><c>Fe</c><c>   1</c></rc>
    <rc><c>Fe</c><c>   1</c></rc>
    <rc><c>Fe</c><c>   1</c></rc>
    <rc><c>Fe</c><c>   1</c></rc>
    <rc><c>Fe</c><c>   1</c></rc>
    <rc><c>Fe</c><c>   1</c></rc>
    <rc><c>Fe</c><c>   1</c></rc>
    <rc><c>Fe</c><c>   1</c></rc>
    <rc><c>Fe</c><c>   1</c></rc>
    <rc><c>Fe</c><c>   1</c></rc>
    <rc><c>Fe</c><c>   1</c></rc>
    <rc><c>Fe</c><c>   1</c></rc>
    <rc><c>Fe</c><c>   1</c></rc>
    <rc><c>Fe</c><c>   1</c></rc>
    <rc><c>Fe</c><c>   1</c></rc>
    <rc><c>Fe</c><c>   1</c></rc>
    <rc><c>Fe</c><c>   1</c></rc>
    <rc><c>Fe</c><c>   1</c></rc>
    <rc><c>Fe</c><c>   1</c></rc>
    <rc><c>Fe</c><c>   1</c></rc>
    <rc><c>Fe</c><c>   1</c></rc>
    <rc><c>Fe</c><c>   1</c></rc>
    <rc><c>Fe</c><c>   1</c></rc>
    <rc><c>Fe</c><c>   1</c></rc>
    <rc><c>Fe</c><c>   1</c></rc>
    <rc><c>Fe</c><c>   1</c></rc>
    <rc><c>Fe</c><c>   1</c></rc>
    <rc><c>Fe</c><c>   1</c></rc>
    <rc><c>Fe</c><c>   1</c></rc>
    <rc><c>Fe</c><c>   1</c></rc>
    <rc><c>Fe</c><c>   1</c></rc>
    <rc><c>Fe</c><c>   1</c></rc>
    <rc><c>Fe</c><c>   1</c></rc>
    <rc><c>Fe</c><c>   1</c></rc>
    <rc><c>Fe</c><c>   1</c></rc>
    <rc><c>Fe</c><c>   1</c></rc>
    <rc><c>Fe</c><c>   1</c></rc>
    <rc><c>Fe</c><c>   1</c></rc>
    <rc><c>Fe</c><c>   1</c></rc>
    <rc><c>Fe</c><c>   1</c></rc>
    <rc><c>Fe</c><c>   1</c></rc>
    <rc><c>Fe</c><c>   1</c></rc>
    <rc><c>Fe</c><c>   1</c></rc>
    <rc><c>Fe</c><c>   1</c></rc>
    <rc><c>Fe</c><c>   1</c></rc>
    <rc><c>Fe</c><c>   1</c></rc>
    <rc><c>Fe</c><c>   1</c></rc>
    <rc><c>Fe</c><c>   1</c></rc>
    <rc><c>Fe</c><c>   1</c></rc>
    <rc><c>Fe</c><c>   1</c></rc>
    <rc><c>Fe</c><c>   1</c></rc>
    <rc><c>Fe</c><c>   1</c></rc>
    <rc><c>Fe</c><c>   1</c></rc>
    <rc><c>Fe</c><c>   1</c></rc>
    <rc><c>Fe</c><c>   1</c></rc>
    <rc><c>Fe</c><c>   1</c></rc>
    <rc><c>Fe</c><c>   1</c></rc>
    <rc><c>Fe</c><c>   1</c></rc>
    <rc><c>Fe</c><c>   1</c></rc>
    <rc><c>Fe</c><c>   1</c></rc>
    <rc><c>Fe</c><c>   1</c></rc>
    <rc><c>Fe</c><c>   1</c></rc>
    <rc><c>Fe</c><c>   1</c></rc>
    <rc><c>Fe</c><c>   1</c></rc>
    <rc><c>Fe</c><c>   1</c></rc>
    <rc><c>Fe</c><c>   1</c></rc>
    <rc><c>Fe</c><c>   1</c></rc>
    <rc><c>Fe</c><c>   1</c></rc>
    <rc><c>Fe</c><c>   1</c></rc>
    <rc><c>Fe</c><c>   1</c></rc>
    <rc><c>Fe</c><c>   1</c></rc>
    <rc><c>Fe</c><c>   1</c></rc>
    <rc><c>Fe</c><c>   1</c></rc>
    <rc><c>Fe</c><c>   1</c></rc>
    <rc><c>Fe</c><c>   1</c></rc>
    <rc><c>Fe</c><c>   1</c></rc>
    <rc><c>Fe</c><c>   1</c></rc>
    <rc><c>Fe</c><c>   1</c></rc>
    <rc><c>Fe</c><c>   1</c></rc>
    <rc><c>Fe</c><c>   1</c></rc>
    <rc><c>Fe</c><c>   1</c></rc>
    <rc><c>Fe</c><c>   1</c></rc>
    <rc><c>Fe</c><c>   1</c></rc>
    <rc><c>Fe</c><c>   1</c></rc>
    <rc><c>Fe</c><c>   1</c></rc>
    <rc><c>Fe</c><c>   1</c></rc>
    <rc><c>Fe</c><c>   1</c></rc>
    <rc><c>Fe</c><c>   1</c></rc>
    <rc><c>Fe</c><c>   1</c></rc>
    <rc><c>Fe</c><c>   1</c></rc>
    <rc><c>Fe</c><c>   1</c></rc>
    <rc><c>Fe</c><c>   1</c></rc>
    <rc><c>Fe</c><c>   1</c></rc>
    <rc><c>Fe</c><c>   1</c></rc>
    <rc><c>Fe</c><c>   1</c></rc>
    <rc><c>Fe</c><c>   1</c></rc>
    <rc><c>Fe</c><c>   1</c></rc>
    <rc><c>Fe</c><c>   1</c></rc>
    <rc><c>Fe</c><c>   1</c></rc>
    <rc><c>Fe</c><c>   1</c></rc>
    <rc><c>Fe</c><c>   1</c></rc>
    <rc><c>Fe</c><c>   1</c></rc>
    <rc><c>Fe</c><c>   1</c></rc>
    <rc><c>Fe</c><c>   1</c></rc>
    <rc><c>Fe</c><c>   1</c></rc>
    <rc><c>Fe</c><c>   1</c></rc>
    <rc><c>Fe</c><c>   1</c></rc>
    <rc><c>Fe</c><c>   1</c></rc>
    <rc><c>Fe</c><c>   1</c></rc>
    <rc><c>Fe</c><c>   1</c></rc>
    <rc><c>Fe</c><c>   1</c></rc>
    <rc><c>Fe</c><c>   1</c></rc>
    <rc><c>Fe</c><c>   1</c></rc>
    <rc><c>Fe</c><c>   1</c></rc>
    <rc><c>Fe</c><c>   1</c></rc>
    <rc><c>Fe</c><c>   1</c></rc>
    <rc><c>Fe</c><c>   1</c></rc>
    <rc><c>Fe</c><c>   1</c></rc>
    <rc><c>Fe</c><c>   1</c></rc>
    <rc><c>Fe</c><c>   1</c></rc>
    <rc><c>Fe</c><c>   1</c></rc>
    <rc><c>Fe</c><c>   1</c></rc>
    <rc><c>Fe</c><c>   1</c></rc>
    <rc><c>Fe</c><c>   1</c></rc>
    <rc><c>Fe</c><c>   1</c></rc>
    <rc><c>Fe</c><c>   1</c></rc>
    <rc><c>Fe</c><c>   1</c></rc>
    <rc><c>Fe</c><c>   1</c></rc>
    <rc><c>Fe</c><c>   1</c></rc>
    <rc><c>Fe</c><c>   1</c></rc>
    <rc><c>Fe</c><c>   1</c></rc>
    <rc><c>Fe</c><c>   1</c></rc>
    <rc><c>Fe</c><c>   1</c></rc>
    <rc><c>Fe</c><c>   1</c></rc>
    <rc><c>Fe</c><c>   1</c></rc>
    <rc><c>Fe</c><c>   1</c></rc>
    <rc><c>Fe</c><c>   1</c></rc>
    <rc><c>Fe</c><c>   1</c></rc>
    <rc><c>Fe</c><c>   1</c></rc>
    <rc><c>Fe</c><c>   1</c></rc>
    <rc><c>Fe</c><c>   1</c></rc>
    <rc><c>Fe</c><c>   1</c></rc>
    <rc><c>Fe</c><c>   1</c></rc>
    <rc><c>Fe</c><c>   1</c></rc>
    <rc><c>Fe</c><c>   1</c></rc>
    <rc><c>Mn</c><c>   2</c></rc>
    <rc><c>Mn</c><c>   2</c></rc>
    <rc><c>Mn</c><c>   2</c></rc>
    <rc><c>Mn</c><c>   2</c></rc>
    <rc><c>Mn</c><c>   2</c></rc>
    <rc><c>Mn</c><c>   2</c></rc>
    <rc><c>Mn</c><c>   2</c></rc>
    <rc><c>Mn</c><c>   2</c></rc>
    <rc><c>Mn</c><c>   2</c></rc>
    <rc><c>Mn</c><c>   2</c></rc>
    <rc><c>Mn</c><c>   2</c></rc>
    <rc><c>Mn</c><c>   2</c></rc>
    <rc><c>Mn</c><c>   2</c></rc>
    <rc><c>Mn</c><c>   2</c></rc>
   </set>
  </array>
  <array name="atomtypes" >
   <dimension dim="1">type</dimension>
   <field type="int">atomspertype</field>
   <field type="string">element</field>
   <field>mass</field>
   <field>valence</field>
   <field type="string">pseudopotential</field>
   <set>
    <rc><c> 274</c><c>Fe</c><c>     55.84700000</c><c>      8.00000000</c><c>  PAW_PBE Fe_GW 31Mar2010               </c></rc>
    <rc><c>  14</c><c>Mn</c><c>     54.93800000</c><c>      7.00000000</c><c>  PAW_PBE Mn_GW 31Mar2010               </c></rc>
   </set>
  </array>
 </atominfo>
 <structure name="initialpos" >
  <crystal>
   <varray name="basis" >
    <v>       9.72667804       0.00000000       0.00000000 </v>
    <v>       0.00000000       8.42355028       0.00000000 </v>
    <v>       0.00000000       0.00000000      45.00000000 </v>
   </varray>
   <i name="volume">   3686.99226691 </i>
   <varray name="rec_basis" >
    <v>       0.10281002       0.00000000       0.00000000 </v>
    <v>       0.00000000       0.11871479       0.00000000 </v>
    <v>       0.00000000       0.00000000       0.02222222 </v>
   </varray>
  </crystal>
  <varray name="positions" >
   <v>       0.06324028       0.02848157       0.12408208 </v>
   <v>       0.31639319       0.87488741       0.65498856 </v>
   <v>       0.18364256       0.12423374       0.78877956 </v>
   <v>       0.44155177       0.28758288       0.38916418 </v>
   <v>       0.31805554       0.71369041       0.83321181 </v>
   <v>       0.81769765       0.21496028       0.83371298 </v>
   <v>       0.19192052       0.96389694       0.83362399 </v>
   <v>       0.56208204       0.20702706       0.56552480 </v>
   <v>       0.06541353       0.04013689       0.74417727 </v>
   <v>       0.81165759       0.87146199       0.52140557 </v>
   <v>       0.19028989       0.29125003       0.74434227 </v>
   <v>       0.93349747       0.45227907       0.34484035 </v>
   <v>       0.94098750       0.28651970       0.38891372 </v>
   <v>       0.81231924       0.04088968       0.87572337 </v>
   <v>       0.18349493       0.78793182       0.61085651 </v>
   <v>       0.56643174       0.03778825       0.38905409 </v>
   <v>       0.94249380       0.96519867       0.83394863 </v>
   <v>       0.31365941       0.54116772       0.87615416 </v>
   <v>       0.68978513       0.29131947       0.74423103 </v>
   <v>       0.18197819       0.61356249       0.16665080 </v>
   <v>       0.81214480       0.20586979       0.47867640 </v>
   <v>       0.80893701       0.53822091       0.61103897 </v>
   <v>       0.31186228       0.87047953       0.43451258 </v>
   <v>       0.80972207       0.03839952       0.25585886 </v>
   <v>       0.68287256       0.95201305       0.34470742 </v>
   <v>       0.93098853       0.11367766       0.16684815 </v>
   <v>       0.06194444       0.87175262       0.52139510 </v>
   <v>       0.55772997       0.53799396       0.25564606 </v>
   <v>       0.68424799       0.79777505       0.87594426 </v>
   <v>       0.55715462       0.36399554       0.16655731 </v>
   <v>       0.43952681       0.79200697       0.74440064 </v>
   <v>       0.81114391       0.70653734       0.56546833 </v>
   <v>       0.55905706       0.87341694       0.78842658 </v>
   <v>       0.68673705       0.12186577       0.52139916 </v>
   <v>       0.81642776       0.37476169       0.65492339 </v>
   <v>       0.94240209       0.46406215       0.83399877 </v>
   <v>       0.06009495       0.20819448       0.69970656 </v>
   <v>       0.43539933       0.95774104       0.69971407 </v>
   <v>       0.31685558       0.21274441       0.83347438 </v>
   <v>       0.44124426       0.62486765       0.65499489 </v>
   <v>       0.30879051       0.53839461       0.61101587 </v>
   <v>       0.93649912       0.45649202       0.56558934 </v>
   <v>       0.68999480       0.79183039       0.74418168 </v>
   <v>       0.93631802       0.78888913       0.12431801 </v>
   <v>       0.69152340       0.78779523       0.38901962 </v>
   <v>       0.30657315       0.86316604       0.16680270 </v>
   <v>       0.05870161       0.20274726       0.34494876 </v>
   <v>       0.68379484       0.45233129       0.34498268 </v>
   <v>       0.43393898       0.12364834       0.78908704 </v>
   <v>       0.06547501       0.20571531       0.21117935 </v>
   <v>       0.05554536       0.36532706       0.16666667 </v>
   <v>       0.93356959       0.78695003       0.25544734 </v>
   <v>       0.56047750       0.20738396       0.69980369 </v>
   <v>       0.68557555       0.95741066       0.69974504 </v>
   <v>       0.80858374       0.87315717       0.78840789 </v>
   <v>       0.43670413       0.95679543       0.56539038 </v>
   <v>       0.80872408       0.37460760       0.78843838 </v>
   <v>       0.68365559       0.28727574       0.25591757 </v>
   <v>       0.18718838       0.45699598       0.56550551 </v>
   <v>       0.05602870       0.86495729       0.16675350 </v>
   <v>       0.18418630       0.28846892       0.61104561 </v>
   <v>       0.06219497       0.20718300       0.56537708 </v>
   <v>       0.31012834       0.20731037       0.69987740 </v>
   <v>       0.56232963       0.54082845       0.87597534 </v>
   <v>       0.06172804       0.70648052       0.56553055 </v>
   <v>       0.68316251       0.62382791       0.78869865 </v>
   <v>       0.31591494       0.53835924       0.38891241 </v>
   <v>       0.18685367       0.62148841       0.52145902 </v>
   <v>       0.56237212       0.87053943       0.43441957 </v>
   <v>       0.43659125       0.45697732       0.56552604 </v>
   <v>       0.43945716       0.29219870       0.74413483 </v>
   <v>       0.82102091       0.87325224       0.30022596 </v>
   <v>       0.80856774       0.70258455       0.34492205 </v>
   <v>       0.44250740       0.46327049       0.83331664 </v>
   <v>       0.68745073       0.95587223       0.47868484 </v>
   <v>       0.68509856       0.45773270       0.69970762 </v>
   <v>       0.56200868       0.87217745       0.52146922 </v>
   <v>       0.56629629       0.37490019       0.65490902 </v>
   <v>       0.81610316       0.87501241       0.65499797 </v>
   <v>       0.81169842       0.37132367       0.43423734 </v>
   <v>       0.80865504       0.53717142       0.25578580 </v>
   <v>       0.69216575       0.46216791       0.83332990 </v>
   <v>       0.18663656       0.78779522       0.12415886 </v>
   <v>       0.69149283       0.28732736       0.38904542 </v>
   <v>       0.31613429       0.37419729       0.65501157 </v>
   <v>       0.30885684       0.20264932       0.34468479 </v>
   <v>       0.81563708       0.54023464       0.74414017 </v>
   <v>       0.69153909       0.96244407       0.83352306 </v>
   <v>       0.56623236       0.87517121       0.65498985 </v>
   <v>       0.31126095       0.70698203       0.56552735 </v>
   <v>       0.31152324       0.52997884       0.12403892 </v>
   <v>       0.69010258       0.95456833       0.21176320 </v>
   <v>       0.31135108       0.20654093       0.56551976 </v>
   <v>       0.18730729       0.95592485       0.47867333 </v>
   <v>       0.68722976       0.95692520       0.56552029 </v>
   <v>       0.43388520       0.78816017       0.61093084 </v>
   <v>       0.68199723       0.61156469       0.16613507 </v>
   <v>       0.31953997       0.87338828       0.30004228 </v>
   <v>       0.31225441       0.70585404       0.47865804 </v>
   <v>       0.93376878       0.28785928       0.61096757 </v>
   <v>       0.44601837       0.62328445       0.30010407 </v>
   <v>       0.80755805       0.86316919       0.16675974 </v>
   <v>       0.56648680       0.20324492       0.21138271 </v>
   <v>       0.93235276       0.61287738       0.16667814 </v>
   <v>       0.43719379       0.95574623       0.47866327 </v>
   <v>       0.55878555       0.37304474       0.78876444 </v>
   <v>       0.06136739       0.37236929       0.52141693 </v>
   <v>       0.30701394       0.36382385       0.16667777 </v>
   <v>       0.69544928       0.12308841       0.30030409 </v>
   <v>       0.44254653       0.96320944       0.83331909 </v>
   <v>       0.18613519       0.28596930       0.12413808 </v>
   <v>       0.18379261       0.28721771       0.25589004 </v>
   <v>       0.31245479       0.37062096       0.43446927 </v>
   <v>       0.56261810       0.03237095       0.12436533 </v>
   <v>       0.43390868       0.28806683       0.61091226 </v>
   <v>       0.18361431       0.45281293       0.34489777 </v>
   <v>       0.43375879       0.28583133       0.12407789 </v>
   <v>       0.68343813       0.78799130       0.25581582 </v>
   <v>       0.43684233       0.12172910       0.52150206 </v>
   <v>       0.18854291       0.29697908       0.87625805 </v>
   <v>       0.19112891       0.12512334       0.65510987 </v>
   <v>       0.94134371       0.12479217       0.65491004 </v>
   <v>       0.81620404       0.53761165       0.38905604 </v>
   <v>       0.06666340       0.03814902       0.38912836 </v>
   <v>       0.18285338       0.11271633       0.16662752 </v>
   <v>       0.05876583       0.53787643       0.61095794 </v>
   <v>       0.93370260       0.28749818       0.25583159 </v>
   <v>       0.55885759       0.53846606       0.61100817 </v>
   <v>       0.93654753       0.95731305       0.56553188 </v>
   <v>       0.69488773       0.62400945       0.30016338 </v>
   <v>       0.93732957       0.62035382       0.43443943 </v>
   <v>       0.93258826       0.62567172       0.78823831 </v>
   <v>       0.56036306       0.70702887       0.69976283 </v>
   <v>       0.06585246       0.71701871       0.83406468 </v>
   <v>       0.94560149       0.12283564       0.30010788 </v>
   <v>       0.93352384       0.78760488       0.61090030 </v>
   <v>       0.43324866       0.78733599       0.25561244 </v>
   <v>       0.30865379       0.37376035       0.78882321 </v>
   <v>       0.44081105       0.45335807       0.21124885 </v>
   <v>       0.18695276       0.12194695       0.52136594 </v>
   <v>       0.81014310       0.70798777       0.69963786 </v>
   <v>       0.05895004       0.03799223       0.61087753 </v>
   <v>       0.56605418       0.21364118       0.83320761 </v>
   <v>       0.31176534       0.87196058       0.52141445 </v>
   <v>       0.68587391       0.28640920       0.12394836 </v>
   <v>       0.19104488       0.95489660       0.21166622 </v>
   <v>       0.68386670       0.28852279       0.61102154 </v>
   <v>       0.30894812       0.03841310       0.61100954 </v>
   <v>       0.93406712       0.12475519       0.78854855 </v>
   <v>       0.43631789       0.79789169       0.87625363 </v>
   <v>       0.81581618       0.03994991       0.74425936 </v>
   <v>       0.93525397       0.45809110       0.69970312 </v>
   <v>       0.19123590       0.62489245       0.65500517 </v>
   <v>       0.31022351       0.70697003       0.69975517 </v>
   <v>       0.93567761       0.28682996       0.12403759 </v>
   <v>       0.43745058       0.45587172       0.47859786 </v>
   <v>       0.06228828       0.70589178       0.47856155 </v>
   <v>       0.93681828       0.11923361       0.43462951 </v>
   <v>       0.44472264       0.12300155       0.30040621 </v>
   <v>       0.18699953       0.12047463       0.43427520 </v>
   <v>       0.56286147       0.04063384       0.87603671 </v>
   <v>       0.18678962       0.95711168       0.56551668 </v>
   <v>       0.68394550       0.78796887       0.12433656 </v>
   <v>       0.55884747       0.70200518       0.34488237 </v>
   <v>       0.31611877       0.03717079       0.38880142 </v>
   <v>       0.68203091       0.11321586       0.16674159 </v>
   <v>       0.81641998       0.20314822       0.21125053 </v>
   <v>       0.05872798       0.53721539       0.25582896 </v>
   <v>       0.56236268       0.70562232       0.47866952 </v>
   <v>       0.43578406       0.78688931       0.12418312 </v>
   <v>       0.56987248       0.37178606       0.30014296 </v>
   <v>       0.43355201       0.95246113       0.34491873 </v>
   <v>       0.18537481       0.95733183       0.69982320 </v>
   <v>       0.43249966       0.61259075       0.16614989 </v>
   <v>       0.94067767       0.45392400       0.21159861 </v>
   <v>       0.06312148       0.52958106       0.12392664 </v>
   <v>       0.81180581       0.37223085       0.52139653 </v>
   <v>       0.94479621       0.62314592       0.29992981 </v>
   <v>       0.30939550       0.03743599       0.25551073 </v>
   <v>       0.68374820       0.78796441       0.61090454 </v>
   <v>       0.19169512       0.46361838       0.83351632 </v>
   <v>       0.43250437       0.11286208       0.16659842 </v>
   <v>       0.31161769       0.37200329       0.52140166 </v>
   <v>       0.43300287       0.62373012       0.78896379 </v>
   <v>       0.05873099       0.03710133       0.25574384 </v>
   <v>       0.56215366       0.70700106       0.56551579 </v>
   <v>       0.93897463       0.29087870       0.74451620 </v>
   <v>       0.68222337       0.12370226       0.78864378 </v>
   <v>       0.18959437       0.45388354       0.21121584 </v>
   <v>       0.94116913       0.78750304       0.38888562 </v>
   <v>       0.68535077       0.29874211       0.87607489 </v>
   <v>       0.55699691       0.86125010       0.16650692 </v>
   <v>       0.43572670       0.45748976       0.69973773 </v>
   <v>       0.93400211       0.95127337       0.34478846 </v>
   <v>       0.68661906       0.62138184       0.52137094 </v>
   <v>       0.06628845       0.87449152       0.65492172 </v>
   <v>       0.05925468       0.87398480       0.78845987 </v>
   <v>       0.06637433       0.37432677       0.65492893 </v>
   <v>       0.68702377       0.45557993       0.47863992 </v>
   <v>       0.18356565       0.78695493       0.25535409 </v>
   <v>       0.43695545       0.12072999       0.43439315 </v>
   <v>       0.81476849       0.02973263       0.12405296 </v>
   <v>       0.93678778       0.62195419       0.52140683 </v>
   <v>       0.44137251       0.12467078       0.65493815 </v>
   <v>       0.81326264       0.52849474       0.12396507 </v>
   <v>       0.43365715       0.45249999       0.34497386 </v>
   <v>       0.80880358       0.20269910       0.34500071 </v>
   <v>       0.30894680       0.70182395       0.34483227 </v>
   <v>       0.69129802       0.12499417       0.65495439 </v>
   <v>       0.57074085       0.87307691       0.30018659 </v>
   <v>       0.06438491       0.54083798       0.74441807 </v>
   <v>       0.94007348       0.95409976       0.21132470 </v>
   <v>       0.81606298       0.70352731       0.21132209 </v>
   <v>       0.07087058       0.87306352       0.30017267 </v>
   <v>       0.19494395       0.12220809       0.30013728 </v>
   <v>       0.05853871       0.70234988       0.34494139 </v>
   <v>       0.80909492       0.03838339       0.61094838 </v>
   <v>       0.06279682       0.37184714       0.43435351 </v>
   <v>       0.55871287       0.20280105       0.34474630 </v>
   <v>       0.82030421       0.37323044       0.30010603 </v>
   <v>       0.55983272       0.03755435       0.25543499 </v>
   <v>       0.56614643       0.53760130       0.38903533 </v>
   <v>       0.06243358       0.20581831       0.47865373 </v>
   <v>       0.31082258       0.87246073       0.78826418 </v>
   <v>       0.93523858       0.95812810       0.69966091 </v>
   <v>       0.06937282       0.37435003       0.30007149 </v>
   <v>       0.69086947       0.62502183       0.65511593 </v>
   <v>       0.68628524       0.45664123       0.56543359 </v>
   <v>       0.44013065       0.95497434       0.21189626 </v>
   <v>       0.31253225       0.20561711       0.47872904 </v>
   <v>       0.81203820       0.54032770       0.87589326 </v>
   <v>       0.68787665       0.62031817       0.43447667 </v>
   <v>       0.81089693       0.20766325       0.69980449 </v>
   <v>       0.81233647       0.70589175       0.47865682 </v>
   <v>       0.81173074       0.87120902       0.43425963 </v>
   <v>       0.93728822       0.95510288       0.47874713 </v>
   <v>       0.56216799       0.20583558       0.47866993 </v>
   <v>       0.18742784       0.61987886       0.43445689 </v>
   <v>       0.31497415       0.04171159       0.74405815 </v>
   <v>       0.94154249       0.62527164       0.65493016 </v>
   <v>       0.56622348       0.71380921       0.83335485 </v>
   <v>       0.32032179       0.37235835       0.30001986 </v>
   <v>       0.31525674       0.54054693       0.74420123 </v>
   <v>       0.18742589       0.45566648       0.47867818 </v>
   <v>       0.31419929       0.04137125       0.87589048 </v>
   <v>       0.18527391       0.45798677       0.69969318 </v>
   <v>       0.56187490       0.37186352       0.52143184 </v>
   <v>       0.19109521       0.28758665       0.38896889 </v>
   <v>       0.31595581       0.20559060       0.21130424 </v>
   <v>       0.06722176       0.70424401       0.21137779 </v>
   <v>       0.56178630       0.37107291       0.43434953 </v>
   <v>       0.43663150       0.62202806       0.52136757 </v>
   <v>       0.81708440       0.71568367       0.83342312 </v>
   <v>       0.05909598       0.37418207       0.78854751 </v>
   <v>       0.43637142       0.29856471       0.87648235 </v>
   <v>       0.31156154       0.03169881       0.12420217 </v>
   <v>       0.68782580       0.11998784       0.43433389 </v>
   <v>       0.18367376       0.95235489       0.34491531 </v>
   <v>       0.06675471       0.21569537       0.83416940 </v>
   <v>       0.55916209       0.03857103       0.61107696 </v>
   <v>       0.68918671       0.45382369       0.21170724 </v>
   <v>       0.18927942       0.79180994       0.74446245 </v>
   <v>       0.19514831       0.62290099       0.30007402 </v>
   <v>       0.44154309       0.78770715       0.38907828 </v>
   <v>       0.43348586       0.28768138       0.25578679 </v>
   <v>       0.06382745       0.54103399       0.87595189 </v>
   <v>       0.56548553       0.04133249       0.74431398 </v>
   <v>       0.18796134       0.79736784       0.87607826 </v>
   <v>       0.93742942       0.45554461       0.47865161 </v>
   <v>       0.56479672       0.54073612       0.74398436 </v>
   <v>       0.81127001       0.20691909       0.56546866 </v>
   <v>       0.18446763       0.62321737       0.78849531 </v>
   <v>       0.06748154       0.53873683       0.38910292 </v>
   <v>       0.06058597       0.70790816       0.69961205 </v>
   <v>       0.30823929       0.53638004       0.25579944 </v>
   <v>       0.31574360       0.70614662       0.21166807 </v>
   <v>       0.94072117       0.79070794       0.74458119 </v>
   <v>       0.43644103       0.62130635       0.43436846 </v>
   <v>       0.81793703       0.03939648       0.38922846 </v>
   <v>       0.93476917       0.29836339       0.87556576 </v>
   <v>       0.93690427       0.79587028       0.87563016 </v>
   <v>       0.06557784       0.03923241       0.87572385 </v>
   <v>       0.56237031       0.52907797       0.12438933 </v>
   <v>       0.80554707       0.36582234       0.16580402 </v>
   <v>       0.06191363       0.87142414       0.43441261 </v>
   <v>       0.93642917       0.12186164       0.52156376 </v>
   <v>       0.19349289       0.78755666       0.38883674 </v>
   <v>       0.56798265       0.70237074       0.21186182 </v>
  </varray>
 </structure>
 <calculation>
  <scstep>
   <time name="dav">   53.91   53.92</time>
   <time name="total">   54.05   54.10</time>
   <energy>
    <i name="alphaZ">  16293.21160653 </i>
    <i name="ewald"> 727084.65042510 </i>
    <i name="hartreedc">-917600.20350733 </i>
    <i name="XCdc">  -6512.69801950 </i>
    <i name="pawpsdc"> 162273.92519768 </i>
    <i name="pawaedc">-159623.75899949 </i>
    <i name="eentropy">     -1.06679249 </i>
    <i name="bandstr">  38488.65934675 </i>
    <i name="atom"> 168671.76673737 </i>
    <i name="e_fr_energy">  29074.48599461 </i>
    <i name="e_wo_entrp">  29075.55278710 </i>
    <i name="e_0_energy">  29075.01939085 </i>
   </energy>
  </scstep>
  <scstep>
   <time name="dav">   53.37   53.41</time>
   <time name="total">   53.38   53.42</time>
   <energy>
    <i name="e_fr_energy">   1187.82784932 </i>
    <i name="e_wo_entrp">   1189.32769226 </i>
    <i name="e_0_energy">   1188.57777079 </i>
   </energy>
  </scstep>
  <scstep>
   <time name="dav">   70.30   70.34</time>
   <time name="total">   70.31   70.35</time>
   <energy>
    <i name="e_fr_energy">  -1949.34697056 </i>
    <i name="e_wo_entrp">  -1945.79824238 </i>
    <i name="e_0_energy">  -1947.57260647 </i>
   </energy>
  </scstep>
  <scstep>
   <time name="dav">   87.94   87.98</time>
   <time name="total">   87.95   87.99</time>
   <energy>
    <i name="e_fr_energy">  -2618.90420782 </i>
    <i name="e_wo_entrp">  -2615.36297313 </i>
    <i name="e_0_energy">  -2617.13359047 </i>
   </energy>
  </scstep>
  <scstep>
   <time name="dav">   83.95   83.99</time>
   <time name="total">   86.00   86.04</time>
   <energy>
    <i name="e_fr_energy">  -2738.54959056 </i>
    <i name="e_wo_entrp">  -2734.88060590 </i>
    <i name="e_0_energy">  -2736.71509823 </i>
   </energy>
  </scstep>
  <scstep>
   <time name="diag">    8.24    8.25</time>
   <time name="diis">   37.35   37.36</time>
   <time name="orth">    2.28    2.28</time>
   <time name="total">   50.05   50.08</time>
   <energy>
    <i name="e_fr_energy">  -5524.26790641 </i>
    <i name="e_wo_entrp">  -5521.51609579 </i>
    <i name="e_0_energy">  -5522.89200110 </i>
   </energy>
  </scstep>
  <scstep>
   <time name="diag">    8.25    8.26</time>
   <time name="diis">   22.36   22.36</time>
   <time name="orth">    2.28    2.28</time>
   <time name="total">   34.99   35.04</time>
[...]
       <r>     5.8995     0.0000  2772.0000 </r>
       <r>     5.9424     0.0000  2772.0000 </r>
       <r>     5.9853     0.0000  2772.0000 </r>
       <r>     6.0282     0.0000  2772.0000 </r>
       <r>     6.0711     0.0000  2772.0000 </r>
       <r>     6.1140     0.0000  2772.0000 </r>
       <r>     6.1569     0.0000  2772.0000 </r>
       <r>     6.1998     0.0000  2772.0000 </r>
       <r>     6.2427     0.0000  2772.0000 </r>
       <r>     6.2856     0.0000  2772.0000 </r>
       <r>     6.3285     0.0000  2772.0000 </r>
       <r>     6.3713     0.0000  2772.0000 </r>
       <r>     6.4142     0.0000  2772.0000 </r>
       <r>     6.4571     0.0000  2772.0000 </r>
       <r>     6.5000     0.0000  2772.0000 </r>
       <r>     6.5429     0.0000  2772.0000 </r>
       <r>     6.5858     0.0000  2772.0000 </r>
       <r>     6.6287     0.0000  2772.0000 </r>
       <r>     6.6716     0.0000  2772.0000 </r>
       <r>     6.7145     0.0000  2772.0000 </r>
       <r>     6.7574     0.0000  2772.0000 </r>
       <r>     6.8003     0.0000  2772.0000 </r>
       <r>     6.8432     0.0000  2772.0000 </r>
      </set>
     </set>
    </array>
   </total>
  </dos>
 </calculation>
 <structure name="finalpos" >
  <crystal>
   <varray name="basis" >
    <v>       9.72667804       0.00000000       0.00000000 </v>
    <v>       0.00000000       8.42355028       0.00000000 </v>
    <v>       0.00000000       0.00000000      45.00000000 </v>
   </varray>
   <i name="volume">   3686.99226691 </i>
   <varray name="rec_basis" >
    <v>       0.10281002       0.00000000       0.00000000 </v>
    <v>       0.00000000       0.11871479       0.00000000 </v>
    <v>       0.00000000       0.00000000       0.02222222 </v>
   </varray>
  </crystal>
  <varray name="positions" >
   <v>       0.06182843       0.03283443       0.12461617 </v>
   <v>       0.31368727       0.87390468       0.65510644 </v>
   <v>       0.18626539       0.12480434       0.78834037 </v>
   <v>       0.44001385       0.28806831       0.38920541 </v>
   <v>       0.31429391       0.71185153       0.83345035 </v>
   <v>       0.81601386       0.21273197       0.83357686 </v>
   <v>       0.18903274       0.96229609       0.83381989 </v>
   <v>       0.56175089       0.20613589       0.56588108 </v>
   <v>       0.06350112       0.04128293       0.74413952 </v>
   <v>       0.81120025       0.87245253       0.52177694 </v>
   <v>       0.18880445       0.29134500       0.74419138 </v>
   <v>       0.93708519       0.45405893       0.34476485 </v>
   <v>       0.93949646       0.28762527       0.38909109 </v>
   <v>       0.81247795       0.04521905       0.87552455 </v>
   <v>       0.18595792       0.78927828       0.61067695 </v>
   <v>       0.56429035       0.03767084       0.38920664 </v>
   <v>       0.94107149       0.96231396       0.83373333 </v>
   <v>       0.31323314       0.54516276       0.87574542 </v>
   <v>       0.68786968       0.29134300       0.74414421 </v>
   <v>       0.18436082       0.61607885       0.16655825 </v>
   <v>       0.81203144       0.20518908       0.47839809 </v>
   <v>       0.81085313       0.53920445       0.61078541 </v>
   <v>       0.31297149       0.87184522       0.43423752 </v>
   <v>       0.81164594       0.03702725       0.25584893 </v>
   <v>       0.68708717       0.95348791       0.34476042 </v>
   <v>       0.93410176       0.11535421       0.16665202 </v>
   <v>       0.06226568       0.87240484       0.52166250 </v>
   <v>       0.56134230       0.53708317       0.25571211 </v>
   <v>       0.68664444       0.79465184       0.87564771 </v>
   <v>       0.55840380       0.36594513       0.16633774 </v>
   <v>       0.43856157       0.79200406       0.74418035 </v>
   <v>       0.81182686       0.70639042       0.56588142 </v>
   <v>       0.56102920       0.87476840       0.78821016 </v>
   <v>       0.68644316       0.12206056       0.52165578 </v>
   <v>       0.81354542       0.37418612       0.65518737 </v>
   <v>       0.94046720       0.46237510       0.83377484 </v>
   <v>       0.06152718       0.20752812       0.69981192 </v>
   <v>       0.43680727       0.95723316       0.69983002 </v>
   <v>       0.31407073       0.21192112       0.83380073 </v>
   <v>       0.43859228       0.62412313       0.65509413 </v>
   <v>       0.31094505       0.53942209       0.61082251 </v>
   <v>       0.93672716       0.45609570       0.56593022 </v>
   <v>       0.68794652       0.79158189       0.74415179 </v>
   <v>       0.93573789       0.78274435       0.12477110 </v>
   <v>       0.68987142       0.78765840       0.38911717 </v>
   <v>       0.30860765       0.86542511       0.16673632 </v>
   <v>       0.06222022       0.20417846       0.34475455 </v>
   <v>       0.68731826       0.45375458       0.34468241 </v>
   <v>       0.43579554       0.12475781       0.78836257 </v>
   <v>       0.06337675       0.20316524       0.21148466 </v>
   <v>       0.05885744       0.36610268       0.16634982 </v>
   <v>       0.93652346       0.78702835       0.25571672 </v>
   <v>       0.56152544       0.20728900       0.69980498 </v>
   <v>       0.68692302       0.95751812       0.69991937 </v>
   <v>       0.81065784       0.87513794       0.78827628 </v>
   <v>       0.43665549       0.95609524       0.56591434 </v>
   <v>       0.81104818       0.37506221       0.78827478 </v>
   <v>       0.68660577       0.28689201       0.25581528 </v>
   <v>       0.18649707       0.45612965       0.56591261 </v>
   <v>       0.05946223       0.86591452       0.16661525 </v>
   <v>       0.18613537       0.28913589       0.61084680 </v>
   <v>       0.06169739       0.20597608       0.56591260 </v>
   <v>       0.31202418       0.20735457       0.69980798 </v>
   <v>       0.56370067       0.54553979       0.87558342 </v>
   <v>       0.06154995       0.70624903       0.56591203 </v>
   <v>       0.68612774       0.62509172       0.78818976 </v>
   <v>       0.31456013       0.53759027       0.38913594 </v>
   <v>       0.18710992       0.62261028       0.52173135 </v>
   <v>       0.56264833       0.87151104       0.43416628 </v>
   <v>       0.43674742       0.45617957       0.56589826 </v>
   <v>       0.43836257       0.29179616       0.74415497 </v>
   <v>       0.81597098       0.87226147       0.30016711 </v>
   <v>       0.81194025       0.70345823       0.34484227 </v>
   <v>       0.43979243       0.46157094       0.83374150 </v>
   <v>       0.68746092       0.95494957       0.47837538 </v>
   <v>       0.68671917       0.45747547       0.69981453 </v>
   <v>       0.56182901       0.87249656       0.52164137 </v>
   <v>       0.56372062       0.37376815       0.65512160 </v>
   <v>       0.81364109       0.87390498       0.65510819 </v>
   <v>       0.81178990       0.37089531       0.43406957 </v>
   <v>       0.81140570       0.53658464       0.25591962 </v>
   <v>       0.69073685       0.46222747       0.83359673 </v>
   <v>       0.18603212       0.78293310       0.12463605 </v>
   <v>       0.68927262       0.28770778       0.38915353 </v>
   <v>       0.31358705       0.37396714       0.65506365 </v>
   <v>       0.31209944       0.20362981       0.34480254 </v>
   <v>       0.81301377       0.54149577       0.74404326 </v>
   <v>       0.69054867       0.96185461       0.83367478 </v>
   <v>       0.56362840       0.87397170       0.65512577 </v>
   <v>       0.31158259       0.70644675       0.56590048 </v>
   <v>       0.31003365       0.53291460       0.12436256 </v>
   <v>       0.68852366       0.95342345       0.21164205 </v>
   <v>       0.31166039       0.20627738       0.56590535 </v>
   <v>       0.18740492       0.95519272       0.47838279 </v>
   <v>       0.68714040       0.95613309       0.56593271 </v>
   <v>       0.43579309       0.78939994       0.61074206 </v>
   <v>       0.68312999       0.61446839       0.16642156 </v>
   <v>       0.31597239       0.87177385       0.30007402 </v>
   <v>       0.31214189       0.70529177       0.47830987 </v>
   <v>       0.93600322       0.28885273       0.61071820 </v>
   <v>       0.44097350       0.62166637       0.30011793 </v>
   <v>       0.80914885       0.86530875       0.16666856 </v>
   <v>       0.56424746       0.20257615       0.21170385 </v>
   <v>       0.93477045       0.61493654       0.16664989 </v>
   <v>       0.43745668       0.95480884       0.47834618 </v>
   <v>       0.56112712       0.37464161       0.78826112 </v>
   <v>       0.06188437       0.37281796       0.52162365 </v>
   <v>       0.30864473       0.36563275       0.16641940 </v>
   <v>       0.69101805       0.12157087       0.30018309 </v>
   <v>       0.44037992       0.96098701       0.83364153 </v>
   <v>       0.18589948       0.28255546       0.12457503 </v>
   <v>       0.18689878       0.28653737       0.25579854 </v>
   <v>       0.31275148       0.37105178       0.43421466 </v>
   <v>       0.56093725       0.03354638       0.12460286 </v>
   <v>       0.43582816       0.28929334       0.61076528 </v>
   <v>       0.18703326       0.45388577       0.34473214 </v>
   <v>       0.43354353       0.28253728       0.12465723 </v>
   <v>       0.68628656       0.78729408       0.25589351 </v>
   <v>       0.43681540       0.12262903       0.52154777 </v>
   <v>       0.18906908       0.29469232       0.87593773 </v>
   <v>       0.18861653       0.12390773       0.65515421 </v>
   <v>       0.93861907       0.12417598       0.65508946 </v>
   <v>       0.81446915       0.53768622       0.38913806 </v>
   <v>       0.06468968       0.03787648       0.38916542 </v>
   <v>       0.18441575       0.11564037       0.16669637 </v>
   <v>       0.06094314       0.53924987       0.61072446 </v>
   <v>       0.93658746       0.28687852       0.25576187 </v>
   <v>       0.56086107       0.53951441       0.61076820 </v>
   <v>       0.93683645       0.95563975       0.56593467 </v>
   <v>       0.69087483       0.62186543       0.30020623 </v>
   <v>       0.93747404       0.62152555       0.43410022 </v>
   <v>       0.93587621       0.62586625       0.78837990 </v>
   <v>       0.56167593       0.70711916       0.69979501 </v>
   <v>       0.06425716       0.71317652       0.83366922 </v>
   <v>       0.94086982       0.12207594       0.30012265 </v>
   <v>       0.93598907       0.78902601       0.61073972 </v>
   <v>       0.43701394       0.78665185       0.25583128 </v>
   <v>       0.31086466       0.37469559       0.78827979 </v>
   <v>       0.43836113       0.45351125       0.21165742 </v>
   <v>       0.18708655       0.12225245       0.52167854 </v>
   <v>       0.81162974       0.70745470       0.69976457 </v>
   <v>       0.06092385       0.03928681       0.61064002 </v>
   <v>       0.56462167       0.21172620       0.83346019 </v>
   <v>       0.31188957       0.87242640       0.52175815 </v>
   <v>       0.68592443       0.28246435       0.12434331 </v>
   <v>       0.18883968       0.95459878       0.21161443 </v>
   <v>       0.68583671       0.28922839       0.61083372 </v>
   <v>       0.31080570       0.03909060       0.61076996 </v>
   <v>       0.93609538       0.12561840       0.78839930 </v>
   <v>       0.43722057       0.79383976       0.87572746 </v>
   <v>       0.81327452       0.04137073       0.74405927 </v>
   <v>       0.93666618       0.45781377       0.69984465 </v>
   <v>       0.18874921       0.62396475       0.65503923 </v>
   <v>       0.31181549       0.70725218       0.69984100 </v>
   <v>       0.93518040       0.28258643       0.12440811 </v>
   <v>       0.43732146       0.45480205       0.47830274 </v>
   <v>       0.06244901       0.70462189       0.47835822 </v>
   <v>       0.93737815       0.12112881       0.43447001 </v>
   <v>       0.44116150       0.12127303       0.30008280 </v>
   <v>       0.18763293       0.12106877       0.43402477 </v>
   <v>       0.56417236       0.04466333       0.87562790 </v>
   <v>       0.18628441       0.95621051       0.56596826 </v>
   <v>       0.68469883       0.78380475       0.12471343 </v>
   <v>       0.56238951       0.70383752       0.34481694 </v>
   <v>       0.31470727       0.03760230       0.38915465 </v>
   <v>       0.68447294       0.11511612       0.16679434 </v>
   <v>       0.81398693       0.20271946       0.21161610 </v>
   <v>       0.06154082       0.53705457       0.25563689 </v>
   <v>       0.56248821       0.70525157       0.47833141 </v>
   <v>       0.43493891       0.78353093       0.12456601 </v>
   <v>       0.56569495       0.37141102       0.30018077 </v>
   <v>       0.43707405       0.95361751       0.34471255 </v>
   <v>       0.18650746       0.95742961       0.69988597 </v>
   <v>       0.43415366       0.61536386       0.16638460 </v>
   <v>       0.93876798       0.45307691       0.21168180 </v>
   <v>       0.06105437       0.53283027       0.12438891 </v>
   <v>       0.81170766       0.37271571       0.52163478 </v>
   <v>       0.94079035       0.62229846       0.30003189 </v>
   <v>       0.31202216       0.03711436       0.25575283 </v>
   <v>       0.68586176       0.78915314       0.61072089 </v>
   <v>       0.18945675       0.46271296       0.83381576 </v>
   <v>       0.43420255       0.11509574       0.16677054 </v>
   <v>       0.31173193       0.37261586       0.52166414 </v>
   <v>       0.43572849       0.62492963       0.78839285 </v>
   <v>       0.06149060       0.03691740       0.25576665 </v>
   <v>       0.56164076       0.70632768       0.56590978 </v>
   <v>       0.93823099       0.29117757       0.74415735 </v>
   <v>       0.68590143       0.12496501       0.78818883 </v>
   <v>       0.18847368       0.45364660       0.21160365 </v>
   <v>       0.93911815       0.78741902       0.38911789 </v>
   <v>       0.68697186       0.29478532       0.87574373 </v>
   <v>       0.55766829       0.86489412       0.16659420 </v>
   <v>       0.43676810       0.45714999       0.69984973 </v>
   <v>       0.93750741       0.95349926       0.34474745 </v>
   <v>       0.68654422       0.62251734       0.52161914 </v>
   <v>       0.06353089       0.87393562       0.65507266 </v>
   <v>       0.06163704       0.87518566       0.78846191 </v>
   <v>       0.06365407       0.37427478       0.65514446 </v>
   <v>       0.68707003       0.45499116       0.47820089 </v>
   <v>       0.18679705       0.78704283       0.25577203 </v>
   <v>       0.43746472       0.12117656       0.43423657 </v>
   <v>       0.81164293       0.03349328       0.12459229 </v>
   <v>       0.93655787       0.62256808       0.52165949 </v>
   <v>       0.43867110       0.12394048       0.65515484 </v>
   <v>       0.81259069       0.53273505       0.12415812 </v>
   <v>       0.43732816       0.45393755       0.34475958 </v>
   <v>       0.81226690       0.20339999       0.34474310 </v>
   <v>       0.31260322       0.70371675       0.34471272 </v>
   <v>       0.68852274       0.12418198       0.65516624 </v>
   <v>       0.56588975       0.87164908       0.30011610 </v>
   <v>       0.06345266       0.54113435       0.74413140 </v>
   <v>       0.93869752       0.95386580       0.21157627 </v>
   <v>       0.81385111       0.70278276       0.21160258 </v>
   <v>       0.06566537       0.87180107       0.30015891 </v>
   <v>       0.19097349       0.12217167       0.29998656 </v>
   <v>       0.06203928       0.70374768       0.34477349 </v>
   <v>       0.81117442       0.03911461       0.61068323 </v>
   <v>       0.06278276       0.37088501       0.43407751 </v>
   <v>       0.56240355       0.20356122       0.34476719 </v>
   <v>       0.81550072       0.37226096       0.30005856 </v>
   <v>       0.56211354       0.03723210       0.25581069 </v>
   <v>       0.56424485       0.53758554       0.38912170 </v>
   <v>       0.06256498       0.20500383       0.47835938 </v>
   <v>       0.31134126       0.87438345       0.78815569 </v>
   <v>       0.93673530       0.95789070       0.69972969 </v>
   <v>       0.06618754       0.37188654       0.30018207 </v>
   <v>       0.68846125       0.62396029       0.65508622 </v>
   <v>       0.68675439       0.45630077       0.56586823 </v>
   <v>       0.43837747       0.95388741       0.21167341 </v>
   <v>       0.31224771       0.20501721       0.47830723 </v>
   <v>       0.81289156       0.54497333       0.87557958 </v>
   <v>       0.68807593       0.62093092       0.43410741 </v>
   <v>       0.81165514       0.20760237       0.69984161 </v>
   <v>       0.81235812       0.70507065       0.47832021 </v>
   <v>       0.81165260       0.87118508       0.43415989 </v>
   <v>       0.93723133       0.95450770       0.47840514 </v>
   <v>       0.56243014       0.20484923       0.47834574 </v>
   <v>       0.18710338       0.62082789       0.43419947 </v>
   <v>       0.31324433       0.04185081       0.74421335 </v>
   <v>       0.93848714       0.62424934       0.65508215 </v>
   <v>       0.56470010       0.71169120       0.83342602 </v>
   <v>       0.31609936       0.37163355       0.30009214 </v>
   <v>       0.31319564       0.54129355       0.74421529 </v>
   <v>       0.18768150       0.45499811       0.47831093 </v>
   <v>       0.31454357       0.04573028       0.87568440 </v>
   <v>       0.18667713       0.45761487       0.69985493 </v>
   <v>       0.56189003       0.37259505       0.52163452 </v>
   <v>       0.18912382       0.28788081       0.38917663 </v>
   <v>       0.31370975       0.20325396       0.21155386 </v>
   <v>       0.06443620       0.70274855       0.21141724 </v>
   <v>       0.56256024       0.37100365       0.43424479 </v>
   <v>       0.43686483       0.62260771       0.52151064 </v>
   <v>       0.81541101       0.71295983       0.83337692 </v>
   <v>       0.06120675       0.37567558       0.78840787 </v>
   <v>       0.43688447       0.29494022       0.87580756 </v>
   <v>       0.31130778       0.03367469       0.12447532 </v>
   <v>       0.68751424       0.12160389       0.43418491 </v>
   <v>       0.18705156       0.95332988       0.34475415 </v>
   <v>       0.06446083       0.21201895       0.83370722 </v>
   <v>       0.56095976       0.03918218       0.61079300 </v>
   <v>       0.68813023       0.45235967       0.21162170 </v>
   <v>       0.18866867       0.79132847       0.74414004 </v>
   <v>       0.19098784       0.62192413       0.30006240 </v>
   <v>       0.43997258       0.78748223       0.38913649 </v>
   <v>       0.43682727       0.28698394       0.25570596 </v>
   <v>       0.06528219       0.54503500       0.87577440 </v>
   <v>       0.56374146       0.04191150       0.74417527 </v>
   <v>       0.18844388       0.79397032       0.87587128 </v>
   <v>       0.93713181       0.45480617       0.47830510 </v>
   <v>       0.56363024       0.54155343       0.74409053 </v>
   <v>       0.81159739       0.20625717       0.56593404 </v>
   <v>       0.18607562       0.62535344       0.78837503 </v>
   <v>       0.06490718       0.53821975       0.38922492 </v>
   <v>       0.06160850       0.70748805       0.69976668 </v>
   <v>       0.31185610       0.53652724       0.25565664 </v>
   <v>       0.31318871       0.70336891       0.21158353 </v>
   <v>       0.93858455       0.79120998       0.74428823 </v>
   <v>       0.43709982       0.62095614       0.43411496 </v>
   <v>       0.81537466       0.03730696       0.38907457 </v>
   <v>       0.93661582       0.29609391       0.87566845 </v>
   <v>       0.93750978       0.79255918       0.87554482 </v>
   <v>       0.06564447       0.04391908       0.87547427 </v>
   <v>       0.56151693       0.53268877       0.12458820 </v>
   <v>       0.80790481       0.36558200       0.16588782 </v>
   <v>       0.06200258       0.87145814       0.43415313 </v>
   <v>       0.93685147       0.12248185       0.52153800 </v>
   <v>       0.19016544       0.78684677       0.38888742 </v>
   <v>       0.56521933       0.70270385       0.21183498 </v>
  </varray>
 </structure>
</modeling>
