 288 288   0   0
  0.1280206E+02  0.9726678E-09  0.8423550E-09  0.4500000E-08  0.2500000E-15
  1.000000000000000E-004
  CAR 
 unknown system                          
      6.80533496     -6.02615415  301      4.31713553      1.00000000
     -6.026  0.0000E+00  0.0000E+00
     -5.983  0.0000E+00  0.0000E+00
     -5.941  0.0000E+00  0.0000E+00
     -5.898  0.0000E+00  0.0000E+00
     -5.855  0.0000E+00  0.0000E+00
     -5.812  0.0000E+00  0.0000E+00
     -5.770  0.0000E+00  0.0000E+00
     -5.727  0.0000E+00  0.0000E+00
     -5.684  0.0000E+00  0.0000E+00
     -5.641  0.0000E+00  0.0000E+00
     -5.598  0.0000E+00  0.0000E+00
     -5.556  0.0000E+00  0.0000E+00
     -5.513  0.0000E+00  0.0000E+00
     -5.470  0.0000E+00  0.0000E+00
     -5.427  0.0000E+00  0.0000E+00
     -5.385  0.1622E-15  0.6939E-17
     -5.342  0.4121E-14  0.1832E-15
     -5.299  0.8855E-13  0.3970E-14
     -5.256  0.1615E-11  0.7304E-13
     -5.213  0.2508E-10  0.1146E-11
     -5.171  0.3318E-09  0.1534E-10
     -5.128  0.3738E-08  0.1752E-09
     -5.085  0.3587E-07  0.1709E-08
     -5.042  0.2934E-06  0.1426E-07
     -5.000  0.2047E-05  0.1018E-06
     -4.957  0.1219E-04  0.6232E-06
     -4.914  0.6206E-04  0.3278E-05
     -4.871  0.2707E-03  0.1486E-04
     -4.829  0.1015E-02  0.5827E-04
     -4.786  0.3287E-02  0.1988E-03
     -4.743  0.9255E-02  0.5947E-03
     -4.700  0.2287E-01  0.1573E-02
     -4.657  0.5016E-01  0.3718E-02
     -4.615  0.9895E-01  0.7950E-02
     -4.572  0.1778E+00  0.1555E-01
     -4.529  0.2941E+00  0.2813E-01
     -4.486  0.4516E+00  0.4745E-01
     -4.444  0.6474E+00  0.7514E-01
     -4.401  0.8704E+00  0.1124E+00
     -4.358  0.1103E+01  0.1595E+00
     -4.315  0.1322E+01  0.2161E+00
     -4.273  0.1507E+01  0.2805E+00
     -4.230  0.1646E+01  0.3509E+00
     -4.187  0.1739E+01  0.4253E+00
     -4.144  0.1805E+01  0.5025E+00
     -4.101  0.1871E+01  0.5825E+00
     -4.059  0.1968E+01  0.6667E+00
     -4.016  0.2119E+01  0.7574E+00
     -3.973  0.2327E+01  0.8569E+00
     -3.930  0.2574E+01  0.9670E+00
     -3.888  0.2821E+01  0.1088E+01
     -3.845  0.3026E+01  0.1217E+01
     -3.802  0.3152E+01  0.1352E+01
     -3.759  0.3188E+01  0.1488E+01
     -3.716  0.3150E+01  0.1623E+01
     -3.674  0.3084E+01  0.1755E+01
     -3.631  0.3042E+01  0.1885E+01
     -3.588  0.3071E+01  0.2016E+01
     -3.545  0.3192E+01  0.2153E+01
     -3.503  0.3393E+01  0.2298E+01
     -3.460  0.3639E+01  0.2454E+01
     -3.417  0.3879E+01  0.2620E+01
     -3.374  0.4069E+01  0.2794E+01
     -3.332  0.4182E+01  0.2972E+01
     -3.289  0.4216E+01  0.3153E+01
     -3.246  0.4196E+01  0.3332E+01
     -3.203  0.4165E+01  0.3510E+01
     -3.160  0.4171E+01  0.3689E+01
     -3.118  0.4252E+01  0.3871E+01
     -3.075  0.4419E+01  0.4060E+01
     -3.032  0.4652E+01  0.4259E+01
     -2.989  0.4908E+01  0.4469E+01
     -2.947  0.5136E+01  0.4688E+01
     -2.904  0.5297E+01  0.4915E+01
     -2.861  0.5372E+01  0.5145E+01
     -2.818  0.5383E+01  0.5375E+01
     -2.776  0.5378E+01  0.5605E+01
     -2.733  0.5408E+01  0.5836E+01
     -2.690  0.5494E+01  0.6071E+01
     -2.647  0.5604E+01  0.6311E+01
     -2.604  0.5673E+01  0.6554E+01
     -2.562  0.5653E+01  0.6795E+01
     -2.519  0.5557E+01  0.7033E+01
     -2.476  0.5475E+01  0.7267E+01
     -2.433  0.5531E+01  0.7504E+01
     -2.391  0.5812E+01  0.7752E+01
     -2.348  0.6314E+01  0.8022E+01
     -2.305  0.6914E+01  0.8318E+01
     -2.262  0.7413E+01  0.8635E+01
     -2.219  0.7630E+01  0.8962E+01
     -2.177  0.7506E+01  0.9283E+01
     -2.134  0.7156E+01  0.9589E+01
     -2.091  0.6812E+01  0.9880E+01
     -2.048  0.6705E+01  0.1017E+02
     -2.006  0.6945E+01  0.1046E+02
     -1.963  0.7477E+01  0.1078E+02
     -1.920  0.8117E+01  0.1113E+02
     -1.877  0.8645E+01  0.1150E+02
     -1.835  0.8908E+01  0.1188E+02
     -1.792  0.8897E+01  0.1226E+02
     -1.749  0.8739E+01  0.1264E+02
     -1.706  0.8609E+01  0.1300E+02
     -1.663  0.8628E+01  0.1337E+02
     -1.621  0.8810E+01  0.1375E+02
     -1.578  0.9090E+01  0.1414E+02
     -1.535  0.9393E+01  0.1454E+02
     -1.492  0.9679E+01  0.1495E+02
     -1.450  0.9943E+01  0.1538E+02
     -1.407  0.1018E+02  0.1582E+02
     -1.364  0.1038E+02  0.1626E+02
     -1.321  0.1052E+02  0.1671E+02
     -1.279  0.1067E+02  0.1717E+02
     -1.236  0.1097E+02  0.1764E+02
     -1.193  0.1158E+02  0.1813E+02
     -1.150  0.1255E+02  0.1867E+02
     -1.107  0.1370E+02  0.1925E+02
     -1.065  0.1473E+02  0.1988E+02
     -1.022  0.1535E+02  0.2054E+02
     -0.979  0.1551E+02  0.2120E+02
     -0.936  0.1548E+02  0.2187E+02
     -0.894  0.1567E+02  0.2254E+02
     -0.851  0.1643E+02  0.2324E+02
     -0.808  0.1785E+02  0.2400E+02
     -0.765  0.1980E+02  0.2485E+02
     -0.722  0.2216E+02  0.2580E+02
     -0.680  0.2500E+02  0.2687E+02
     -0.637  0.2848E+02  0.2808E+02
     -0.594  0.3266E+02  0.2948E+02
     -0.551  0.3729E+02  0.3108E+02
     -0.509  0.4182E+02  0.3286E+02
     -0.466  0.4570E+02  0.3482E+02
     -0.423  0.4869E+02  0.3690E+02
     -0.380  0.5092E+02  0.3908E+02
     -0.338  0.5269E+02  0.4133E+02
     -0.295  0.5424E+02  0.4365E+02
     -0.252  0.5562E+02  0.4603E+02
     -0.209  0.5669E+02  0.4846E+02
     -0.166  0.5734E+02  0.5091E+02
     -0.124  0.5759E+02  0.5337E+02
     -0.081  0.5762E+02  0.5584E+02
     -0.038  0.5771E+02  0.5831E+02
      0.005  0.5809E+02  0.6079E+02
      0.047  0.5892E+02  0.6331E+02
      0.090  0.6035E+02  0.6589E+02
      0.133  0.6251E+02  0.6857E+02
      0.176  0.6541E+02  0.7136E+02
      0.219  0.6885E+02  0.7431E+02
      0.261  0.7247E+02  0.7741E+02
      0.304  0.7590E+02  0.8065E+02
      0.347  0.7891E+02  0.8403E+02
      0.390  0.8143E+02  0.8751E+02
      0.432  0.8344E+02  0.9108E+02
      0.475  0.8498E+02  0.9472E+02
      0.518  0.8601E+02  0.9839E+02
      0.561  0.8653E+02  0.1021E+03
      0.603  0.8656E+02  0.1058E+03
      0.646  0.8620E+02  0.1095E+03
      0.689  0.8554E+02  0.1131E+03
      0.732  0.8454E+02  0.1168E+03
      0.775  0.8314E+02  0.1203E+03
      0.817  0.8135E+02  0.1238E+03
      0.860  0.7947E+02  0.1272E+03
      0.903  0.7788E+02  0.1305E+03
      0.946  0.7687E+02  0.1338E+03
      0.988  0.7641E+02  0.1371E+03
      1.031  0.7620E+02  0.1403E+03
      1.074  0.7589E+02  0.1436E+03
      1.117  0.7524E+02  0.1468E+03
      1.159  0.7435E+02  0.1500E+03
      1.202  0.7353E+02  0.1531E+03
      1.245  0.7318E+02  0.1563E+03
      1.288  0.7339E+02  0.1594E+03
      1.331  0.7385E+02  0.1626E+03
      1.373  0.7393E+02  0.1657E+03
      1.416  0.7317E+02  0.1688E+03
      1.459  0.7158E+02  0.1719E+03
      1.502  0.6969E+02  0.1749E+03
      1.544  0.6819E+02  0.1778E+03
      1.587  0.6763E+02  0.1807E+03
      1.630  0.6816E+02  0.1836E+03
      1.673  0.6965E+02  0.1866E+03
      1.716  0.7177E+02  0.1897E+03
      1.758  0.7422E+02  0.1928E+03
      1.801  0.7671E+02  0.1961E+03
      1.844  0.7908E+02  0.1995E+03
      1.887  0.8124E+02  0.2030E+03
      1.929  0.8316E+02  0.2065E+03
      1.972  0.8488E+02  0.2102E+03
      2.015  0.8649E+02  0.2139E+03
      2.058  0.8805E+02  0.2176E+03
      2.100  0.8959E+02  0.2215E+03
      2.143  0.9115E+02  0.2254E+03
      2.186  0.9272E+02  0.2293E+03
      2.229  0.9432E+02  0.2334E+03
      2.272  0.9608E+02  0.2375E+03
      2.314  0.9826E+02  0.2417E+03
      2.357  0.1011E+03  0.2460E+03
      2.400  0.1048E+03  0.2505E+03
      2.443  0.1092E+03  0.2552E+03
      2.485  0.1138E+03  0.2600E+03
      2.528  0.1181E+03  0.2651E+03
      2.571  0.1219E+03  0.2703E+03
      2.614  0.1249E+03  0.2756E+03
      2.656  0.1269E+03  0.2811E+03
      2.699  0.1281E+03  0.2865E+03
      2.742  0.1289E+03  0.2921E+03
      2.785  0.1298E+03  0.2976E+03
      2.828  0.1313E+03  0.3032E+03
      2.870  0.1338E+03  0.3089E+03
      2.913  0.1371E+03  0.3148E+03
      2.956  0.1403E+03  0.3208E+03
      2.999  0.1420E+03  0.3269E+03
      3.041  0.1407E+03  0.3329E+03
      3.084  0.1358E+03  0.3387E+03
      3.127  0.1279E+03  0.3442E+03
      3.170  0.1184E+03  0.3492E+03
      3.213  0.1092E+03  0.3539E+03
      3.255  0.1015E+03  0.3582E+03
      3.298  0.9611E+02  0.3624E+03
      3.341  0.9290E+02  0.3663E+03
      3.384  0.9143E+02  0.3702E+03
      3.426  0.9095E+02  0.3741E+03
      3.469  0.9065E+02  0.3780E+03
      3.512  0.8982E+02  0.3818E+03
      3.555  0.8819E+02  0.3856E+03
      3.597  0.8604E+02  0.3893E+03
      3.640  0.8416E+02  0.3929E+03
      3.683  0.8341E+02  0.3965E+03
      3.726  0.8425E+02  0.4001E+03
      3.769  0.8651E+02  0.4038E+03
      3.811  0.8953E+02  0.4076E+03
      3.854  0.9255E+02  0.4116E+03
      3.897  0.9513E+02  0.4156E+03
      3.940  0.9721E+02  0.4198E+03
      3.982  0.9897E+02  0.4240E+03
      4.025  0.1006E+03  0.4283E+03
      4.068  0.1019E+03  0.4327E+03
      4.111  0.1028E+03  0.4371E+03
      4.153  0.1030E+03  0.4415E+03
      4.196  0.1024E+03  0.4459E+03
      4.239  0.1014E+03  0.4502E+03
      4.282  0.1002E+03  0.4545E+03
      4.325  0.9936E+02  0.4587E+03
      4.367  0.9902E+02  0.4630E+03
      4.410  0.9922E+02  0.4672E+03
      4.453  0.9973E+02  0.4715E+03
      4.496  0.1002E+03  0.4758E+03
      4.538  0.1003E+03  0.4801E+03
      4.581  0.9984E+02  0.4843E+03
      4.624  0.9904E+02  0.4886E+03
      4.667  0.9829E+02  0.4928E+03
      4.710  0.9812E+02  0.4970E+03
      4.752  0.9894E+02  0.5012E+03
      4.795  0.1009E+03  0.5055E+03
      4.838  0.1037E+03  0.5099E+03
      4.881  0.1068E+03  0.5145E+03
      4.923  0.1098E+03  0.5192E+03
      4.966  0.1120E+03  0.5240E+03
      5.009  0.1128E+03  0.5288E+03
      5.052  0.1116E+03  0.5336E+03
      5.094  0.1072E+03  0.5382E+03
      5.137  0.9860E+02  0.5424E+03
      5.180  0.8561E+02  0.5461E+03
      5.223  0.6910E+02  0.5490E+03
      5.266  0.5115E+02  0.5512E+03
      5.308  0.3431E+02  0.5527E+03
      5.351  0.2067E+02  0.5536E+03
      5.394  0.1109E+02  0.5540E+03
      5.437  0.5277E+01  0.5543E+03
      5.479  0.2213E+01  0.5543E+03
      5.522  0.8156E+00  0.5544E+03
      5.565  0.2633E+00  0.5544E+03
      5.608  0.7431E-01  0.5544E+03
      5.651  0.1829E-01  0.5544E+03
      5.693  0.3917E-02  0.5544E+03
      5.736  0.7292E-03  0.5544E+03
      5.779  0.1178E-03  0.5544E+03
      5.822  0.1648E-04  0.5544E+03
      5.864  0.1995E-05  0.5544E+03
      5.907  0.2087E-06  0.5544E+03
      5.950  0.1884E-07  0.5544E+03
      5.993  0.1466E-08  0.5544E+03
      6.035  0.9817E-10  0.5544E+03
      6.078  0.5655E-11  0.5544E+03
      6.121  0.2788E-12  0.5544E+03
      6.164  0.1116E-13  0.5544E+03
      6.207  0.1947E-15  0.5544E+03
      6.249  0.0000E+00  0.5544E+03
      6.292  0.0000E+00  0.5544E+03
      6.335  0.0000E+00  0.5544E+03
      6.378  0.0000E+00  0.5544E+03
      6.420  0.0000E+00  0.5544E+03
      6.463  0.0000E+00  0.5544E+03
      6.506  0.0000E+00  0.5544E+03
      6.549  0.0000E+00  0.5544E+03
      6.591  0.0000E+00  0.5544E+03
      6.634  0.0000E+00  0.5544E+03
      6.677  0.0000E+00  0.5544E+03
      6.720  0.0000E+00  0.5544E+03
      6.763  0.0000E+00  0.5544E+03
      6.805  0.0000E+00  0.5544E+03
