<?xml version="1.0" encoding="ISO-8859-1"?>
<modeling>
 <generator>
  <i name="program" type="string">vasp </i>
  <i name="version" type="string">5.4.4.18Apr17-6-g9f103f2a35  </i>
  <i name="subversion" type="string">(build Sep 27 2018 12:46:37) complex + VL-xray_ parallel </i>
  <i name="platform" type="string">LLNL_Quartz_ifc </i>
  <i name="date" type="string">2021 09 27 </i>
  <i name="time" type="string">00:33:22 </i>
 </generator>
 <incar>
  <i type="int" name="ISTART">     2</i>
  <i type="string" name="PREC">accurate</i>
  <i type="string" name="ALGO"> Fast</i>
  <i type="int" name="ICHARG">     2</i>
  <i type="int" name="INIWAV">     1</i>
  <i type="int" name="NELM">   100</i>
  <i type="int" name="NELMIN">     4</i>
  <i type="int" name="IBRION">     2</i>
  <i name="EDIFF">      0.00000100</i>
  <i type="int" name="NSW">     5</i>
  <i type="int" name="ISIF">     2</i>
  <i type="int" name="ISYM">     2</i>
  <i name="ENCUT">    450.00000000</i>
  <i name="POTIM">      0.25000000</i>
  <i type="string" name="LREAL"> Auto</i>
  <i type="int" name="ISMEAR">     0</i>
  <i name="SIGMA">      0.15000000</i>
  <i type="logical" name="LWAVE"> F  </i>
  <i type="logical" name="LCHARG"> F  </i>
  <i type="int" name="ICORELEVEL">     0</i>
  <i type="int" name="CLNT">     1</i>
  <i type="int" name="CLN">     1</i>
  <i type="int" name="INCAR     ">     0</i>
  <i name="CLZ">      0.00000000</i>
  <v type="int" name="KPOINT_BSE">    -1     0     0     0</v>
  <i type="int" name="NELM">   100</i>
 </incar>
 <structure name="primitive_cell" >
  <crystal>
   <varray name="basis" >
    <v>       9.72667804       0.00000000       0.00000000 </v>
    <v>       0.00000000       8.42355028       0.00000000 </v>
    <v>       0.00000000       0.00000000      45.00000000 </v>
   </varray>
   <i name="volume">   3686.99226691 </i>
   <varray name="rec_basis" >
    <v>       0.10281002       0.00000000       0.00000000 </v>
    <v>       0.00000000       0.11871479       0.00000000 </v>
    <v>       0.00000000       0.00000000       0.02222222 </v>
   </varray>
  </crystal>
  <varray name="positions" >
   <v>       0.06201240       0.02914453       0.12411695 </v>
   <v>       0.18336027       0.11220906       0.16647480 </v>
   <v>       0.05630692      -0.13491133       0.16664736 </v>
   <v>       0.18629367      -0.21191346       0.12406513 </v>
   <v>      -0.06582671      -0.21129633       0.12442998 </v>
   <v>      -0.18575927       0.03065768       0.12402067 </v>
   <v>      -0.06897681       0.11413941       0.16687865 </v>
   <v>       0.31149860       0.03044717       0.12410870 </v>
   <v>       0.18526513       0.28678584       0.12410344 </v>
   <v>      -0.06569944       0.28711470       0.12387542 </v>
   <v>       0.30615788      -0.13528771       0.16579740 </v>
   <v>       0.05518643       0.36530493       0.16662218 </v>
   <v>      -0.19276656      -0.13655577       0.16680588 </v>
   <v>       0.43268781       0.11181736       0.16657033 </v>
   <v>      -0.05901354      -0.04623289       0.21129572 </v>
   <v>       0.18218049      -0.38661366       0.16663134 </v>
   <v>       0.30723832       0.36396561       0.16661706 </v>
   <v>       0.43521611      -0.21317405       0.12407957 </v>
   <v>       0.06521107       0.20397043       0.21106391 </v>
   <v>       0.19025526      -0.04554525       0.21171558 </v>
   <v>      -0.06714574      -0.38711654       0.16670439 </v>
   <v>      -0.31514831      -0.21168982       0.12428414 </v>
   <v>       0.06198524      -0.47031804       0.12405368 </v>
   <v>      -0.19442531       0.36543067       0.16590168 </v>
   <v>      -0.31757611       0.11386670       0.16684390 </v>
   <v>       0.43469875       0.28671867       0.12409381 </v>
   <v>      -0.31356337       0.28625380       0.12390282 </v>
   <v>       0.06744073      -0.29597585       0.21128026 </v>
   <v>      -0.18444744       0.20373185       0.21109577 </v>
   <v>      -0.18661609      -0.47043399       0.12400462 </v>
   <v>      -0.43745326       0.03204334       0.12426947 </v>
   <v>       0.31596567       0.20482084       0.21119402 </v>
   <v>       0.31281034      -0.47041212       0.12395182 </v>
   <v>      -0.18385837      -0.29653040       0.21144606 </v>
   <v>      -0.44345580      -0.13732939       0.16625005 </v>
   <v>       0.43170542      -0.38697354       0.16614181 </v>
   <v>      -0.31040140      -0.04535903       0.21176087 </v>
   <v>       0.31443451      -0.29671427       0.21225772 </v>
   <v>      -0.31754790      -0.38787977       0.16626834 </v>
   <v>       0.18998795       0.45298386       0.21106250 </v>
   <v>       0.44137334      -0.04412757       0.21201646 </v>
   <v>      -0.05998849       0.45331101       0.21161911 </v>
   <v>      -0.44354852       0.36520386       0.16652432 </v>
   <v>       0.05900138       0.03737450       0.25581685 </v>
   <v>       0.18386028      -0.21275050       0.25549266 </v>
   <v>      -0.06642618      -0.21279997       0.25555346 </v>
   <v>       0.30944456       0.03703599       0.25547322 </v>
   <v>      -0.43338647       0.20301231       0.21142910 </v>
   <v>       0.18374264       0.28716024       0.25580022 </v>
   <v>      -0.19021920       0.03803200       0.25601254 </v>
   <v>      -0.43761164      -0.47107617       0.12452801 </v>
   <v>      -0.06596931       0.28788517       0.25591514 </v>
   <v>      -0.31082168       0.45438564       0.21172306 </v>
   <v>       0.43972538       0.45393414       0.21132159 </v>
   <v>      -0.43332371      -0.29599819       0.21194294 </v>
   <v>       0.43365585      -0.21257887       0.25564254 </v>
   <v>       0.05919383      -0.46271363       0.25575983 </v>
   <v>      -0.31628209      -0.21221508       0.25580665 </v>
   <v>       0.43355401       0.28770983       0.25578752 </v>
   <v>      -0.31561118       0.28804801       0.25607240 </v>
   <v>       0.30821475      -0.46243272       0.25555692 </v>
   <v>      -0.19127295      -0.46279177       0.25580133 </v>
   <v>      -0.43958894       0.03746514       0.25555278 </v>
   <v>      -0.05454462       0.12273268       0.30007857 </v>
   <v>       0.06925853      -0.12635112       0.30040658 </v>
   <v>       0.19517094       0.12350582       0.30026721 </v>
   <v>      -0.17908250      -0.12639960       0.30020354 </v>
   <v>       0.31892931      -0.12583871       0.30016529 </v>
   <v>       0.06964611       0.37408129       0.30001828 </v>
   <v>      -0.44181991      -0.46203350       0.25554534 </v>
   <v>      -0.05538565      -0.37685274       0.29999458 </v>
   <v>      -0.30459766       0.12308151       0.30028713 </v>
   <v>       0.19515457      -0.37687465       0.30029779 </v>
   <v>      -0.17964630       0.37306001       0.30014335 </v>
   <v>       0.32025925       0.37233762       0.30010122 </v>
   <v>       0.44439608       0.12303619       0.30044089 </v>
   <v>      -0.30485916      -0.37634907       0.30019167 </v>
   <v>      -0.42965147      -0.12674497       0.30033467 </v>
   <v>       0.44569982      -0.37630622       0.30017172 </v>
   <v>      -0.43035100       0.37189524       0.30016356 </v>
   <v>       0.18367214      -0.04793797       0.34487463 </v>
   <v>      -0.06591803      -0.04853475       0.34478270 </v>
   <v>       0.05861832       0.20244756       0.34491930 </v>
   <v>       0.05843263      -0.29811170       0.34486760 </v>
   <v>       0.30911008       0.20263007       0.34476841 </v>
   <v>      -0.19102627       0.20271317       0.34498762 </v>
   <v>       0.30878937      -0.29845107       0.34486036 </v>
   <v>       0.43364359      -0.04730101       0.34486733 </v>
   <v>      -0.19153356      -0.29791947       0.34488697 </v>
   <v>      -0.31670459      -0.04823388       0.34482333 </v>
   <v>       0.18370182       0.45258471       0.34493998 </v>
   <v>      -0.06627959       0.45208199       0.34488734 </v>
   <v>      -0.44133114       0.20261108       0.34479159 </v>
   <v>       0.43371875       0.45237821       0.34496589 </v>
   <v>       0.06542650       0.03904408      -0.12421694 </v>
   <v>      -0.31640513       0.45241977       0.34494340 </v>
   <v>      -0.44088899      -0.29761078       0.34499015 </v>
   <v>       0.18780246      -0.20273864      -0.12388423 </v>
   <v>      -0.06294705      -0.20477631      -0.12437355 </v>
   <v>       0.31425092       0.04139308      -0.12407332 </v>
   <v>      -0.18747514       0.04058886      -0.12423873 </v>
   <v>       0.18844661       0.29667217      -0.12384083 </v>
   <v>      -0.06488842       0.29777345      -0.12446382 </v>
   <v>       0.43646385      -0.20212205      -0.12382196 </v>
   <v>       0.06340627      -0.45926664      -0.12409760 </v>
   <v>      -0.31522625      -0.20266463      -0.12413431 </v>
   <v>       0.06648308       0.03776009       0.38911478 </v>
   <v>       0.43681671       0.29842556      -0.12368732 </v>
   <v>      -0.31440094       0.29879008      -0.12398262 </v>
   <v>       0.31334521      -0.45930468      -0.12394117 </v>
   <v>      -0.05866266      -0.21242168       0.38893749 </v>
   <v>      -0.18772399      -0.45984054      -0.12413594 </v>
   <v>       0.19335819      -0.21140431       0.38890966 </v>
   <v>      -0.18340351       0.03798919       0.38912949 </v>
   <v>      -0.05870593       0.28739305       0.38895060 </v>
   <v>       0.31616777       0.03734640       0.38898811 </v>
   <v>      -0.43726780       0.04060278      -0.12396768 </v>
   <v>       0.19096857       0.28751164       0.38893775 </v>
   <v>      -0.30864922      -0.21229084       0.38904184 </v>
   <v>       0.06667654      -0.46219307       0.38904853 </v>
   <v>      -0.30890410       0.28756461       0.38893038 </v>
   <v>       0.44138941      -0.21210861       0.38916425 </v>
   <v>       0.44160028       0.28764066       0.38907884 </v>
   <v>      -0.18372533      -0.46246288       0.38896760 </v>
   <v>       0.31586557      -0.46170176       0.38890938 </v>
   <v>      -0.43740504      -0.45940609      -0.12406913 </v>
   <v>      -0.43360135       0.03776244       0.38908892 </v>
   <v>      -0.05762237      -0.03513156      -0.16613554 </v>
   <v>       0.19177289      -0.03670088      -0.16635734 </v>
   <v>       0.06684307       0.21503258      -0.16596761 </v>
   <v>       0.06607264      -0.28343125      -0.16600152 </v>
   <v>      -0.18175730       0.21497289      -0.16640179 </v>
   <v>       0.31682859       0.21277677      -0.16651105 </v>
   <v>      -0.43356749      -0.46230848       0.38906472 </v>
   <v>      -0.18294821      -0.28465558      -0.16661330 </v>
   <v>      -0.30812924      -0.03773129      -0.16650373 </v>
   <v>       0.31806377      -0.28612367      -0.16688462 </v>
   <v>       0.44294465      -0.03697851      -0.16663424 </v>
   <v>      -0.05773215       0.46428178      -0.16622964 </v>
   <v>       0.19243014       0.46350267      -0.16658919 </v>
   <v>       0.06194644      -0.12939118       0.43434211 </v>
   <v>       0.18691424       0.12093452       0.43427875 </v>
   <v>      -0.43392394       0.21364176      -0.16676697 </v>
   <v>      -0.06282056       0.12052158       0.43446599 </v>
   <v>      -0.30784177       0.46205621      -0.16665009 </v>
   <v>       0.44244613       0.46278630      -0.16661365 </v>
   <v>      -0.43366874      -0.28663484      -0.16670467 </v>
   <v>      -0.18833366      -0.12892626       0.43426341 </v>
   <v>       0.31197803      -0.12953858       0.43442103 </v>
   <v>       0.06301103       0.37121421       0.43430774 </v>
   <v>       0.18720820      -0.37942541       0.43442140 </v>
   <v>      -0.06237113      -0.37929066       0.43445470 </v>
   <v>      -0.31193362       0.12101299       0.43424438 </v>
   <v>       0.43740549       0.12170555       0.43435822 </v>
   <v>      -0.18826507       0.37069106       0.43422465 </v>
   <v>       0.31221038       0.37046095       0.43444906 </v>
   <v>      -0.31215707      -0.37893202       0.43441596 </v>
   <v>       0.43705393      -0.37812420       0.43441073 </v>
   <v>      -0.43771538      -0.13001570       0.43438935 </v>
   <v>      -0.43803199       0.37067379       0.43435759 </v>
   <v>       0.05910990      -0.12590894      -0.21149472 </v>
   <v>       0.18405474       0.12288083      -0.21134503 </v>
   <v>      -0.06573938       0.12446428      -0.21138770 </v>
   <v>       0.31038405      -0.12683210      -0.21151153 </v>
   <v>      -0.19129254      -0.12602189      -0.21150223 </v>
   <v>       0.05864898       0.37507001      -0.21151822 </v>
   <v>       0.43390733       0.12242150      -0.21103910 </v>
   <v>       0.18439758      -0.37746674      -0.21146394 </v>
   <v>      -0.06664167      -0.37560019      -0.21162297 </v>
   <v>       0.30865771       0.37389002      -0.21121098 </v>
   <v>      -0.31703776       0.12252299      -0.21140572 </v>
   <v>      -0.19135194       0.37504322      -0.21147740 </v>
   <v>       0.43319152      -0.37752143      -0.21104690 </v>
   <v>      -0.44089300      -0.12612265      -0.21133503 </v>
   <v>      -0.31676697      -0.37743472      -0.21139988 </v>
   <v>       0.18730906      -0.04428699       0.47863910 </v>
   <v>      -0.06259409      -0.04450274       0.47867185 </v>
   <v>       0.06253728       0.20593809       0.47863583 </v>
   <v>      -0.44126782       0.37337458      -0.21127499 </v>
   <v>       0.06240027      -0.29411146       0.47851123 </v>
   <v>      -0.18777864       0.20585619       0.47869665 </v>
   <v>       0.31248173       0.20572297       0.47868558 </v>
   <v>      -0.18751982      -0.29417814       0.47861843 </v>
   <v>       0.31227602      -0.29419877       0.47862767 </v>
   <v>      -0.31252961      -0.04407326       0.47863903 </v>
   <v>       0.43728162      -0.04431967       0.47866545 </v>
   <v>      -0.06279469       0.45568844       0.47857705 </v>
   <v>       0.18730061       0.45571216       0.47863445 </v>
   <v>      -0.43778730       0.20574178       0.47866641 </v>
   <v>       0.43730726       0.45576207       0.47847632 </v>
   <v>      -0.31296813       0.45558732       0.47853200 </v>
   <v>      -0.43751036      -0.29418135       0.47868160 </v>
   <v>       0.06559012       0.04039261      -0.25577930 </v>
   <v>      -0.05952822      -0.20919552      -0.25548944 </v>
   <v>       0.18976527      -0.20837858      -0.25555114 </v>
   <v>      -0.18445079       0.04114172      -0.25565105 </v>
   <v>      -0.06018453       0.29087759      -0.25549324 </v>
   <v>       0.19049344       0.29112828      -0.25564043 </v>
   <v>       0.31499257       0.04161709      -0.25595473 </v>
   <v>       0.06535997      -0.45922296      -0.25558453 </v>
   <v>      -0.30963560      -0.20846820      -0.25572836 </v>
   <v>       0.43961835      -0.20811715      -0.25558031 </v>
   <v>      -0.30986189       0.29144557      -0.25573034 </v>
   <v>       0.44003889       0.29163227      -0.25571507 </v>
   <v>      -0.18427656      -0.45940563      -0.25576194 </v>
   <v>       0.31525058      -0.45856546      -0.25564247 </v>
   <v>      -0.43440030       0.04139897      -0.25572586 </v>
   <v>       0.06175532      -0.12855183      -0.47863472 </v>
   <v>       0.18669732       0.12151390      -0.47867722 </v>
   <v>      -0.06335748       0.12156629      -0.47856480 </v>
   <v>       0.31162449      -0.12800498      -0.47862408 </v>
   <v>      -0.18835158      -0.12856828      -0.47863749 </v>
   <v>       0.06150044       0.37240617      -0.47863496 </v>
   <v>      -0.43482491      -0.45863413      -0.25578633 </v>
   <v>       0.18690890      -0.37827693      -0.47862301 </v>
   <v>      -0.06326170      -0.37819490      -0.47858088 </v>
   <v>       0.43673565       0.12162990      -0.47863322 </v>
   <v>      -0.31332853       0.12146193      -0.47862650 </v>
   <v>       0.31144859       0.37179275      -0.47863122 </v>
   <v>      -0.18818514       0.37200209      -0.47863411 </v>
   <v>       0.43660788      -0.37797194      -0.47867708 </v>
   <v>      -0.31340286      -0.37871158      -0.47871464 </v>
   <v>      -0.43791970      -0.12793336      -0.47857187 </v>
   <v>      -0.43818553       0.37193662      -0.47863809 </v>
   <v>       0.18442410      -0.04269280      -0.30001411 </v>
   <v>      -0.06488349      -0.04193480      -0.30030359 </v>
   <v>       0.06058981       0.20758775      -0.30025577 </v>
   <v>       0.06014769      -0.29247826      -0.30026990 </v>
   <v>       0.30977540       0.20705903      -0.29999366 </v>
   <v>      -0.18937181       0.20738406      -0.30020885 </v>
   <v>       0.31045741      -0.29311224      -0.30019787 </v>
   <v>      -0.18988721      -0.29220860      -0.30018927 </v>
   <v>       0.43558012      -0.04274003      -0.30018731 </v>
   <v>      -0.31540630      -0.04271151      -0.30022288 </v>
   <v>       0.18511570       0.45810264      -0.30032346 </v>
   <v>      -0.06495905       0.45801179      -0.30033065 </v>
   <v>      -0.43993927       0.20727743      -0.30015200 </v>
   <v>       0.43516436       0.45788951      -0.30022860 </v>
   <v>      -0.31573856       0.45757105      -0.30017699 </v>
   <v>      -0.43936557      -0.29288849      -0.30021597 </v>
   <v>      -0.06347057      -0.04272877      -0.43451853 </v>
   <v>       0.18698909      -0.04257806      -0.43450414 </v>
   <v>       0.06216675       0.20705391      -0.43464422 </v>
   <v>       0.06184136      -0.29389863      -0.43451136 </v>
   <v>       0.31138122       0.20646616      -0.43447687 </v>
   <v>      -0.18883162       0.20697139      -0.43451572 </v>
   <v>       0.31166838      -0.29304871      -0.43454167 </v>
   <v>      -0.18853397      -0.29354609      -0.43454004 </v>
   <v>       0.43650273      -0.04259033      -0.43465775 </v>
   <v>      -0.31267787      -0.04290154      -0.43448103 </v>
   <v>       0.18722131       0.45739716      -0.43452524 </v>
   <v>      -0.06347417       0.45663490      -0.43438741 </v>
   <v>      -0.43765459       0.20714014      -0.43450471 </v>
   <v>      -0.31316777       0.45715349      -0.43454863 </v>
   <v>       0.43699228       0.45720546      -0.43448762 </v>
   <v>      -0.43772687      -0.29280717      -0.43449870 </v>
   <v>       0.06633848      -0.12532850      -0.34504593 </v>
   <v>       0.19141203       0.12492684      -0.34483309 </v>
   <v>      -0.05895291       0.12492597      -0.34494970 </v>
   <v>      -0.18392365      -0.12517064      -0.34494124 </v>
   <v>       0.31627516      -0.12577382      -0.34505626 </v>
   <v>       0.06615671       0.37423465      -0.34502334 </v>
   <v>       0.19113736      -0.37495984      -0.34488554 </v>
   <v>      -0.05869216      -0.37506913      -0.34503055 </v>
   <v>      -0.30872007       0.12496931      -0.34498896 </v>
   <v>      -0.18378980       0.37483265      -0.34488798 </v>
   <v>       0.44117695       0.12438927      -0.34507046 </v>
   <v>       0.31625507       0.37462897      -0.34509175 </v>
   <v>      -0.30876555      -0.37518499      -0.34490649 </v>
   <v>      -0.43376721      -0.12515673      -0.34484153 </v>
   <v>       0.44116227      -0.37513266      -0.34493329 </v>
   <v>      -0.43395815       0.37484196      -0.34492705 </v>
   <v>       0.05874017       0.03839910      -0.38916083 </v>
   <v>       0.18397480      -0.21136537      -0.38900156 </v>
   <v>      -0.06617783      -0.21196941      -0.38900073 </v>
   <v>       0.30911640       0.03853670      -0.38890050 </v>
   <v>      -0.19098838       0.03834813      -0.38900871 </v>
   <v>      -0.06623688       0.28792948      -0.38910430 </v>
   <v>       0.18450160       0.28950546      -0.38903086 </v>
   <v>       0.43365797      -0.21220623      -0.38907952 </v>
   <v>       0.05901350      -0.46186436      -0.38898193 </v>
   <v>       0.43398920       0.28849021      -0.38914783 </v>
   <v>      -0.31604014      -0.21174502      -0.38899557 </v>
   <v>      -0.31621738       0.28781851      -0.38909715 </v>
   <v>       0.30892062      -0.46100407      -0.38898454 </v>
   <v>      -0.19089570      -0.46153106      -0.38892835 </v>
   <v>      -0.44055052       0.03888270      -0.38890641 </v>
   <v>      -0.44098549      -0.46184293      -0.38902514 </v>
  </varray>
 </structure>
 <varray name="primitive_index" >
  <v type="int" >        1 </v>
  <v type="int" >      125 </v>
  <v type="int" >       60 </v>
  <v type="int" >       83 </v>
  <v type="int" >       44 </v>
  <v type="int" >      202 </v>
  <v type="int" >       26 </v>
  <v type="int" >      256 </v>
  <v type="int" >      111 </v>
  <v type="int" >      155 </v>
  <v type="int" >      277 </v>
  <v type="int" >       51 </v>
  <v type="int" >      102 </v>
  <v type="int" >      182 </v>
  <v type="int" >      212 </v>
  <v type="int" >       20 </v>
  <v type="int" >      108 </v>
  <v type="int" >      170 </v>
  <v type="int" >       50 </v>
  <v type="int" >      146 </v>
  <v type="int" >      104 </v>
  <v type="int" >      163 </v>
  <v type="int" >      176 </v>
  <v type="int" >      284 </v>
  <v type="int" >      166 </v>
  <v type="int" >      117 </v>
  <v type="int" >      145 </v>
  <v type="int" >      250 </v>
  <v type="int" >      167 </v>
  <v type="int" >      205 </v>
  <v type="int" >      114 </v>
  <v type="int" >      249 </v>
  <v type="int" >       91 </v>
  <v type="int" >      213 </v>
  <v type="int" >      192 </v>
  <v type="int" >      174 </v>
  <v type="int" >       92 </v>
  <v type="int" >      276 </v>
  <v type="int" >       97 </v>
  <v type="int" >      189 </v>
  <v type="int" >      229 </v>
  <v type="int" >      175 </v>
  <v type="int" >       30 </v>
  <v type="int" >      185 </v>
  <v type="int" >      200 </v>
  <v type="int" >       52 </v>
  <v type="int" >      179 </v>
  <v type="int" >      103 </v>
  <v type="int" >      112 </v>
  <v type="int" >       24 </v>
  <v type="int" >      283 </v>
  <v type="int" >      127 </v>
  <v type="int" >      261 </v>
  <v type="int" >      139 </v>
  <v type="int" >      288 </v>
  <v type="int" >      137 </v>
  <v type="int" >      168 </v>
  <v type="int" >      118 </v>
  <v type="int" >      265 </v>
  <v type="int" >       58 </v>
  <v type="int" >      275 </v>
  <v type="int" >       81 </v>
  <v type="int" >      221 </v>
  <v type="int" >      135 </v>
  <v type="int" >      214 </v>
  <v type="int" >      215 </v>
  <v type="int" >       72 </v>
  <v type="int" >       98 </v>
  <v type="int" >      226 </v>
  <v type="int" >       28 </v>
  <v type="int" >      178 </v>
  <v type="int" >      109 </v>
  <v type="int" >      263 </v>
  <v type="int" >      220 </v>
  <v type="int" >      242 </v>
  <v type="int" >      159 </v>
  <v type="int" >      130 </v>
  <v type="int" >      210 </v>
  <v type="int" >      101 </v>
  <v type="int" >      171 </v>
  <v type="int" >      258 </v>
  <v type="int" >      194 </v>
  <v type="int" >       47 </v>
  <v type="int" >      216 </v>
  <v type="int" >       86 </v>
  <v type="int" >      207 </v>
  <v type="int" >      208 </v>
  <v type="int" >      172 </v>
  <v type="int" >       73 </v>
  <v type="int" >       25 </v>
  <v type="int" >      116 </v>
  <v type="int" >       12 </v>
  <v type="int" >      219 </v>
  <v type="int" >      206 </v>
  <v type="int" >      282 </v>
  <v type="int" >       48 </v>
  <v type="int" >      164 </v>
  <v type="int" >      268 </v>
  <v type="int" >      281 </v>
  <v type="int" >      245 </v>
  <v type="int" >       14 </v>
  <v type="int" >      120 </v>
  <v type="int" >      280 </v>
  <v type="int" >      150 </v>
  <v type="int" >      266 </v>
  <v type="int" >       29 </v>
  <v type="int" >      124 </v>
  <v type="int" >      255 </v>
  <v type="int" >      191 </v>
  <v type="int" >       18 </v>
  <v type="int" >      190 </v>
  <v type="int" >      231 </v>
  <v type="int" >      287 </v>
  <v type="int" >       41 </v>
  <v type="int" >       13 </v>
  <v type="int" >      165 </v>
  <v type="int" >      161 </v>
  <v type="int" >      248 </v>
  <v type="int" >       45 </v>
  <v type="int" >      273 </v>
  <v type="int" >       84 </v>
  <v type="int" >      264 </v>
  <v type="int" >        4 </v>
  <v type="int" >      123 </v>
  <v type="int" >       67 </v>
  <v type="int" >       64 </v>
  <v type="int" >       16 </v>
  <v type="int" >       17 </v>
  <v type="int" >        7 </v>
  <v type="int" >      259 </v>
  <v type="int" >      134 </v>
  <v type="int" >        6 </v>
  <v type="int" >       39 </v>
  <v type="int" >      222 </v>
  <v type="int" >      253 </v>
  <v type="int" >       88 </v>
  <v type="int" >        5 </v>
  <v type="int" >      110 </v>
  <v type="int" >       36 </v>
  <v type="int" >      181 </v>
  <v type="int" >      285 </v>
  <v type="int" >      160 </v>
  <v type="int" >      143 </v>
  <v type="int" >      158 </v>
  <v type="int" >       82 </v>
  <v type="int" >       74 </v>
  <v type="int" >      241 </v>
  <v type="int" >      235 </v>
  <v type="int" >       23 </v>
  <v type="int" >      218 </v>
  <v type="int" >      238 </v>
  <v type="int" >      131 </v>
  <v type="int" >      257 </v>
  <v type="int" >      201 </v>
  <v type="int" >       80 </v>
  <v type="int" >      113 </v>
  <v type="int" >      232 </v>
  <v type="int" >      278 </v>
  <v type="int" >       69 </v>
  <v type="int" >      251 </v>
  <v type="int" >      197 </v>
  <v type="int" >        3 </v>
  <v type="int" >      149 </v>
  <v type="int" >      224 </v>
  <v type="int" >       55 </v>
  <v type="int" >      254 </v>
  <v type="int" >       49 </v>
  <v type="int" >      272 </v>
  <v type="int" >      132 </v>
  <v type="int" >      138 </v>
  <v type="int" >      188 </v>
  <v type="int" >       57 </v>
  <v type="int" >      184 </v>
  <v type="int" >       33 </v>
  <v type="int" >       66 </v>
  <v type="int" >       94 </v>
  <v type="int" >      236 </v>
  <v type="int" >      223 </v>
  <v type="int" >      106 </v>
  <v type="int" >      157 </v>
  <v type="int" >       21 </v>
  <v type="int" >      230 </v>
  <v type="int" >      234 </v>
  <v type="int" >       99 </v>
  <v type="int" >       75 </v>
  <v type="int" >      105 </v>
  <v type="int" >      269 </v>
  <v type="int" >      244 </v>
  <v type="int" >      237 </v>
  <v type="int" >      156 </v>
  <v type="int" >      199 </v>
  <v type="int" >      169 </v>
  <v type="int" >        9 </v>
  <v type="int" >       46 </v>
  <v type="int" >      262 </v>
  <v type="int" >      151 </v>
  <v type="int" >      187 </v>
  <v type="int" >       11 </v>
  <v type="int" >      239 </v>
  <v type="int" >      211 </v>
  <v type="int" >       43 </v>
  <v type="int" >       31 </v>
  <v type="int" >       19 </v>
  <v type="int" >       71 </v>
  <v type="int" >       87 </v>
  <v type="int" >      243 </v>
  <v type="int" >      267 </v>
  <v type="int" >       27 </v>
  <v type="int" >      140 </v>
  <v type="int" >      286 </v>
  <v type="int" >      144 </v>
  <v type="int" >       10 </v>
  <v type="int" >      107 </v>
  <v type="int" >      270 </v>
  <v type="int" >       68 </v>
  <v type="int" >      203 </v>
  <v type="int" >      119 </v>
  <v type="int" >       34 </v>
  <v type="int" >      183 </v>
  <v type="int" >      177 </v>
  <v type="int" >      252 </v>
  <v type="int" >      195 </v>
  <v type="int" >       77 </v>
  <v type="int" >      247 </v>
  <v type="int" >      173 </v>
  <v type="int" >      225 </v>
  <v type="int" >       37 </v>
  <v type="int" >      274 </v>
  <v type="int" >       63 </v>
  <v type="int" >      233 </v>
  <v type="int" >      154 </v>
  <v type="int" >      141 </v>
  <v type="int" >       38 </v>
  <v type="int" >       54 </v>
  <v type="int" >      246 </v>
  <v type="int" >      152 </v>
  <v type="int" >       53 </v>
  <v type="int" >      193 </v>
  <v type="int" >       76 </v>
  <v type="int" >      133 </v>
  <v type="int" >      129 </v>
  <v type="int" >      162 </v>
  <v type="int" >       62 </v>
  <v type="int" >       65 </v>
  <v type="int" >       93 </v>
  <v type="int" >      271 </v>
  <v type="int" >       90 </v>
  <v type="int" >       32 </v>
  <v type="int" >       56 </v>
  <v type="int" >       95 </v>
  <v type="int" >       59 </v>
  <v type="int" >       42 </v>
  <v type="int" >        8 </v>
  <v type="int" >      228 </v>
  <v type="int" >       70 </v>
  <v type="int" >      186 </v>
  <v type="int" >      196 </v>
  <v type="int" >      121 </v>
  <v type="int" >      122 </v>
  <v type="int" >       79 </v>
  <v type="int" >        2 </v>
  <v type="int" >      198 </v>
  <v type="int" >      153 </v>
  <v type="int" >      240 </v>
  <v type="int" >      209 </v>
  <v type="int" >       35 </v>
  <v type="int" >      204 </v>
  <v type="int" >       85 </v>
  <v type="int" >      227 </v>
  <v type="int" >       89 </v>
  <v type="int" >       40 </v>
  <v type="int" >       78 </v>
  <v type="int" >      142 </v>
  <v type="int" >       15 </v>
  <v type="int" >      136 </v>
  <v type="int" >      148 </v>
  <v type="int" >      217 </v>
  <v type="int" >      100 </v>
  <v type="int" >       61 </v>
  <v type="int" >       96 </v>
  <v type="int" >      126 </v>
  <v type="int" >      115 </v>
  <v type="int" >      180 </v>
  <v type="int" >      147 </v>
  <v type="int" >      279 </v>
  <v type="int" >       22 </v>
  <v type="int" >      260 </v>
  <v type="int" >      128 </v>
 </varray>
 <kpoints>
  <generation param="Gamma">
   <v type="int" name="divisions">       4        4        1 </v>
   <v name="usershift">      0.00000000       0.00000000       0.00000000 </v>
   <v name="genvec1">      0.25000000       0.00000000       0.00000000 </v>
   <v name="genvec2">      0.00000000       0.25000000       0.00000000 </v>
   <v name="genvec3">      0.00000000       0.00000000       1.00000000 </v>
   <v name="shift">      0.00000000       0.00000000       0.00000000 </v>
  </generation>
  <varray name="kpointlist" >
   <v>       0.00000000       0.00000000       0.00000000 </v>
   <v>       0.25000000       0.00000000       0.00000000 </v>
   <v>       0.50000000       0.00000000       0.00000000 </v>
   <v>       0.00000000       0.25000000       0.00000000 </v>
   <v>       0.25000000       0.25000000       0.00000000 </v>
   <v>       0.50000000       0.25000000       0.00000000 </v>
   <v>      -0.25000000       0.25000000       0.00000000 </v>
   <v>       0.00000000       0.50000000       0.00000000 </v>
   <v>       0.25000000       0.50000000       0.00000000 </v>
   <v>       0.50000000       0.50000000       0.00000000 </v>
  </varray>
  <varray name="weights" >
   <v>       0.06250000 </v>
   <v>       0.12500000 </v>
   <v>       0.06250000 </v>
   <v>       0.12500000 </v>
   <v>       0.12500000 </v>
   <v>       0.12500000 </v>
   <v>       0.12500000 </v>
   <v>       0.06250000 </v>
   <v>       0.12500000 </v>
   <v>       0.06250000 </v>
  </varray>
 </kpoints>
 <parameters>
  <separator name="general" >
   <i type="string" name="SYSTEM">unknown system</i>
   <i type="logical" name="LCOMPAT"> F  </i>
  </separator>
  <separator name="electronic" >
   <i type="string" name="PREC">accura</i>
   <i name="ENMAX">    450.00000000</i>
   <i name="ENAUG">    838.43500000</i>
   <i name="EDIFF">      0.00000100</i>
   <i type="int" name="IALGO">    68</i>
   <i type="int" name="IWAVPR">    11</i>
   <i type="int" name="NBANDS">  1386</i>
   <i name="NELECT">   2290.00000000</i>
   <i type="int" name="TURBO">     0</i>
   <i type="int" name="IRESTART">     0</i>
   <i type="int" name="NREBOOT">     0</i>
   <i type="int" name="NMIN">     0</i>
   <i name="EREF">      0.00000000</i>
   <separator name="electronic smearing" >
    <i type="int" name="ISMEAR">     0</i>
    <i name="SIGMA">      0.15000000</i>
    <i name="KSPACING">      0.50000000</i>
    <i type="logical" name="KGAMMA"> T  </i>
   </separator>
   <separator name="electronic projectors" >
    <i type="logical" name="LREAL"> T  </i>
    <v name="ROPT">     -0.00025000     -0.00025000</v>
    <i type="int" name="LMAXPAW">  -100</i>
    <i type="int" name="LMAXMIX">     2</i>
    <i type="logical" name="NLSPLINE"> F  </i>
   </separator>
   <separator name="electronic startup" >
    <i type="int" name="ISTART">     0</i>
    <i type="int" name="ICHARG">     2</i>
    <i type="int" name="INIWAV">     1</i>
   </separator>
   <separator name="electronic spin" >
    <i type="int" name="ISPIN">     1</i>
    <i type="logical" name="LNONCOLLINEAR"> F  </i>
    <v name="MAGMOM">      1.00000000      1.00000000      1.00000000      1.00000000      1.00000000      1.00000000      1.00000000      1.00000000      1.00000000      1.00000000      1.00000000      1.00000000      1.00000000      1.00000000      1.00000000      1.00000000      1.00000000      1.00000000      1.00000000      1.00000000
      1.00000000      1.00000000      1.00000000      1.00000000      1.00000000      1.00000000      1.00000000      1.00000000      1.00000000      1.00000000      1.00000000      1.00000000      1.00000000      1.00000000      1.00000000      1.00000000      1.00000000      1.00000000      1.00000000      1.00000000
      1.00000000      1.00000000      1.00000000      1.00000000      1.00000000      1.00000000      1.00000000      1.00000000      1.00000000      1.00000000      1.00000000      1.00000000      1.00000000      1.00000000      1.00000000      1.00000000      1.00000000      1.00000000      1.00000000      1.00000000
      1.00000000      1.00000000      1.00000000      1.00000000      1.00000000      1.00000000      1.00000000      1.00000000      1.00000000      1.00000000      1.00000000      1.00000000      1.00000000      1.00000000      1.00000000      1.00000000      1.00000000      1.00000000      1.00000000      1.00000000
      1.00000000      1.00000000      1.00000000      1.00000000      1.00000000      1.00000000      1.00000000      1.00000000      1.00000000      1.00000000      1.00000000      1.00000000      1.00000000      1.00000000      1.00000000      1.00000000      1.00000000      1.00000000      1.00000000      1.00000000
      1.00000000      1.00000000      1.00000000      1.00000000      1.00000000      1.00000000      1.00000000      1.00000000      1.00000000      1.00000000      1.00000000      1.00000000      1.00000000      1.00000000      1.00000000      1.00000000      1.00000000      1.00000000      1.00000000      1.00000000
      1.00000000      1.00000000      1.00000000      1.00000000      1.00000000      1.00000000      1.00000000      1.00000000      1.00000000      1.00000000      1.00000000      1.00000000      1.00000000      1.00000000      1.00000000      1.00000000      1.00000000      1.00000000      1.00000000      1.00000000
      1.00000000      1.00000000      1.00000000      1.00000000      1.00000000      1.00000000      1.00000000      1.00000000      1.00000000      1.00000000      1.00000000      1.00000000      1.00000000      1.00000000      1.00000000      1.00000000      1.00000000      1.00000000      1.00000000      1.00000000
      1.00000000      1.00000000      1.00000000      1.00000000      1.00000000      1.00000000      1.00000000      1.00000000      1.00000000      1.00000000      1.00000000      1.00000000      1.00000000      1.00000000      1.00000000      1.00000000      1.00000000      1.00000000      1.00000000      1.00000000
      1.00000000      1.00000000      1.00000000      1.00000000      1.00000000      1.00000000      1.00000000      1.00000000      1.00000000      1.00000000      1.00000000      1.00000000      1.00000000      1.00000000      1.00000000      1.00000000      1.00000000      1.00000000      1.00000000      1.00000000
      1.00000000      1.00000000      1.00000000      1.00000000      1.00000000      1.00000000      1.00000000      1.00000000      1.00000000      1.00000000      1.00000000      1.00000000      1.00000000      1.00000000      1.00000000      1.00000000      1.00000000      1.00000000      1.00000000      1.00000000
      1.00000000      1.00000000      1.00000000      1.00000000      1.00000000      1.00000000      1.00000000      1.00000000      1.00000000      1.00000000      1.00000000      1.00000000      1.00000000      1.00000000      1.00000000      1.00000000      1.00000000      1.00000000      1.00000000      1.00000000
      1.00000000      1.00000000      1.00000000      1.00000000      1.00000000      1.00000000      1.00000000      1.00000000      1.00000000      1.00000000      1.00000000      1.00000000      1.00000000      1.00000000      1.00000000      1.00000000      1.00000000      1.00000000      1.00000000      1.00000000
      1.00000000      1.00000000      1.00000000      1.00000000      1.00000000      1.00000000      1.00000000      1.00000000      1.00000000      1.00000000      1.00000000      1.00000000      1.00000000      1.00000000      1.00000000      1.00000000      1.00000000      1.00000000      1.00000000      1.00000000
      1.00000000      1.00000000      1.00000000      1.00000000      1.00000000      1.00000000      1.00000000      1.00000000</v>
    <i name="NUPDOWN">     -1.00000000</i>
    <i type="logical" name="LSORBIT"> F  </i>
    <v name="SAXIS">      0.00000000      0.00000000      1.00000000</v>
    <i type="logical" name="LSPIRAL"> F  </i>
    <v name="QSPIRAL">      0.00000000      0.00000000      0.00000000</v>
    <i type="logical" name="LZEROZ"> F  </i>
   </separator>
   <separator name="electronic exchange-correlation" >
    <i type="logical" name="LASPH"> F  </i>
    <i type="logical" name="LMETAGGA"> F  </i>
   </separator>
   <separator name="electronic convergence" >
    <i type="int" name="NELM">   100</i>
    <i type="int" name="NELMDL">     0</i>
    <i type="int" name="NELMIN">     4</i>
    <i name="ENINI">    450.00000000</i>
    <separator name="electronic convergence detail" >
     <i type="logical" name="LDIAG"> T  </i>
     <i type="logical" name="LSUBROT"> F  </i>
     <i name="WEIMIN">      0.00100000</i>
     <i name="EBREAK">      0.00000000</i>
     <i name="DEPER">      0.30000000</i>
     <i type="int" name="NRMM">     4</i>
     <i name="TIME">      0.40000000</i>
    </separator>
   </separator>
   <separator name="electronic mixer" >
    <i name="AMIX">      0.40000000</i>
    <i name="BMIX">      1.00000000</i>
    <i name="AMIN">      0.10000000</i>
    <i name="AMIX_MAG">      1.60000000</i>
    <i name="BMIX_MAG">      1.00000000</i>
    <separator name="electronic mixer details" >
     <i type="int" name="IMIX">     4</i>
     <i type="logical" name="MIXFIRST"> F  </i>
     <i type="int" name="MAXMIX">   -45</i>
     <i name="WC">    100.00000000</i>
     <i type="int" name="INIMIX">     1</i>
     <i type="int" name="MIXPRE">     1</i>
     <i type="int" name="MREMOVE">     5</i>
    </separator>
   </separator>
   <separator name="electronic dipolcorrection" >
    <i type="logical" name="LDIPOL"> F  </i>
    <i type="logical" name="LMONO"> F  </i>
    <i type="int" name="IDIPOL">     0</i>
    <i name="EPSILON">      1.00000000</i>
    <v name="DIPOL">   -100.00000000   -100.00000000   -100.00000000</v>
    <i name="EFIELD">      0.00000000</i>
   </separator>
  </separator>
  <separator name="grids" >
   <i type="int" name="NGX">    70</i>
   <i type="int" name="NGY">    60</i>
   <i type="int" name="NGZ">   320</i>
   <i type="int" name="NGXF">   140</i>
   <i type="int" name="NGYF">   120</i>
   <i type="int" name="NGZF">   640</i>
   <i type="logical" name="ADDGRID"> F  </i>
  </separator>
  <separator name="ionic" >
   <i type="int" name="NSW">     5</i>
   <i type="int" name="IBRION">     2</i>
   <i type="int" name="MDALGO">     0</i>
   <i type="int" name="ISIF">     2</i>
   <i name="PSTRESS">      0.00000000</i>
   <i name="EDIFFG">      0.00001000</i>
   <i type="int" name="NFREE">     1</i>
   <i name="POTIM">      0.25000000</i>
   <i name="SMASS">     -3.00000000</i>
   <i name="SCALEE">      1.00000000</i>
  </separator>
  <separator name="ionic md" >
   <i name="TEBEG">      0.00010000</i>
   <i name="TEEND">      0.00010000</i>
   <i type="int" name="NBLOCK">     1</i>
   <i type="int" name="KBLOCK">     5</i>
   <i type="int" name="NPACO">   256</i>
   <i name="APACO">     16.00000000</i>
  </separator>
  <separator name="symmetry" >
   <i type="int" name="ISYM">     2</i>
   <i name="SYMPREC">      0.00001000</i>
  </separator>
  <separator name="dos" >
   <i type="int" name="LORBIT">     0</i>
   <v name="RWIGS">     -1.00000000     -1.00000000</v>
   <i type="int" name="NEDOS">   301</i>
   <i name="EMIN">     10.00000000</i>
   <i name="EMAX">    -10.00000000</i>
   <i name="EFERMI">      0.00000000</i>
  </separator>
  <separator name="writing" >
   <i type="int" name="NWRITE">     2</i>
   <i type="logical" name="LWAVE"> F  </i>
   <i type="logical" name="LDOWNSAMPLE"> F  </i>
   <i type="logical" name="LCHARG"> F  </i>
   <i type="logical" name="LPARD"> F  </i>
   <i type="logical" name="LVTOT"> F  </i>
   <i type="logical" name="LVHAR"> F  </i>
   <i type="logical" name="LELF"> F  </i>
   <i type="logical" name="LOPTICS"> F  </i>
   <v name="STM">      0.00000000      0.00000000      0.00000000      0.00000000      0.00000000      0.00000000      0.00000000</v>
  </separator>
  <separator name="performance" >
   <i type="int" name="NPAR">    14</i>
   <i type="int" name="NSIM">     4</i>
   <i type="int" name="NBLK">    -1</i>
   <i type="logical" name="LPLANE"> T  </i>
   <i type="logical" name="LSCALAPACK"> T  </i>
   <i type="logical" name="LSCAAWARE"> T  </i>
   <i type="logical" name="LSCALU"> F  </i>
   <i type="logical" name="LASYNC"> F  </i>
   <i type="logical" name="LORBITALREAL"> F  </i>
  </separator>
  <separator name="miscellaneous" >
   <i type="int" name="IDIOT">     3</i>
   <i type="int" name="ISPECIAL">     0</i>
   <i type="logical" name="LMUSIC"> F  </i>
   <v name="POMASS">     55.84700000     54.93800000</v>
   <v name="DARWINR">      0.00000000      0.00000000</v>
   <v name="DARWINV">      1.00000000      1.00000000</v>
   <i type="logical" name="LCORR"> T  </i>
  </separator>
  <i type="logical" name="GGA_COMPAT"> T  </i>
  <i type="logical" name="LBERRY"> F  </i>
  <i type="int" name="ICORELEVEL">     0</i>
  <i type="logical" name="LDAU"> F  </i>
  <i type="int" name="I_CONSTRAINED_M">     0</i>
  <separator name="electronic exchange-correlation" >
   <i type="string" name="GGA">--</i>
   <i type="int" name="VOSKOWN">     0</i>
   <i type="logical" name="LHFCALC"> F  </i>
   <i type="string" name="PRECFOCK"></i>
   <i type="logical" name="LSYMGRAD"> F  </i>
   <i type="logical" name="LHFONE"> F  </i>
   <i type="logical" name="LRHFCALC"> F  </i>
   <i type="logical" name="LTHOMAS"> F  </i>
   <i type="logical" name="LMODELHF"> F  </i>
   <i name="ENCUT4O">     -1.00000000</i>
   <i type="int" name="EXXOEP">     0</i>
   <i type="int" name="FOURORBIT">     0</i>
   <i name="AEXX">      0.00000000</i>
   <i name="HFALPHA">      0.00000000</i>
   <i name="MCALPHA">      0.00000000</i>
   <i name="ALDAX">      1.00000000</i>
   <i name="AGGAX">      1.00000000</i>
   <i name="ALDAC">      1.00000000</i>
   <i name="AGGAC">      1.00000000</i>
   <i type="int" name="NKREDX">     1</i>
   <i type="int" name="NKREDY">     1</i>
   <i type="int" name="NKREDZ">     1</i>
   <i type="logical" name="SHIFTRED"> F  </i>
   <i type="logical" name="ODDONLY"> F  </i>
   <i type="logical" name="EVENONLY"> F  </i>
   <i type="int" name="LMAXFOCK">     0</i>
   <i type="int" name="NMAXFOCKAE">     0</i>
   <i type="logical" name="LFOCKAEDFT"> F  </i>
   <i name="HFSCREEN">      0.00000000</i>
   <i name="HFSCREENC">      0.00000000</i>
   <i type="int" name="NBANDSGWLOW">     0</i>
  </separator>
  <separator name="vdW DFT" >
   <i type="logical" name="LUSE_VDW"> F  </i>
   <i name="Zab_VDW">     -0.84910000</i>
   <i name="PARAM1">      0.12340000</i>
   <i name="PARAM2">      1.00000000</i>
   <i name="PARAM3">      0.00000000</i>
  </separator>
  <separator name="model GW" >
   <i type="int" name="MODEL_GW">     0</i>
   <i name="MODEL_EPS0">      7.68123389</i>
   <i name="MODEL_ALPHA">      1.00000000</i>
  </separator>
  <separator name="linear response parameters" >
   <i type="logical" name="LEPSILON"> F  </i>
   <i type="logical" name="LRPA"> F  </i>
   <i type="logical" name="LNABLA"> F  </i>
   <i type="logical" name="LVEL"> F  </i>
   <i type="int" name="KINTER">     0</i>
   <i name="CSHIFT">      0.10000000</i>
   <i name="OMEGAMAX">     -1.00000000</i>
   <i name="DEG_THRESHOLD">      0.00200000</i>
   <i name="RTIME">     -0.10000000</i>
   <i name="WPLASMAI">      0.00000000</i>
   <v name="DFIELD">      0.00000000      0.00000000      0.00000000</v>
   <v name="WPLASMA">      0.00000000      0.00000000      0.00000000      0.00000000      0.00000000      0.00000000      0.00000000      0.00000000      0.00000000</v>
  </separator>
  <separator name="orbital magnetization" >
   <i type="logical" name="NUCIND"> F  </i>
   <v name="MAGPOS">      0.00000000      0.00000000      0.00000000</v>
   <i type="logical" name="LNICSALL"> T  </i>
   <i type="logical" name="ORBITALMAG"> F  </i>
   <i type="logical" name="LMAGBLOCH"> F  </i>
   <i type="logical" name="LCHIMAG"> F  </i>
   <i type="logical" name="LGAUGE"> T  </i>
   <i type="int" name="MAGATOM">     0</i>
   <v name="MAGDIPOL">      0.00000000      0.00000000      0.00000000</v>
   <v name="AVECCONST">      0.00000000      0.00000000      0.00000000</v>
  </separator>
  <separator name="response functions" >
   <i type="logical" name="LADDER"> F  </i>
   <i type="logical" name="LRPAFORCE"> F  </i>
   <i type="logical" name="LFXC"> F  </i>
   <i type="logical" name="LHARTREE"> T  </i>
   <i type="int" name="IBSE">     0</i>
   <v type="int" name="KPOINT">    -1     0     0     0</v>
   <i type="logical" name="LTCTE"> F  </i>
   <i type="logical" name="LTETE"> F  </i>
   <i type="logical" name="LTRIPLET"> F  </i>
   <i type="logical" name="LFXCEPS"> F  </i>
   <i type="logical" name="LFXHEG"> F  </i>
   <i type="int" name="NATURALO">     2</i>
   <i type="logical" name="L2ORDER"> F  </i>
   <i type="logical" name="LMP2LT"> F  </i>
   <i type="logical" name="LUSEW"> F  </i>
   <i name="ENCUTGW">     -2.00000000</i>
   <i name="ENCUTGWSOFT">     -2.00000000</i>
   <i name="ENCUTLF">     -1.00000000</i>
   <i type="int" name="LMAXMP2">    -1</i>
   <i name="SCISSOR">      0.00000000</i>
   <i type="int" name="NOMEGA">     0</i>
   <i type="int" name="NOMEGAR">     0</i>
   <i type="int" name="NBANDSGW">    -1</i>
   <i type="int" name="NBANDSO">    -1</i>
   <i type="int" name="NBANDSV">    -1</i>
   <i type="int" name="NELM">   100</i>
   <i type="int" name="NELMHF">     1</i>
   <i type="int" name="DIM">     3</i>
   <i type="int" name="ANTIRES">     0</i>
   <i name="OMEGAMAX">    -30.00000000</i>
   <i name="OMEGAMIN">    -30.00000000</i>
   <i name="OMEGATL">   -200.00000000</i>
   <i type="int" name="OMEGAGRID">   140</i>
   <i name="CSHIFT">     -0.10000000</i>
   <i type="logical" name="SELFENERGY"> F  </i>
   <i type="logical" name="LSPECTRAL"> F  </i>
   <i type="logical" name="LSPECTRALGW"> F  </i>
   <i type="logical" name="LSINGLES"> F  </i>
   <i type="logical" name="LFERMIGW"> F  </i>
   <i type="logical" name="ODDONLYGW"> F  </i>
   <i type="logical" name="EVENONLYGW"> F  </i>
   <i type="int" name="NKREDLFX">     1</i>
   <i type="int" name="NKREDLFY">     1</i>
   <i type="int" name="NKREDLFZ">     1</i>
   <i type="int" name="MAXMEM">  2800</i>
   <i type="int" name="TELESCOPE">     0</i>
   <i type="int" name="TAUPAR">     1</i>
   <i type="int" name="OMEGAPAR">    -1</i>
   <i name="LAMBDA">      1.00000000</i>
  </separator>
  <separator name="External order field" >
   <i name="OFIELD_KAPPA">      0.00000000</i>
   <v name="OFIELD_K">      0.00000000      0.00000000      0.00000000</v>
   <i name="OFIELD_Q6_NEAR">      0.00000000</i>
   <i name="OFIELD_Q6_FAR">      0.00000000</i>
   <i name="OFIELD_A">      0.00000000</i>
  </separator>
 </parameters>
 <atominfo>
  <atoms>     288 </atoms>
  <types>       2 </types>
  <array name="atoms" >
   <dimension dim="1">ion</dimension>
   <field type="string">element</field>
   <field type="int">atomtype</field>
   <set>
    <rc><c>Fe</c><c>   1</c></rc>
    <rc><c>Fe</c><c>   1</c></rc>
    <rc><c>Fe</c><c>   1</c></rc>
    <rc><c>Fe</c><c>   1</c></rc>
    <rc><c>Fe</c><c>   1</c></rc>
    <rc><c>Fe</c><c>   1</c></rc>
    <rc><c>Fe</c><c>   1</c></rc>
    <rc><c>Fe</c><c>   1</c></rc>
    <rc><c>Fe</c><c>   1</c></rc>
    <rc><c>Fe</c><c>   1</c></rc>
    <rc><c>Fe</c><c>   1</c></rc>
    <rc><c>Fe</c><c>   1</c></rc>
    <rc><c>Fe</c><c>   1</c></rc>
    <rc><c>Fe</c><c>   1</c></rc>
    <rc><c>Fe</c><c>   1</c></rc>
    <rc><c>Fe</c><c>   1</c></rc>
    <rc><c>Fe</c><c>   1</c></rc>
    <rc><c>Fe</c><c>   1</c></rc>
    <rc><c>Fe</c><c>   1</c></rc>
    <rc><c>Fe</c><c>   1</c></rc>
    <rc><c>Fe</c><c>   1</c></rc>
    <rc><c>Fe</c><c>   1</c></rc>
    <rc><c>Fe</c><c>   1</c></rc>
    <rc><c>Fe</c><c>   1</c></rc>
    <rc><c>Fe</c><c>   1</c></rc>
    <rc><c>Fe</c><c>   1</c></rc>
    <rc><c>Fe</c><c>   1</c></rc>
    <rc><c>Fe</c><c>   1</c></rc>
    <rc><c>Fe</c><c>   1</c></rc>
    <rc><c>Fe</c><c>   1</c></rc>
    <rc><c>Fe</c><c>   1</c></rc>
    <rc><c>Fe</c><c>   1</c></rc>
    <rc><c>Fe</c><c>   1</c></rc>
    <rc><c>Fe</c><c>   1</c></rc>
    <rc><c>Fe</c><c>   1</c></rc>
    <rc><c>Fe</c><c>   1</c></rc>
    <rc><c>Fe</c><c>   1</c></rc>
    <rc><c>Fe</c><c>   1</c></rc>
    <rc><c>Fe</c><c>   1</c></rc>
    <rc><c>Fe</c><c>   1</c></rc>
    <rc><c>Fe</c><c>   1</c></rc>
    <rc><c>Fe</c><c>   1</c></rc>
    <rc><c>Fe</c><c>   1</c></rc>
    <rc><c>Fe</c><c>   1</c></rc>
    <rc><c>Fe</c><c>   1</c></rc>
    <rc><c>Fe</c><c>   1</c></rc>
    <rc><c>Fe</c><c>   1</c></rc>
    <rc><c>Fe</c><c>   1</c></rc>
    <rc><c>Fe</c><c>   1</c></rc>
    <rc><c>Fe</c><c>   1</c></rc>
    <rc><c>Fe</c><c>   1</c></rc>
    <rc><c>Fe</c><c>   1</c></rc>
    <rc><c>Fe</c><c>   1</c></rc>
    <rc><c>Fe</c><c>   1</c></rc>
    <rc><c>Fe</c><c>   1</c></rc>
    <rc><c>Fe</c><c>   1</c></rc>
    <rc><c>Fe</c><c>   1</c></rc>
    <rc><c>Fe</c><c>   1</c></rc>
    <rc><c>Fe</c><c>   1</c></rc>
    <rc><c>Fe</c><c>   1</c></rc>
    <rc><c>Fe</c><c>   1</c></rc>
    <rc><c>Fe</c><c>   1</c></rc>
    <rc><c>Fe</c><c>   1</c></rc>
    <rc><c>Fe</c><c>   1</c></rc>
    <rc><c>Fe</c><c>   1</c></rc>
    <rc><c>Fe</c><c>   1</c></rc>
    <rc><c>Fe</c><c>   1</c></rc>
    <rc><c>Fe</c><c>   1</c></rc>
    <rc><c>Fe</c><c>   1</c></rc>
    <rc><c>Fe</c><c>   1</c></rc>
    <rc><c>Fe</c><c>   1</c></rc>
    <rc><c>Fe</c><c>   1</c></rc>
    <rc><c>Fe</c><c>   1</c></rc>
    <rc><c>Fe</c><c>   1</c></rc>
    <rc><c>Fe</c><c>   1</c></rc>
    <rc><c>Fe</c><c>   1</c></rc>
    <rc><c>Fe</c><c>   1</c></rc>
    <rc><c>Fe</c><c>   1</c></rc>
    <rc><c>Fe</c><c>   1</c></rc>
    <rc><c>Fe</c><c>   1</c></rc>
    <rc><c>Fe</c><c>   1</c></rc>
    <rc><c>Fe</c><c>   1</c></rc>
    <rc><c>Fe</c><c>   1</c></rc>
    <rc><c>Fe</c><c>   1</c></rc>
    <rc><c>Fe</c><c>   1</c></rc>
    <rc><c>Fe</c><c>   1</c></rc>
    <rc><c>Fe</c><c>   1</c></rc>
    <rc><c>Fe</c><c>   1</c></rc>
    <rc><c>Fe</c><c>   1</c></rc>
    <rc><c>Fe</c><c>   1</c></rc>
    <rc><c>Fe</c><c>   1</c></rc>
    <rc><c>Fe</c><c>   1</c></rc>
    <rc><c>Fe</c><c>   1</c></rc>
    <rc><c>Fe</c><c>   1</c></rc>
    <rc><c>Fe</c><c>   1</c></rc>
    <rc><c>Fe</c><c>   1</c></rc>
    <rc><c>Fe</c><c>   1</c></rc>
    <rc><c>Fe</c><c>   1</c></rc>
    <rc><c>Fe</c><c>   1</c></rc>
    <rc><c>Fe</c><c>   1</c></rc>
    <rc><c>Fe</c><c>   1</c></rc>
    <rc><c>Fe</c><c>   1</c></rc>
    <rc><c>Fe</c><c>   1</c></rc>
    <rc><c>Fe</c><c>   1</c></rc>
    <rc><c>Fe</c><c>   1</c></rc>
    <rc><c>Fe</c><c>   1</c></rc>
    <rc><c>Fe</c><c>   1</c></rc>
    <rc><c>Fe</c><c>   1</c></rc>
    <rc><c>Fe</c><c>   1</c></rc>
    <rc><c>Fe</c><c>   1</c></rc>
    <rc><c>Fe</c><c>   1</c></rc>
    <rc><c>Fe</c><c>   1</c></rc>
    <rc><c>Fe</c><c>   1</c></rc>
    <rc><c>Fe</c><c>   1</c></rc>
    <rc><c>Fe</c><c>   1</c></rc>
    <rc><c>Fe</c><c>   1</c></rc>
    <rc><c>Fe</c><c>   1</c></rc>
    <rc><c>Fe</c><c>   1</c></rc>
    <rc><c>Fe</c><c>   1</c></rc>
    <rc><c>Fe</c><c>   1</c></rc>
    <rc><c>Fe</c><c>   1</c></rc>
    <rc><c>Fe</c><c>   1</c></rc>
    <rc><c>Fe</c><c>   1</c></rc>
    <rc><c>Fe</c><c>   1</c></rc>
    <rc><c>Fe</c><c>   1</c></rc>
    <rc><c>Fe</c><c>   1</c></rc>
    <rc><c>Fe</c><c>   1</c></rc>
    <rc><c>Fe</c><c>   1</c></rc>
    <rc><c>Fe</c><c>   1</c></rc>
    <rc><c>Fe</c><c>   1</c></rc>
    <rc><c>Fe</c><c>   1</c></rc>
    <rc><c>Fe</c><c>   1</c></rc>
    <rc><c>Fe</c><c>   1</c></rc>
    <rc><c>Fe</c><c>   1</c></rc>
    <rc><c>Fe</c><c>   1</c></rc>
    <rc><c>Fe</c><c>   1</c></rc>
    <rc><c>Fe</c><c>   1</c></rc>
    <rc><c>Fe</c><c>   1</c></rc>
    <rc><c>Fe</c><c>   1</c></rc>
    <rc><c>Fe</c><c>   1</c></rc>
    <rc><c>Fe</c><c>   1</c></rc>
    <rc><c>Fe</c><c>   1</c></rc>
    <rc><c>Fe</c><c>   1</c></rc>
    <rc><c>Fe</c><c>   1</c></rc>
    <rc><c>Fe</c><c>   1</c></rc>
    <rc><c>Fe</c><c>   1</c></rc>
    <rc><c>Fe</c><c>   1</c></rc>
    <rc><c>Fe</c><c>   1</c></rc>
    <rc><c>Fe</c><c>   1</c></rc>
    <rc><c>Fe</c><c>   1</c></rc>
    <rc><c>Fe</c><c>   1</c></rc>
    <rc><c>Fe</c><c>   1</c></rc>
    <rc><c>Fe</c><c>   1</c></rc>
    <rc><c>Fe</c><c>   1</c></rc>
    <rc><c>Fe</c><c>   1</c></rc>
    <rc><c>Fe</c><c>   1</c></rc>
    <rc><c>Fe</c><c>   1</c></rc>
    <rc><c>Fe</c><c>   1</c></rc>
    <rc><c>Fe</c><c>   1</c></rc>
    <rc><c>Fe</c><c>   1</c></rc>
    <rc><c>Fe</c><c>   1</c></rc>
    <rc><c>Fe</c><c>   1</c></rc>
    <rc><c>Fe</c><c>   1</c></rc>
    <rc><c>Fe</c><c>   1</c></rc>
    <rc><c>Fe</c><c>   1</c></rc>
    <rc><c>Fe</c><c>   1</c></rc>
    <rc><c>Fe</c><c>   1</c></rc>
    <rc><c>Fe</c><c>   1</c></rc>
    <rc><c>Fe</c><c>   1</c></rc>
    <rc><c>Fe</c><c>   1</c></rc>
    <rc><c>Fe</c><c>   1</c></rc>
    <rc><c>Fe</c><c>   1</c></rc>
    <rc><c>Fe</c><c>   1</c></rc>
    <rc><c>Fe</c><c>   1</c></rc>
    <rc><c>Fe</c><c>   1</c></rc>
    <rc><c>Fe</c><c>   1</c></rc>
    <rc><c>Fe</c><c>   1</c></rc>
    <rc><c>Fe</c><c>   1</c></rc>
    <rc><c>Fe</c><c>   1</c></rc>
    <rc><c>Fe</c><c>   1</c></rc>
    <rc><c>Fe</c><c>   1</c></rc>
    <rc><c>Fe</c><c>   1</c></rc>
    <rc><c>Fe</c><c>   1</c></rc>
    <rc><c>Fe</c><c>   1</c></rc>
    <rc><c>Fe</c><c>   1</c></rc>
    <rc><c>Fe</c><c>   1</c></rc>
    <rc><c>Fe</c><c>   1</c></rc>
    <rc><c>Fe</c><c>   1</c></rc>
    <rc><c>Fe</c><c>   1</c></rc>
    <rc><c>Fe</c><c>   1</c></rc>
    <rc><c>Fe</c><c>   1</c></rc>
    <rc><c>Fe</c><c>   1</c></rc>
    <rc><c>Fe</c><c>   1</c></rc>
    <rc><c>Fe</c><c>   1</c></rc>
    <rc><c>Fe</c><c>   1</c></rc>
    <rc><c>Fe</c><c>   1</c></rc>
    <rc><c>Fe</c><c>   1</c></rc>
    <rc><c>Fe</c><c>   1</c></rc>
    <rc><c>Fe</c><c>   1</c></rc>
    <rc><c>Fe</c><c>   1</c></rc>
    <rc><c>Fe</c><c>   1</c></rc>
    <rc><c>Fe</c><c>   1</c></rc>
    <rc><c>Fe</c><c>   1</c></rc>
    <rc><c>Fe</c><c>   1</c></rc>
    <rc><c>Fe</c><c>   1</c></rc>
    <rc><c>Fe</c><c>   1</c></rc>
    <rc><c>Fe</c><c>   1</c></rc>
    <rc><c>Fe</c><c>   1</c></rc>
    <rc><c>Fe</c><c>   1</c></rc>
    <rc><c>Fe</c><c>   1</c></rc>
    <rc><c>Fe</c><c>   1</c></rc>
    <rc><c>Fe</c><c>   1</c></rc>
    <rc><c>Fe</c><c>   1</c></rc>
    <rc><c>Fe</c><c>   1</c></rc>
    <rc><c>Fe</c><c>   1</c></rc>
    <rc><c>Fe</c><c>   1</c></rc>
    <rc><c>Fe</c><c>   1</c></rc>
    <rc><c>Fe</c><c>   1</c></rc>
    <rc><c>Fe</c><c>   1</c></rc>
    <rc><c>Fe</c><c>   1</c></rc>
    <rc><c>Fe</c><c>   1</c></rc>
    <rc><c>Fe</c><c>   1</c></rc>
    <rc><c>Fe</c><c>   1</c></rc>
    <rc><c>Fe</c><c>   1</c></rc>
    <rc><c>Fe</c><c>   1</c></rc>
    <rc><c>Fe</c><c>   1</c></rc>
    <rc><c>Fe</c><c>   1</c></rc>
    <rc><c>Fe</c><c>   1</c></rc>
    <rc><c>Fe</c><c>   1</c></rc>
    <rc><c>Fe</c><c>   1</c></rc>
    <rc><c>Fe</c><c>   1</c></rc>
    <rc><c>Fe</c><c>   1</c></rc>
    <rc><c>Fe</c><c>   1</c></rc>
    <rc><c>Fe</c><c>   1</c></rc>
    <rc><c>Fe</c><c>   1</c></rc>
    <rc><c>Fe</c><c>   1</c></rc>
    <rc><c>Fe</c><c>   1</c></rc>
    <rc><c>Fe</c><c>   1</c></rc>
    <rc><c>Fe</c><c>   1</c></rc>
    <rc><c>Fe</c><c>   1</c></rc>
    <rc><c>Fe</c><c>   1</c></rc>
    <rc><c>Fe</c><c>   1</c></rc>
    <rc><c>Fe</c><c>   1</c></rc>
    <rc><c>Fe</c><c>   1</c></rc>
    <rc><c>Fe</c><c>   1</c></rc>
    <rc><c>Fe</c><c>   1</c></rc>
    <rc><c>Fe</c><c>   1</c></rc>
    <rc><c>Fe</c><c>   1</c></rc>
    <rc><c>Fe</c><c>   1</c></rc>
    <rc><c>Fe</c><c>   1</c></rc>
    <rc><c>Fe</c><c>   1</c></rc>
    <rc><c>Fe</c><c>   1</c></rc>
    <rc><c>Fe</c><c>   1</c></rc>
    <rc><c>Fe</c><c>   1</c></rc>
    <rc><c>Fe</c><c>   1</c></rc>
    <rc><c>Fe</c><c>   1</c></rc>
    <rc><c>Fe</c><c>   1</c></rc>
    <rc><c>Fe</c><c>   1</c></rc>
    <rc><c>Fe</c><c>   1</c></rc>
    <rc><c>Fe</c><c>   1</c></rc>
    <rc><c>Fe</c><c>   1</c></rc>
    <rc><c>Fe</c><c>   1</c></rc>
    <rc><c>Fe</c><c>   1</c></rc>
    <rc><c>Fe</c><c>   1</c></rc>
    <rc><c>Fe</c><c>   1</c></rc>
    <rc><c>Fe</c><c>   1</c></rc>
    <rc><c>Fe</c><c>   1</c></rc>
    <rc><c>Fe</c><c>   1</c></rc>
    <rc><c>Fe</c><c>   1</c></rc>
    <rc><c>Fe</c><c>   1</c></rc>
    <rc><c>Fe</c><c>   1</c></rc>
    <rc><c>Fe</c><c>   1</c></rc>
    <rc><c>Fe</c><c>   1</c></rc>
    <rc><c>Fe</c><c>   1</c></rc>
    <rc><c>Mn</c><c>   2</c></rc>
    <rc><c>Mn</c><c>   2</c></rc>
    <rc><c>Mn</c><c>   2</c></rc>
    <rc><c>Mn</c><c>   2</c></rc>
    <rc><c>Mn</c><c>   2</c></rc>
    <rc><c>Mn</c><c>   2</c></rc>
    <rc><c>Mn</c><c>   2</c></rc>
    <rc><c>Mn</c><c>   2</c></rc>
    <rc><c>Mn</c><c>   2</c></rc>
    <rc><c>Mn</c><c>   2</c></rc>
    <rc><c>Mn</c><c>   2</c></rc>
    <rc><c>Mn</c><c>   2</c></rc>
    <rc><c>Mn</c><c>   2</c></rc>
    <rc><c>Mn</c><c>   2</c></rc>
   </set>
  </array>
  <array name="atomtypes" >
   <dimension dim="1">type</dimension>
   <field type="int">atomspertype</field>
   <field type="string">element</field>
   <field>mass</field>
   <field>valence</field>
   <field type="string">pseudopotential</field>
   <set>
    <rc><c> 274</c><c>Fe</c><c>     55.84700000</c><c>      8.00000000</c><c>  PAW_PBE Fe_GW 31Mar2010               </c></rc>
    <rc><c>  14</c><c>Mn</c><c>     54.93800000</c><c>      7.00000000</c><c>  PAW_PBE Mn_GW 31Mar2010               </c></rc>
   </set>
  </array>
 </atominfo>
 <structure name="initialpos" >
  <crystal>
   <varray name="basis" >
    <v>       9.72667804       0.00000000       0.00000000 </v>
    <v>       0.00000000       8.42355028       0.00000000 </v>
    <v>       0.00000000       0.00000000      45.00000000 </v>
   </varray>
   <i name="volume">   3686.99226691 </i>
   <varray name="rec_basis" >
    <v>       0.10281002       0.00000000       0.00000000 </v>
    <v>       0.00000000       0.11871479       0.00000000 </v>
    <v>       0.00000000       0.00000000       0.02222222 </v>
   </varray>
  </crystal>
  <varray name="positions" >
   <v>       0.06201240       0.02914453       0.12411695 </v>
   <v>       0.31627516       0.87422618       0.65494374 </v>
   <v>       0.18405474       0.12288083       0.78865497 </v>
   <v>       0.44160028       0.28764066       0.38907884 </v>
   <v>       0.31806377       0.71387633       0.83311538 </v>
   <v>       0.81824270       0.21497289       0.83359821 </v>
   <v>       0.19177289       0.96329912       0.83364266 </v>
   <v>       0.56234541       0.20714014       0.56549529 </v>
   <v>       0.06559012       0.04039261       0.74422070 </v>
   <v>       0.81164842       0.87143172       0.52136251 </v>
   <v>       0.19049344       0.29112828       0.74435957 </v>
   <v>       0.93372041       0.45208199       0.34488734 </v>
   <v>       0.94129407       0.28739305       0.38895060 </v>
   <v>       0.81252486       0.04058886       0.87576127 </v>
   <v>       0.18397480       0.78863463       0.61099844 </v>
   <v>       0.56639865       0.03776244       0.38908892 </v>
   <v>       0.94237763       0.96486844       0.83386446 </v>
   <v>       0.31334521       0.54069532       0.87605883 </v>
   <v>       0.69013811       0.29144557       0.74426966 </v>
   <v>       0.18218049       0.61338634       0.16663134 </v>
   <v>       0.81222136       0.20585619       0.47869665 </v>
   <v>       0.80910430       0.53846894       0.61107165 </v>
   <v>       0.31197803       0.87046142       0.43442103 </v>
   <v>       0.80978080       0.03803200       0.25601254 </v>
   <v>       0.68329541       0.95176612       0.34482333 </v>
   <v>       0.93102319       0.11413941       0.16687865 </v>
   <v>       0.06175532       0.87144817       0.52136528 </v>
   <v>       0.55818009       0.53796650       0.25554534 </v>
   <v>       0.68477375       0.79733537       0.87586569 </v>
   <v>       0.55645148       0.36520386       0.16652432 </v>
   <v>       0.43961835       0.79188285       0.74441969 </v>
   <v>       0.81146603       0.70645391       0.56545996 </v>
   <v>       0.55910700       0.87387735       0.78866497 </v>
   <v>       0.68667147       0.12146193       0.52137350 </v>
   <v>       0.81621020       0.37483265       0.65511202 </v>
   <v>       0.94226785       0.46428178       0.83377036 </v>
   <v>       0.06058981       0.20758775       0.69974423 </v>
   <v>       0.43558012       0.95725997       0.69981269 </v>
   <v>       0.31682859       0.21277677       0.83348895 </v>
   <v>       0.44116227       0.62486734       0.65506671 </v>
   <v>       0.81659649       0.03798919       0.38912949 </v>
   <v>       0.93652583       0.45663490       0.56561259 </v>
   <v>       0.69036440       0.79153180       0.74427164 </v>
   <v>       0.93417329       0.78870367       0.12442998 </v>
   <v>       0.69135078       0.78770916       0.38904184 </v>
   <v>       0.94047178       0.79080448       0.74451056 </v>
   <v>       0.05861832       0.20244756       0.34491930 </v>
   <v>       0.68359487       0.45241977       0.34494340 </v>
   <v>       0.43390733       0.12242150       0.78896090 </v>
   <v>       0.06521107       0.20397043       0.21106391 </v>
   <v>       0.05518643       0.36530493       0.16662218 </v>
   <v>       0.93357382       0.78720003       0.25555346 </v>
   <v>       0.56006073       0.20727743       0.69984800 </v>
   <v>       0.68459370       0.95728849       0.69977712 </v>
   <v>       0.80870746       0.87397811       0.78849777 </v>
   <v>       0.43650273       0.95740967       0.56534225 </v>
   <v>       0.80864806       0.37504322       0.78852260 </v>
   <v>       0.68438882       0.28804801       0.25607240 </v>
   <v>       0.18722131       0.45739716       0.56547476 </v>
   <v>       0.05630692       0.86508867       0.16664736 </v>
   <v>       0.18450160       0.28950546       0.61096914 </v>
   <v>       0.06216675       0.20705391       0.56535578 </v>
   <v>       0.30977540       0.20705903       0.70000634 </v>
   <v>       0.56259496       0.54059391       0.87593087 </v>
   <v>       0.06184136       0.70610137       0.56548864 </v>
   <v>       0.68323303       0.62256528       0.78860012 </v>
   <v>       0.31586557       0.53829824       0.38890938 </v>
   <v>       0.18690890       0.62172307       0.52137699 </v>
   <v>       0.56228462       0.86998430       0.43438935 </v>
   <v>       0.43699228       0.45720546       0.56551238 </v>
   <v>       0.44003889       0.29163227       0.74428493 </v>
   <v>       0.82091750       0.87360040       0.30020354 </v>
   <v>       0.80846644       0.70208053       0.34488697 </v>
   <v>       0.44244613       0.46278630       0.83338635 </v>
   <v>       0.68747039       0.95592674       0.47863903 </v>
   <v>       0.68426144       0.45757105       0.69982301 </v>
   <v>       0.56208030       0.87206664       0.52142813 </v>
   <v>       0.56604185       0.37484196       0.65507295 </v>
   <v>       0.81607635       0.87482936       0.65505876 </v>
   <v>       0.81173493       0.37069106       0.43422465 </v>
   <v>       0.80872705       0.53720823       0.25580133 </v>
   <v>       0.69215823       0.46205621       0.83334991 </v>
   <v>       0.18629367       0.78808654       0.12406513 </v>
   <v>       0.69109590       0.28756461       0.38893038 </v>
   <v>       0.31625507       0.37462897       0.65490825 </v>
   <v>       0.30911008       0.20263007       0.34476841 </v>
   <v>       0.81572344       0.54059437       0.74423806 </v>
   <v>       0.69187076       0.96226871       0.83349627 </v>
   <v>       0.56623279       0.87484327       0.65515847 </v>
   <v>       0.31166838       0.70695129       0.56545833 </v>
   <v>       0.31281034       0.52958788       0.12395182 </v>
   <v>       0.68959860       0.95464097       0.21176087 </v>
   <v>       0.31138122       0.20646616       0.56552313 </v>
   <v>       0.18730906       0.95571301       0.47863910 </v>
   <v>       0.68732213       0.95709846       0.56551897 </v>
   <v>       0.43365797       0.78779377       0.61092048 </v>
   <v>       0.68245210       0.61212023       0.16626834 </v>
   <v>       0.31892931       0.87416129       0.30016529 </v>
   <v>       0.31227602       0.70580123       0.47862767 </v>
   <v>       0.93376312       0.28792948       0.61089570 </v>
   <v>       0.44569982       0.62369378       0.30017172 </v>
   <v>       0.80723344       0.86344423       0.16680588 </v>
   <v>       0.56661353       0.20301231       0.21142910 </v>
   <v>       0.93285426       0.61288346       0.16670439 </v>
   <v>       0.43728162       0.95568033       0.47866545 </v>
   <v>       0.55873218       0.37337458       0.78872501 </v>
   <v>       0.06150044       0.37240617       0.52136504 </v>
   <v>       0.30723832       0.36396561       0.16661706 </v>
   <v>       0.69540234       0.12308151       0.30028713 </v>
   <v>       0.44294465       0.96302149       0.83336576 </v>
   <v>       0.18526513       0.28678584       0.12410344 </v>
   <v>       0.18374264       0.28716024       0.25580022 </v>
   <v>       0.31221038       0.37046095       0.43444906 </v>
   <v>       0.56254674       0.03204334       0.12426947 </v>
   <v>       0.43398920       0.28849021       0.61085217 </v>
   <v>       0.18370182       0.45258471       0.34493998 </v>
   <v>       0.43469875       0.28671867       0.12409381 </v>
   <v>       0.68371791       0.78778492       0.25580665 </v>
   <v>       0.43673565       0.12162990       0.52136678 </v>
   <v>       0.18844661       0.29667217       0.87615917 </v>
   <v>       0.19141203       0.12492684       0.65516691 </v>
   <v>       0.94104709       0.12492597       0.65505030 </v>
   <v>       0.81627467       0.53753712       0.38896760 </v>
   <v>       0.06648308       0.03776009       0.38911478 </v>
   <v>       0.18336027       0.11220906       0.16647480 </v>
   <v>       0.05901350       0.53813564       0.61101807 </v>
   <v>       0.93403069       0.28788517       0.25591514 </v>
   <v>       0.55901451       0.53815707       0.61097486 </v>
   <v>       0.93652943       0.95727123       0.56548147 </v>
   <v>       0.69514084       0.62365093       0.30019167 </v>
   <v>       0.93762887       0.62070934       0.43445470 </v>
   <v>       0.93335833       0.62439981       0.78837703 </v>
   <v>       0.56063443       0.70711151       0.69978403 </v>
   <v>       0.06607264       0.71656875       0.83399848 </v>
   <v>       0.94545538       0.12273268       0.30007857 </v>
   <v>       0.93382217       0.78803059       0.61099927 </v>
   <v>       0.43365585       0.78742113       0.25564254 </v>
   <v>       0.30865771       0.37389002       0.78878902 </v>
   <v>       0.43972538       0.45393414       0.21132159 </v>
   <v>       0.18669732       0.12151390       0.52132278 </v>
   <v>       0.81011279       0.70779140       0.69981073 </v>
   <v>       0.05874017       0.03839910       0.61083917 </v>
   <v>       0.56607606       0.21364176       0.83323303 </v>
   <v>       0.31162449       0.87199502       0.52137592 </v>
   <v>       0.68643663       0.28625380       0.12390282 </v>
   <v>       0.19025526       0.95445475       0.21171558 </v>
   <v>       0.68378262       0.28781851       0.61090285 </v>
   <v>       0.30911640       0.03853670       0.61109950 </v>
   <v>       0.93426062       0.12446428       0.78861230 </v>
   <v>       0.43646385       0.79787795       0.87617804 </v>
   <v>       0.81554921       0.04114172       0.74434895 </v>
   <v>       0.93504095       0.45801179       0.69966935 </v>
   <v>       0.19113736       0.62504016       0.65511446 </v>
   <v>       0.31045741       0.70688776       0.69980213 </v>
   <v>       0.93430056       0.28711470       0.12387542 </v>
   <v>       0.43730726       0.45576207       0.47847632 </v>
   <v>       0.06240027       0.70588854       0.47851123 </v>
   <v>       0.93717944       0.12052158       0.43446599 </v>
   <v>       0.44439608       0.12303619       0.30044089 </v>
   <v>       0.18691424       0.12093452       0.43427875 </v>
   <v>       0.56273220       0.04060278       0.87603232 </v>
   <v>       0.18698909       0.95742194       0.56549586 </v>
   <v>       0.68485169       0.78831018       0.12428414 </v>
   <v>       0.55911101       0.70238922       0.34499015 </v>
   <v>       0.31616777       0.03734640       0.38898811 </v>
   <v>       0.68242389       0.11386670       0.16684390 </v>
   <v>       0.81555256       0.20373185       0.21109577 </v>
   <v>       0.05919383       0.53728637       0.25575983 </v>
   <v>       0.56248964       0.70581865       0.47868160 </v>
   <v>       0.43521611       0.78682595       0.12407957 </v>
   <v>       0.56964900       0.37189524       0.30016356 </v>
   <v>       0.43364359       0.95269899       0.34486733 </v>
   <v>       0.18442410       0.95730720       0.69998589 </v>
   <v>       0.43170542       0.61302646       0.16614181 </v>
   <v>       0.94001151       0.45331101       0.21161911 </v>
   <v>       0.06198524       0.52968196       0.12405368 </v>
   <v>       0.81181486       0.37200209       0.52136589 </v>
   <v>       0.94461435       0.62314726       0.29999458 </v>
   <v>       0.30944456       0.03703599       0.25547322 </v>
   <v>       0.68395986       0.78825498       0.61100443 </v>
   <v>       0.19243014       0.46350267       0.83341081 </v>
   <v>       0.43268781       0.11181736       0.16657033 </v>
   <v>       0.31144859       0.37179275       0.52136878 </v>
   <v>       0.43319152       0.62247857       0.78895310 </v>
   <v>       0.05900138       0.03737450       0.25581685 </v>
   <v>       0.56227313       0.70719283       0.56550130 </v>
   <v>       0.93981547       0.29087759       0.74450676 </v>
   <v>       0.68296224       0.12252299       0.78859428 </v>
   <v>       0.18998795       0.45298386       0.21106250 </v>
   <v>       0.94133734       0.78757832       0.38893749 </v>
   <v>       0.68559906       0.29879008       0.87601738 </v>
   <v>       0.55654420       0.86267061       0.16625005 </v>
   <v>       0.43516436       0.45788951       0.69977140 </v>
   <v>       0.93408197       0.95146525       0.34478270 </v>
   <v>       0.68659714       0.62128842       0.52128536 </v>
   <v>       0.06633848       0.87467150       0.65495407 </v>
   <v>       0.05910990       0.87409106       0.78850528 </v>
   <v>       0.06615671       0.37423465       0.65497666 </v>
   <v>       0.68703187       0.45558732       0.47853200 </v>
   <v>       0.18386028       0.78724950       0.25549266 </v>
   <v>       0.43740549       0.12170555       0.43435822 </v>
   <v>       0.81424073       0.03065768       0.12402067 </v>
   <v>       0.93673830       0.62180510       0.52141912 </v>
   <v>       0.44117695       0.12438927       0.65492954 </v>
   <v>       0.81338391       0.52956601       0.12400462 </v>
   <v>       0.43371875       0.45237821       0.34496589 </v>
   <v>       0.80897373       0.20271317       0.34498762 </v>
   <v>       0.30878937       0.70154893       0.34486036 </v>
   <v>       0.69127993       0.12496931       0.65501104 </v>
   <v>       0.57034853       0.87325503       0.30033467 </v>
   <v>       0.06535997       0.54077704       0.74441547 </v>
   <v>       0.94098646       0.95376711       0.21129572 </v>
   <v>       0.81614163       0.70346960       0.21144606 </v>
   <v>       0.06925853       0.87364888       0.30040658 </v>
   <v>       0.19517094       0.12350582       0.30026721 </v>
   <v>       0.05843263       0.70188830       0.34486760 </v>
   <v>       0.80901162       0.03834813       0.61099129 </v>
   <v>       0.06301103       0.37121421       0.43430774 </v>
   <v>       0.55866886       0.20261108       0.34479159 </v>
   <v>       0.82035370       0.37306001       0.30014335 </v>
   <v>       0.56041106       0.03746514       0.25555278 </v>
   <v>       0.56643251       0.53769152       0.38906472 </v>
   <v>       0.06253728       0.20593809       0.47863583 </v>
   <v>       0.31038405       0.87316790       0.78848847 </v>
   <v>       0.93511651       0.95806520       0.69969641 </v>
   <v>       0.06964611       0.37408129       0.30001828 </v>
   <v>       0.69123445       0.62481501       0.65509351 </v>
   <v>       0.68683223       0.45715349       0.56545137 </v>
   <v>       0.44137334       0.95587243       0.21201646 </v>
   <v>       0.31248173       0.20572297       0.47868558 </v>
   <v>       0.81227601       0.54015946       0.87586406 </v>
   <v>       0.68784293       0.62106798       0.43441596 </v>
   <v>       0.81062819       0.20738406       0.69979115 </v>
   <v>       0.81248018       0.70582186       0.47861843 </v>
   <v>       0.81166634       0.87107374       0.43426341 </v>
   <v>       0.93740591       0.95549726       0.47867185 </v>
   <v>       0.56221270       0.20574178       0.47866641 </v>
   <v>       0.18720820       0.62057459       0.43442140 </v>
   <v>       0.31499257       0.04161709       0.74404527 </v>
   <v>       0.94130784       0.62493087       0.65496945 </v>
   <v>       0.56633126       0.71336516       0.83329533 </v>
   <v>       0.32025925       0.37233762       0.30010122 </v>
   <v>       0.31525058       0.54143454       0.74435753 </v>
   <v>       0.18730061       0.45571216       0.47863445 </v>
   <v>       0.31425092       0.04139308       0.87592668 </v>
   <v>       0.18511570       0.45810264       0.69967654 </v>
   <v>       0.56181447       0.37193662       0.52136191 </v>
   <v>       0.19096857       0.28751164       0.38893775 </v>
   <v>       0.31596567       0.20482084       0.21119402 </v>
   <v>       0.06744073       0.70402415       0.21128026 </v>
   <v>       0.56196801       0.37067379       0.43435759 </v>
   <v>       0.43660788       0.62202806       0.52132292 </v>
   <v>       0.81705179       0.71534442       0.83338670 </v>
   <v>       0.05864898       0.37507001       0.78848178 </v>
   <v>       0.43681671       0.29842556       0.87631268 </v>
   <v>       0.31149860       0.03044717       0.12410870 </v>
   <v>       0.68806638       0.12101299       0.43424438 </v>
   <v>       0.18367214       0.95206203       0.34487463 </v>
   <v>       0.06684307       0.21503258       0.83403239 </v>
   <v>       0.55944948       0.03888270       0.61109359 </v>
   <v>       0.68917832       0.45438564       0.21172306 </v>
   <v>       0.18976527       0.79162142       0.74444886 </v>
   <v>       0.19515457       0.62312535       0.30029779 </v>
   <v>       0.44138941       0.78789139       0.38916425 </v>
   <v>       0.43355401       0.28770983       0.25578752 </v>
   <v>       0.06340627       0.54073336       0.87590240 </v>
   <v>       0.56559970       0.04139897       0.74427414 </v>
   <v>       0.18780246       0.79726136       0.87611577 </v>
   <v>       0.93720531       0.45568844       0.47857705 </v>
   <v>       0.56517509       0.54136587       0.74421367 </v>
   <v>       0.81116838       0.20697139       0.56548428 </v>
   <v>       0.18439758       0.62253326       0.78853606 </v>
   <v>       0.06667654       0.53780693       0.38904853 </v>
   <v>       0.06014769       0.70752174       0.69973010 </v>
   <v>       0.30821475       0.53756728       0.25555692 </v>
   <v>       0.31443451       0.70328573       0.21225772 </v>
   <v>       0.30615788       0.86471229       0.16579740 </v>
   <v>       0.43705393       0.62187580       0.43441073 </v>
   <v>       0.30892062       0.53899593       0.61101546 </v>
   <v>       0.93511158       0.29777345       0.87553618 </v>
   <v>       0.93705295       0.79522369       0.87562645 </v>
   <v>       0.06542650       0.03904408       0.87578306 </v>
   <v>       0.56238836       0.52892383       0.12452801 </v>
   <v>       0.80557469       0.36543067       0.16590168 </v>
   <v>       0.06194644       0.87060882       0.43434211 </v>
   <v>       0.93664252       0.12156629       0.52143520 </v>
   <v>       0.19335819       0.78859569       0.38890966 </v>
   <v>       0.56667629       0.70400181       0.21194294 </v>
  </varray>
 </structure>
 <calculation>
  <scstep>
   <time name="dav">   54.34   54.35</time>
   <time name="total">   54.49   54.54</time>
   <energy>
    <i name="alphaZ">  16293.21160653 </i>
    <i name="ewald"> 728429.48611720 </i>
    <i name="hartreedc">-918944.72039500 </i>
    <i name="XCdc">  -6512.69202391 </i>
    <i name="pawpsdc"> 162273.92519768 </i>
    <i name="pawaedc">-159623.75899949 </i>
    <i name="eentropy">     -1.06655247 </i>
    <i name="bandstr">  38488.73099690 </i>
    <i name="atom"> 168671.76673737 </i>
    <i name="e_fr_energy">  29074.88268482 </i>
    <i name="e_wo_entrp">  29075.94923729 </i>
    <i name="e_0_energy">  29075.41596105 </i>
   </energy>
  </scstep>
  <scstep>
   <time name="dav">   53.99   54.00</time>
   <time name="total">   54.00   54.01</time>
   <energy>
    <i name="e_fr_energy">   1187.74540102 </i>
    <i name="e_wo_entrp">   1189.24242659 </i>
    <i name="e_0_energy">   1188.49391381 </i>
   </energy>
  </scstep>
  <scstep>
   <time name="dav">   70.52   70.56</time>
   <time name="total">   70.53   70.56</time>
   <energy>
    <i name="e_fr_energy">  -1949.19981440 </i>
    <i name="e_wo_entrp">  -1945.65117744 </i>
    <i name="e_0_energy">  -1947.42549592 </i>
   </energy>
  </scstep>
  <scstep>
   <time name="dav">   88.85   88.88</time>
   <time name="total">   88.85   88.89</time>
   <energy>
    <i name="e_fr_energy">  -2618.82791409 </i>
    <i name="e_wo_entrp">  -2615.29192676 </i>
    <i name="e_0_energy">  -2617.05992042 </i>
   </energy>
  </scstep>
  <scstep>
   <time name="dav">   84.96   85.01</time>
   <time name="total">   87.04   87.09</time>
   <energy>
    <i name="e_fr_energy">  -2738.47432071 </i>
    <i name="e_wo_entrp">  -2734.81015519 </i>
    <i name="e_0_energy">  -2736.64223795 </i>
   </energy>
  </scstep>
  <scstep>
   <time name="diag">    8.31    8.31</time>
   <time name="diis">   37.20   37.21</time>
   <time name="orth">    2.28    2.28</time>
   <time name="total">   49.96   50.01</time>
   <energy>
    <i name="e_fr_energy">  -5374.80431817 </i>
    <i name="e_wo_entrp">  -5372.02010165 </i>
    <i name="e_0_energy">  -5373.41220991 </i>
   </energy>
  </scstep>
  <scstep>
   <time name="diag">    8.24    8.24</time>
   <time name="diis">   22.31   22.31</time>
   <time name="orth">    2.28    2.28</time>
   <time name="total">   35.01   35.05</time>
[...]
       <r>     5.8644     0.0000  2772.0000 </r>
       <r>     5.9071     0.0000  2772.0000 </r>
       <r>     5.9499     0.0000  2772.0000 </r>
       <r>     5.9927     0.0000  2772.0000 </r>
       <r>     6.0354     0.0000  2772.0000 </r>
       <r>     6.0782     0.0000  2772.0000 </r>
       <r>     6.1210     0.0000  2772.0000 </r>
       <r>     6.1638     0.0000  2772.0000 </r>
       <r>     6.2065     0.0000  2772.0000 </r>
       <r>     6.2493     0.0000  2772.0000 </r>
       <r>     6.2921     0.0000  2772.0000 </r>
       <r>     6.3348     0.0000  2772.0000 </r>
       <r>     6.3776     0.0000  2772.0000 </r>
       <r>     6.4204     0.0000  2772.0000 </r>
       <r>     6.4632     0.0000  2772.0000 </r>
       <r>     6.5059     0.0000  2772.0000 </r>
       <r>     6.5487     0.0000  2772.0000 </r>
       <r>     6.5915     0.0000  2772.0000 </r>
       <r>     6.6342     0.0000  2772.0000 </r>
       <r>     6.6770     0.0000  2772.0000 </r>
       <r>     6.7198     0.0000  2772.0000 </r>
       <r>     6.7626     0.0000  2772.0000 </r>
       <r>     6.8053     0.0000  2772.0000 </r>
      </set>
     </set>
    </array>
   </total>
  </dos>
 </calculation>
 <structure name="finalpos" >
  <crystal>
   <varray name="basis" >
    <v>       9.72667804       0.00000000       0.00000000 </v>
    <v>       0.00000000       8.42355028       0.00000000 </v>
    <v>       0.00000000       0.00000000      45.00000000 </v>
   </varray>
   <i name="volume">   3686.99226691 </i>
   <varray name="rec_basis" >
    <v>       0.10281002       0.00000000       0.00000000 </v>
    <v>       0.00000000       0.11871479       0.00000000 </v>
    <v>       0.00000000       0.00000000       0.02222222 </v>
   </varray>
  </crystal>
  <varray name="positions" >
   <v>       0.06149333       0.03285060       0.12442273 </v>
   <v>       0.31355388       0.87385227       0.65501013 </v>
   <v>       0.18645486       0.12493880       0.78835129 </v>
   <v>       0.43997925       0.28795077       0.38934251 </v>
   <v>       0.31479336       0.71159286       0.83345381 </v>
   <v>       0.81587808       0.21264396       0.83364850 </v>
   <v>       0.18917163       0.96223209       0.83381980 </v>
   <v>       0.56172923       0.20630439       0.56571732 </v>
   <v>       0.06340527       0.04147043       0.74414114 </v>
   <v>       0.81129021       0.87235444       0.52170365 </v>
   <v>       0.18826382       0.29145026       0.74421032 </v>
   <v>       0.93715748       0.45370103       0.34494418 </v>
   <v>       0.93919753       0.28760976       0.38925991 </v>
   <v>       0.81252227       0.04512052       0.87556757 </v>
   <v>       0.18602826       0.78942417       0.61057068 </v>
   <v>       0.56439674       0.03799360       0.38936354 </v>
   <v>       0.94116393       0.96221070       0.83381709 </v>
   <v>       0.31349625       0.54479976       0.87567380 </v>
   <v>       0.68854965       0.29137414       0.74417616 </v>
   <v>       0.18492212       0.61616852       0.16642678 </v>
   <v>       0.81204957       0.20520804       0.47839136 </v>
   <v>       0.81086947       0.53908565       0.61065808 </v>
   <v>       0.31284702       0.87163820       0.43430607 </v>
   <v>       0.81203212       0.03703407       0.25587163 </v>
   <v>       0.68722461       0.95369751       0.34502047 </v>
   <v>       0.93369197       0.11598940       0.16659529 </v>
   <v>       0.06236397       0.87250421       0.52160713 </v>
   <v>       0.56147519       0.53727132       0.25576571 </v>
   <v>       0.68683615       0.79447859       0.87565908 </v>
   <v>       0.55890958       0.36652746       0.16621560 </v>
   <v>       0.43850658       0.79184770       0.74426082 </v>
   <v>       0.81180375       0.70618272       0.56575758 </v>
   <v>       0.56114270       0.87430968       0.78833775 </v>
   <v>       0.68654506       0.12223555       0.52164688 </v>
   <v>       0.81362354       0.37406671       0.65500884 </v>
   <v>       0.94039409       0.46223218       0.83374373 </v>
   <v>       0.06148845       0.20750095       0.69979863 </v>
   <v>       0.43651084       0.95703043       0.69972209 </v>
   <v>       0.31450222       0.21148065       0.83373115 </v>
   <v>       0.43879374       0.62412464       0.65505431 </v>
   <v>       0.81484912       0.03789347       0.38935558 </v>
   <v>       0.93687382       0.45579164       0.56577224 </v>
   <v>       0.68847978       0.79152937       0.74418307 </v>
   <v>       0.93442278       0.78327238       0.12469021 </v>
   <v>       0.68983354       0.78746493       0.38927354 </v>
   <v>       0.93855839       0.79117130       0.74412383 </v>
   <v>       0.06250407       0.20414881       0.34490594 </v>
   <v>       0.68743613       0.45347616       0.34488121 </v>
   <v>       0.43608793       0.12489199       0.78846197 </v>
   <v>       0.06313620       0.20268168       0.21152650 </v>
   <v>       0.05785320       0.36626653       0.16620018 </v>
   <v>       0.93662066       0.78734081       0.25578791 </v>
   <v>       0.56145375       0.20738708       0.69979864 </v>
   <v>       0.68676499       0.95757316       0.69984354 </v>
   <v>       0.81096766       0.87485023       0.78832843 </v>
   <v>       0.43679002       0.95636893       0.56577020 </v>
   <v>       0.81116087       0.37481767       0.78832289 </v>
   <v>       0.68676814       0.28688081       0.25590355 </v>
   <v>       0.18671061       0.45617541       0.56570655 </v>
   <v>       0.05901946       0.86647679       0.16642696 </v>
   <v>       0.18610744       0.28942681       0.61072458 </v>
   <v>       0.06176431       0.20636027       0.56569059 </v>
   <v>       0.31182180       0.20704213       0.69982248 </v>
   <v>       0.56398935       0.54530270       0.87559209 </v>
   <v>       0.06184241       0.70609743       0.56572277 </v>
   <v>       0.68586225       0.62491133       0.78828068 </v>
   <v>       0.31446604       0.53743675       0.38932730 </v>
   <v>       0.18710220       0.62252172       0.52167211 </v>
   <v>       0.56248552       0.87156585       0.43424701 </v>
   <v>       0.43683825       0.45615712       0.56571233 </v>
   <v>       0.43839710       0.29185195       0.74420265 </v>
   <v>       0.81586167       0.87216377       0.30025154 </v>
   <v>       0.81200309       0.70314756       0.34496049 </v>
   <v>       0.44010744       0.46114852       0.83367592 </v>
   <v>       0.68753018       0.95508234       0.47836573 </v>
   <v>       0.68681483       0.45730509       0.69979484 </v>
   <v>       0.56179901       0.87256879       0.52164694 </v>
   <v>       0.56343904       0.37388876       0.65495131 </v>
   <v>       0.81362388       0.87401103       0.65505089 </v>
   <v>       0.81201397       0.37108331       0.43410988 </v>
   <v>       0.81169082       0.53692361       0.25591687 </v>
   <v>       0.69044914       0.46164395       0.83362150 </v>
   <v>       0.18570288       0.78326499       0.12425797 </v>
   <v>       0.68959280       0.28763678       0.38927764 </v>
   <v>       0.31344248       0.37395617       0.65496538 </v>
   <v>       0.31219863       0.20384413       0.34498296 </v>
   <v>       0.81350483       0.54128039       0.74407723 </v>
   <v>       0.69038641       0.96150805       0.83366413 </v>
   <v>       0.56367293       0.87406980       0.65503819 </v>
   <v>       0.31177883       0.70655077       0.56569181 </v>
   <v>       0.31017213       0.53352595       0.12421774 </v>
   <v>       0.68860258       0.95362528       0.21171156 </v>
   <v>       0.31181625       0.20649965       0.56575341 </v>
   <v>       0.18724887       0.95531542       0.47841585 </v>
   <v>       0.68704582       0.95621804       0.56580302 </v>
   <v>       0.43589927       0.78937091       0.61056652 </v>
   <v>       0.68311153       0.61471534       0.16636849 </v>
   <v>       0.31561246       0.87179110       0.30022778 </v>
   <v>       0.31213427       0.70521629       0.47829514 </v>
   <v>       0.93606801       0.28888058       0.61056768 </v>
   <v>       0.44083166       0.62180935       0.30026565 </v>
   <v>       0.80889900       0.86543988       0.16657009 </v>
   <v>       0.56415412       0.20259143       0.21179253 </v>
   <v>       0.93442642       0.61477672       0.16659276 </v>
   <v>       0.43741948       0.95503584       0.47836768 </v>
   <v>       0.56111584       0.37417788       0.78840077 </v>
   <v>       0.06171649       0.37278364       0.52153701 </v>
   <v>       0.30880043       0.36586363       0.16617801 </v>
   <v>       0.69116582       0.12168828       0.30035863 </v>
   <v>       0.44053758       0.96110279       0.83366683 </v>
   <v>       0.18513588       0.28280032       0.12452347 </v>
   <v>       0.18681465       0.28644314       0.25584567 </v>
   <v>       0.31285847       0.37107605       0.43421463 </v>
   <v>       0.56082868       0.03335670       0.12441445 </v>
   <v>       0.43608162       0.28942513       0.61057837 </v>
   <v>       0.18712275       0.45375200       0.34491738 </v>
   <v>       0.43402553       0.28263257       0.12452033 </v>
   <v>       0.68677598       0.78741202       0.25597950 </v>
   <v>       0.43688511       0.12285755       0.52162382 </v>
   <v>       0.18929460       0.29409915       0.87584173 </v>
   <v>       0.18857726       0.12383133       0.65506566 </v>
   <v>       0.93875218       0.12399039       0.65503114 </v>
   <v>       0.81438898       0.53735381       0.38926976 </v>
   <v>       0.06419306       0.03786771       0.38931510 </v>
   <v>       0.18395253       0.11483402       0.16652809 </v>
   <v>       0.06081216       0.53912112       0.61062716 </v>
   <v>       0.93678538       0.28679205       0.25581621 </v>
   <v>       0.56117323       0.53930591       0.61059447 </v>
   <v>       0.93684653       0.95589246       0.56575978 </v>
   <v>       0.69078015       0.62193034       0.30033774 </v>
   <v>       0.93760748       0.62144539       0.43419071 </v>
   <v>       0.93590773       0.62595370       0.78830597 </v>
   <v>       0.56165589       0.70732790       0.69984832 </v>
   <v>       0.06442211       0.71327595       0.83373704 </v>
   <v>       0.94093175       0.12217225       0.30026702 </v>
   <v>       0.93605962       0.78941855       0.61068143 </v>
   <v>       0.43686738       0.78723166       0.25597956 </v>
   <v>       0.31112658       0.37420617       0.78835799 </v>
   <v>       0.43856647       0.45355418       0.21164134 </v>
   <v>       0.18708048       0.12251320       0.52166703 </v>
   <v>       0.81180960       0.70749377       0.69979816 </v>
   <v>       0.06052999       0.03961283       0.61056557 </v>
   <v>       0.56468749       0.21141150       0.83344857 </v>
   <v>       0.31191306       0.87247308       0.52164506 </v>
   <v>       0.68593265       0.28266473       0.12427027 </v>
   <v>       0.18849609       0.95439936       0.21167905 </v>
   <v>       0.68581962       0.28920965       0.61066938 </v>
   <v>       0.31088811       0.03938501       0.61061421 </v>
   <v>       0.93615489       0.12576217       0.78841233 </v>
   <v>       0.43770643       0.79366327       0.87564850 </v>
   <v>       0.81359868       0.04152912       0.74406971 </v>
   <v>       0.93665897       0.45734296       0.69978600 </v>
   <v>       0.18857043       0.62401198       0.65504187 </v>
   <v>       0.31167815       0.70725203       0.69984573 </v>
   <v>       0.93446881       0.28287027       0.12429657 </v>
   <v>       0.43729874       0.45476223       0.47832312 </v>
   <v>       0.06237641       0.70451502       0.47838780 </v>
   <v>       0.93741096       0.12113754       0.43446140 </v>
   <v>       0.44104659       0.12125614       0.30026031 </v>
   <v>       0.18762048       0.12099751       0.43409623 </v>
   <v>       0.56434874       0.04495693       0.87567182 </v>
   <v>       0.18644220       0.95640265       0.56580489 </v>
   <v>       0.68526958       0.78408915       0.12460503 </v>
   <v>       0.56236953       0.70372391       0.34500010 </v>
   <v>       0.31435639       0.03781271       0.38931935 </v>
   <v>       0.68488271       0.11570378       0.16664539 </v>
   <v>       0.81411466       0.20264035       0.21162113 </v>
   <v>       0.06149935       0.53714009       0.25567316 </v>
   <v>       0.56247142       0.70511379       0.47831931 </v>
   <v>       0.43471637       0.78362123       0.12417698 </v>
   <v>       0.56550668       0.37151253       0.30033123 </v>
   <v>       0.43715389       0.95384722       0.34492941 </v>
   <v>       0.18662676       0.95727198       0.69977345 </v>
   <v>       0.43399657       0.61558892       0.16630090 </v>
   <v>       0.93852479       0.45299109       0.21175306 </v>
   <v>       0.06063832       0.53256431       0.12433212 </v>
   <v>       0.81182832       0.37290409       0.52160823 </v>
   <v>       0.94093984       0.62238086       0.30013415 </v>
   <v>       0.31192261       0.03680202       0.25583836 </v>
   <v>       0.68583758       0.78941514       0.61064243 </v>
   <v>       0.18971111       0.46215624       0.83378997 </v>
   <v>       0.43465569       0.11446206       0.16662271 </v>
   <v>       0.31169586       0.37259322       0.52161194 </v>
   <v>       0.43605754       0.62464626       0.78852679 </v>
   <v>       0.06158322       0.03695692       0.25583379 </v>
   <v>       0.56151892       0.70616559       0.56574907 </v>
   <v>       0.93848913       0.29121507       0.74414454 </v>
   <v>       0.68587591       0.12502455       0.78827285 </v>
   <v>       0.18764730       0.45300509       0.21157799 </v>
   <v>       0.93924457       0.78772334       0.38929253 </v>
   <v>       0.68707701       0.29443993       0.87572868 </v>
   <v>       0.55761499       0.86538561       0.16635489 </v>
   <v>       0.43655201       0.45707844       0.69981585 </v>
   <v>       0.93755106       0.95352291       0.34489942 </v>
   <v>       0.68672235       0.62246837       0.52165155 </v>
   <v>       0.06337873       0.87409979       0.65504300 </v>
   <v>       0.06148751       0.87511935       0.78845300 </v>
   <v>       0.06370087       0.37396970       0.65503852 </v>
   <v>       0.68725982       0.45494253       0.47825703 </v>
   <v>       0.18654796       0.78743840       0.25593045 </v>
   <v>       0.43746757       0.12118782       0.43429278 </v>
   <v>       0.81122220       0.03374263       0.12447430 </v>
   <v>       0.93665510       0.62240845       0.52163726 </v>
   <v>       0.43851650       0.12383349       0.65502269 </v>
   <v>       0.81241194       0.53308574       0.12406836 </v>
   <v>       0.43734396       0.45390439       0.34496980 </v>
   <v>       0.81245544       0.20347063       0.34501914 </v>
   <v>       0.31249823       0.70373491       0.34493548 </v>
   <v>       0.68852124       0.12415443       0.65505298 </v>
   <v>       0.56585357       0.87178028       0.30037475 </v>
   <v>       0.06334829       0.54101332       0.74409993 </v>
   <v>       0.93869970       0.95384850       0.21164536 </v>
   <v>       0.81385480       0.70290684       0.21169792 </v>
   <v>       0.06560969       0.87204493       0.30037116 </v>
   <v>       0.19061895       0.12220580       0.30012662 </v>
   <v>       0.06204620       0.70368598       0.34495053 </v>
   <v>       0.81124847       0.03920734       0.61060199 </v>
   <v>       0.06260280       0.37114156       0.43410691 </v>
   <v>       0.56219295       0.20366766       0.34495122 </v>
   <v>       0.81561191       0.37196935       0.30026634 </v>
   <v>       0.56232456       0.03747726       0.25590805 </v>
   <v>       0.56438549       0.53716932       0.38932379 </v>
   <v>       0.06247215       0.20507859       0.47831609 </v>
   <v>       0.31156746       0.87403712       0.78824187 </v>
   <v>       0.93661524       0.95771579       0.69975515 </v>
   <v>       0.06619245       0.37207667       0.30025937 </v>
   <v>       0.68866269       0.62414052       0.65504872 </v>
   <v>       0.68666202       0.45605988       0.56572479 </v>
   <v>       0.43858874       0.95391707       0.21180468 </v>
   <v>       0.31216455       0.20496677       0.47834142 </v>
   <v>       0.81286958       0.54453442       0.87557061 </v>
   <v>       0.68800849       0.62093762       0.43420760 </v>
   <v>       0.81165952       0.20750547       0.69981815 </v>
   <v>       0.81239264       0.70504244       0.47829168 </v>
   <v>       0.81191374       0.87157068       0.43420603 </v>
   <v>       0.93720927       0.95455366       0.47842009 </v>
   <v>       0.56257094       0.20491775       0.47832119 </v>
   <v>       0.18718839       0.62107098       0.43423734 </v>
   <v>       0.31336160       0.04186439       0.74414296 </v>
   <v>       0.93851198       0.62430034       0.65500980 </v>
   <v>       0.56471778       0.71145286       0.83343874 </v>
   <v>       0.31587427       0.37170326       0.30030326 </v>
   <v>       0.31323992       0.54131612       0.74422345 </v>
   <v>       0.18755964       0.45495732       0.47831239 </v>
   <v>       0.31487578       0.04600652       0.87568843 </v>
   <v>       0.18647085       0.45736550       0.69984140 </v>
   <v>       0.56212423       0.37259033       0.52157663 </v>
   <v>       0.18912314       0.28759571       0.38931154 </v>
   <v>       0.31343135       0.20297079       0.21154488 </v>
   <v>       0.06421875       0.70273709       0.21150905 </v>
   <v>       0.56254244       0.37140519       0.43423571 </v>
   <v>       0.43694586       0.62262161       0.52148692 </v>
   <v>       0.81534751       0.71276647       0.83342545 </v>
   <v>       0.06139271       0.37538189       0.78838297 </v>
   <v>       0.43742420       0.29436229       0.87579861 </v>
   <v>       0.31114512       0.03317618       0.12411643 </v>
   <v>       0.68778041       0.12141816       0.43416628 </v>
   <v>       0.18709539       0.95369177       0.34495564 </v>
   <v>       0.06450814       0.21205535       0.83370684 </v>
   <v>       0.56132285       0.03927502       0.61062456 </v>
   <v>       0.68833308       0.45288197       0.21165762 </v>
   <v>       0.18840419       0.79131785       0.74416551 </v>
   <v>       0.19067142       0.62208791       0.30021921 </v>
   <v>       0.43976314       0.78774212       0.38937452 </v>
   <v>       0.43675937       0.28697116       0.25576150 </v>
   <v>       0.06504605       0.54457031       0.87569544 </v>
   <v>       0.56373432       0.04175793       0.74420815 </v>
   <v>       0.18848913       0.79385508       0.87581758 </v>
   <v>       0.93718959       0.45462607       0.47834857 </v>
   <v>       0.56360782       0.54166639       0.74414797 </v>
   <v>       0.81162820       0.20642158       0.56574759 </v>
   <v>       0.18652407       0.62502454       0.78836945 </v>
   <v>       0.06456821       0.53796774       0.38938803 </v>
   <v>       0.06147870       0.70769196       0.69982000 </v>
   <v>       0.31156633       0.53678399       0.25567748 </v>
   <v>       0.31271501       0.70259305       0.21190579 </v>
   <v>       0.30824538       0.86589268       0.16587956 </v>
   <v>       0.43717139       0.62104471       0.43418067 </v>
   <v>       0.31075723       0.53932938       0.61073550 </v>
   <v>       0.93646846       0.29509185       0.87566875 </v>
   <v>       0.93718038       0.79227860       0.87561129 </v>
   <v>       0.06526642       0.04397698       0.87551088 </v>
   <v>       0.56166716       0.53277986       0.12452806 </v>
   <v>       0.80793382       0.36613555       0.16577737 </v>
   <v>       0.06232874       0.87134054       0.43423370 </v>
   <v>       0.93694390       0.12274798       0.52150636 </v>
   <v>       0.19027606       0.78732930       0.38911176 </v>
   <v>       0.56483036       0.70316190       0.21182278 </v>
  </varray>
 </structure>
</modeling>
