<?xml version="1.0" encoding="ISO-8859-1"?>
<modeling>
 <generator>
  <i name="program" type="string">vasp </i>
  <i name="version" type="string">5.4.4.18Apr17-6-g9f103f2a35  </i>
  <i name="subversion" type="string">(build Sep 27 2018 12:46:37) complex + VL-xray_ parallel </i>
  <i name="platform" type="string">LLNL_Quartz_ifc </i>
  <i name="date" type="string">2021 09 27 </i>
  <i name="time" type="string">00:56:34 </i>
 </generator>
 <incar>
  <i type="int" name="ISTART">     2</i>
  <i type="string" name="PREC">accurate</i>
  <i type="string" name="ALGO"> Fast</i>
  <i type="int" name="ICHARG">     2</i>
  <i type="int" name="INIWAV">     1</i>
  <i type="int" name="NELM">   100</i>
  <i type="int" name="NELMIN">     4</i>
  <i type="int" name="IBRION">     2</i>
  <i name="EDIFF">      0.00000100</i>
  <i type="int" name="NSW">     5</i>
  <i type="int" name="ISIF">     2</i>
  <i type="int" name="ISYM">     2</i>
  <i name="ENCUT">    450.00000000</i>
  <i name="POTIM">      0.25000000</i>
  <i type="string" name="LREAL"> Auto</i>
  <i type="int" name="ISMEAR">     0</i>
  <i name="SIGMA">      0.15000000</i>
  <i type="logical" name="LWAVE"> F  </i>
  <i type="logical" name="LCHARG"> F  </i>
  <i type="int" name="ICORELEVEL">     0</i>
  <i type="int" name="CLNT">     1</i>
  <i type="int" name="CLN">     1</i>
  <i type="int" name="INCAR     ">     0</i>
  <i name="CLZ">      0.00000000</i>
  <v type="int" name="KPOINT_BSE">    -1     0     0     0</v>
  <i type="int" name="NELM">   100</i>
 </incar>
 <structure name="primitive_cell" >
  <crystal>
   <varray name="basis" >
    <v>       9.72667804       0.00000000       0.00000000 </v>
    <v>       0.00000000       8.42355028       0.00000000 </v>
    <v>       0.00000000       0.00000000      45.00000000 </v>
   </varray>
   <i name="volume">   3686.99226691 </i>
   <varray name="rec_basis" >
    <v>       0.10281002       0.00000000       0.00000000 </v>
    <v>       0.00000000       0.11871479       0.00000000 </v>
    <v>       0.00000000       0.00000000       0.02222222 </v>
   </varray>
  </crystal>
  <varray name="positions" >
   <v>       0.06259433       0.03010988       0.12424357 </v>
   <v>       0.18318111       0.11248737       0.16646138 </v>
   <v>       0.05678495      -0.13483164       0.16673071 </v>
   <v>       0.18604675      -0.21263071       0.12410004 </v>
   <v>      -0.06502980      -0.21192517       0.12446273 </v>
   <v>      -0.06873106       0.11440465       0.16685478 </v>
   <v>      -0.18632701       0.03119093       0.12410427 </v>
   <v>       0.31167385       0.03019154       0.12412678 </v>
   <v>       0.18506301       0.28688388       0.12422880 </v>
   <v>      -0.06543443       0.28677333       0.12416107 </v>
   <v>       0.30548263      -0.13534400       0.16601647 </v>
   <v>       0.05541144       0.36524532       0.16670729 </v>
   <v>      -0.19267823      -0.13682742       0.16683963 </v>
   <v>       0.43321914       0.11214490       0.16654189 </v>
   <v>      -0.05902694      -0.04614006       0.21127010 </v>
   <v>       0.30695673       0.36366541       0.16667046 </v>
   <v>       0.18233979      -0.38642751       0.16672879 </v>
   <v>       0.43531316      -0.21302489       0.12425161 </v>
   <v>       0.06597876       0.20319051       0.21099802 </v>
   <v>       0.19118510      -0.04457575       0.21166217 </v>
   <v>      -0.06709991      -0.38718197       0.16668349 </v>
   <v>      -0.31540008      -0.21216682       0.12449251 </v>
   <v>       0.06244541      -0.46956233       0.12414209 </v>
   <v>       0.43420233       0.28636646       0.12425622 </v>
   <v>      -0.19459628       0.36552543       0.16585502 </v>
   <v>      -0.31751315       0.11363439       0.16672437 </v>
   <v>      -0.31360012       0.28643565       0.12396038 </v>
   <v>       0.06710067      -0.29716345       0.21118677 </v>
   <v>      -0.18412200       0.20248481       0.21119712 </v>
   <v>       0.31586154       0.20334167       0.21124701 </v>
   <v>      -0.18670512      -0.47011261       0.12409586 </v>
   <v>       0.31161198      -0.46987776       0.12415070 </v>
   <v>      -0.43710342       0.03190422       0.12431230 </v>
   <v>      -0.18273891      -0.29684645       0.21132093 </v>
   <v>      -0.44313780      -0.13778808       0.16647813 </v>
   <v>       0.43164606      -0.38724733       0.16626354 </v>
   <v>      -0.30913124      -0.04482507       0.21178027 </v>
   <v>       0.31657050      -0.29685317       0.21151404 </v>
   <v>       0.44144482      -0.04480827       0.21186953 </v>
   <v>       0.18979429       0.45405117       0.21132245 </v>
   <v>      -0.31764311      -0.38840776       0.16628073 </v>
   <v>      -0.05972770       0.45452206       0.21174720 </v>
   <v>      -0.44361324       0.36453700       0.16662407 </v>
   <v>       0.05897361       0.03713334       0.25577730 </v>
   <v>       0.18427397      -0.21249109       0.25547594 </v>
   <v>      -0.06631923      -0.21259288       0.25564138 </v>
   <v>      -0.43322425       0.20277437       0.21141980 </v>
   <v>       0.30895716       0.03746921       0.25579635 </v>
   <v>      -0.19098504       0.03812391       0.25586287 </v>
   <v>       0.18396213       0.28803202       0.25585201 </v>
   <v>      -0.43767920      -0.47075479       0.12449620 </v>
   <v>      -0.06635321       0.28813651       0.25576639 </v>
   <v>      -0.31081760       0.45432377       0.21163856 </v>
   <v>       0.44060311       0.45348442       0.21111133 </v>
   <v>      -0.43364060      -0.29707069       0.21187580 </v>
   <v>       0.43333835      -0.21213030       0.25547942 </v>
   <v>       0.05899368      -0.46295845       0.25551348 </v>
   <v>       0.43298428       0.28782701       0.25567231 </v>
   <v>      -0.31682987      -0.21155523       0.25578605 </v>
   <v>      -0.31578497       0.28841284       0.25589042 </v>
   <v>       0.30852933      -0.46289611       0.25571610 </v>
   <v>      -0.44101077       0.03730503       0.25544192 </v>
   <v>      -0.19132000      -0.46288117       0.25583182 </v>
   <v>       0.06975583      -0.12755127       0.29998694 </v>
   <v>      -0.05506165       0.12268615       0.30004956 </v>
   <v>       0.19526019       0.12377927       0.30007502 </v>
   <v>      -0.17960075      -0.12665669       0.30027528 </v>
   <v>       0.31907671      -0.12702390       0.29996598 </v>
   <v>       0.06899917       0.37452881       0.29998870 </v>
   <v>      -0.44180959      -0.46217910       0.25562169 </v>
   <v>      -0.05549150      -0.37652151       0.29988072 </v>
   <v>       0.19440246      -0.37721171       0.30005795 </v>
   <v>      -0.30440006       0.12292990       0.30037979 </v>
   <v>      -0.18059622       0.37275466       0.29999479 </v>
   <v>       0.44375157       0.12356225       0.30022440 </v>
   <v>       0.31928375       0.37397367       0.30002570 </v>
   <v>      -0.30586419      -0.37648092       0.30001703 </v>
   <v>      -0.43044386      -0.12577864       0.30016149 </v>
   <v>       0.44583868      -0.37707173       0.30010419 </v>
   <v>      -0.43031876       0.37217003       0.30012679 </v>
   <v>       0.18377319      -0.04797012       0.34494156 </v>
   <v>      -0.06593048      -0.04813523       0.34475169 </v>
   <v>       0.05857429       0.20257897       0.34488829 </v>
   <v>       0.05854081      -0.29767881       0.34491042 </v>
   <v>       0.30869768       0.20269415       0.34469107 </v>
   <v>      -0.19120218       0.20249342       0.34489711 </v>
   <v>       0.30885110      -0.29882439       0.34482760 </v>
   <v>       0.43354094      -0.04731799       0.34493624 </v>
   <v>      -0.19146653      -0.29747437       0.34493223 </v>
   <v>      -0.31730290      -0.04817689       0.34469473 </v>
   <v>       0.18363310       0.45253636       0.34490566 </v>
   <v>      -0.06634072       0.45232225       0.34492178 </v>
   <v>      -0.44161729       0.20233811       0.34476436 </v>
   <v>       0.43367652       0.45264148       0.34503200 </v>
   <v>      -0.31641551       0.45253394       0.34492941 </v>
   <v>       0.06536789       0.03902682      -0.12423181 </v>
   <v>      -0.44107656      -0.29780828       0.34491041 </v>
   <v>       0.18786609      -0.20269314      -0.12392527 </v>
   <v>      -0.06293163      -0.20451970      -0.12441705 </v>
   <v>       0.31429264       0.04103628      -0.12410757 </v>
   <v>      -0.18712623       0.04077333      -0.12421240 </v>
   <v>       0.18853055       0.29683811      -0.12380795 </v>
   <v>      -0.06511604       0.29803988      -0.12442237 </v>
   <v>       0.43659028      -0.20216454      -0.12378584 </v>
   <v>       0.06326727      -0.45918467      -0.12410522 </v>
   <v>       0.06642564       0.03814966       0.38914902 </v>
   <v>      -0.31554838      -0.20220824      -0.12402594 </v>
   <v>       0.43652436       0.29839034      -0.12362700 </v>
   <v>      -0.31454828       0.29911008      -0.12395526 </v>
   <v>      -0.05871289      -0.21215721       0.38885059 </v>
   <v>       0.19317165      -0.21227548       0.38875927 </v>
   <v>       0.31318584      -0.45921835      -0.12392829 </v>
   <v>      -0.18211250       0.03921545       0.38916105 </v>
   <v>       0.31654056       0.03693938       0.38879430 </v>
   <v>      -0.18795517      -0.45964412      -0.12412649 </v>
   <v>      -0.05880664       0.28656486       0.38900096 </v>
   <v>       0.19106653       0.28758843       0.38892898 </v>
   <v>      -0.43720098       0.04064242      -0.12394025 </v>
   <v>       0.06711850      -0.46149820       0.38909617 </v>
   <v>      -0.30851547      -0.21224229       0.38905352 </v>
   <v>      -0.30874729       0.28736225       0.38902221 </v>
   <v>       0.44152411      -0.21238240       0.38905976 </v>
   <v>       0.44127087       0.28783308       0.38914014 </v>
   <v>      -0.18361746      -0.46229111       0.38906269 </v>
   <v>       0.31585986      -0.46171876       0.38890642 </v>
   <v>      -0.43361263       0.03786255       0.38905284 </v>
   <v>      -0.43764547      -0.45910639      -0.12399585 </v>
   <v>      -0.05740313      -0.03498114      -0.16607167 </v>
   <v>       0.06670075       0.21541625      -0.16594365 </v>
   <v>       0.19161488      -0.03647089      -0.16641548 </v>
   <v>       0.06608307      -0.28317103      -0.16604497 </v>
   <v>      -0.18169809       0.21525034      -0.16635183 </v>
   <v>       0.31692124       0.21281877      -0.16654070 </v>
   <v>      -0.43359232      -0.46227656       0.38907973 </v>
   <v>      -0.18281909      -0.28451359      -0.16665213 </v>
   <v>      -0.30837848      -0.03761304      -0.16652471 </v>
   <v>       0.31814614      -0.28609694      -0.16678055 </v>
   <v>       0.44289140      -0.03670426      -0.16664724 </v>
   <v>      -0.05759530       0.46452802      -0.16623563 </v>
   <v>       0.19173921       0.46334136      -0.16648119 </v>
   <v>       0.06205324      -0.12868672       0.43446596 </v>
   <v>       0.18690349       0.11996866       0.43429497 </v>
   <v>      -0.06305262       0.11982077       0.43460705 </v>
   <v>      -0.43389627       0.21354598      -0.16675417 </v>
   <v>      -0.30777814       0.46225373      -0.16667010 </v>
   <v>       0.44239745       0.46282084      -0.16662795 </v>
   <v>      -0.43359912      -0.28631234      -0.16665084 </v>
   <v>      -0.18825947      -0.12885888       0.43427208 </v>
   <v>       0.31196276      -0.12966776       0.43450673 </v>
   <v>       0.06299788       0.37163721       0.43424824 </v>
   <v>       0.18733610      -0.37986507       0.43445934 </v>
   <v>      -0.06255455      -0.37964293       0.43448262 </v>
   <v>       0.43699831       0.12066305       0.43440460 </v>
   <v>      -0.31234115       0.11990405       0.43439660 </v>
   <v>      -0.18823284       0.37141488       0.43420425 </v>
   <v>       0.31261891       0.37042943       0.43444268 </v>
   <v>       0.43674942      -0.37925129       0.43441271 </v>
   <v>      -0.31206708      -0.37927789       0.43442066 </v>
   <v>      -0.43753547      -0.12952068       0.43441397 </v>
   <v>      -0.43796370       0.37111241       0.43434989 </v>
   <v>       0.05907486      -0.12576727      -0.21154587 </v>
   <v>       0.18370792       0.12327561      -0.21140723 </v>
   <v>      -0.06592894       0.12461247      -0.21135609 </v>
   <v>       0.31005612      -0.12675738      -0.21155237 </v>
   <v>      -0.19105882      -0.12617896      -0.21160027 </v>
   <v>       0.05897720       0.37500824      -0.21156629 </v>
   <v>       0.43374307       0.12291172      -0.21103744 </v>
   <v>       0.18435907      -0.37736575      -0.21149148 </v>
   <v>      -0.06681271      -0.37562373      -0.21162654 </v>
   <v>       0.30882975       0.37394847      -0.21121150 </v>
   <v>      -0.31767061       0.12277442      -0.21140552 </v>
   <v>      -0.19119637       0.37501834      -0.21145573 </v>
   <v>       0.43305789      -0.37702848      -0.21107060 </v>
   <v>      -0.44082195      -0.12637275      -0.21136466 </v>
   <v>      -0.31698754      -0.37759228      -0.21137559 </v>
   <v>       0.18741631      -0.04426833       0.47868756 </v>
   <v>      -0.06268990      -0.04471713       0.47873926 </v>
   <v>       0.06255039       0.20592106       0.47867137 </v>
   <v>      -0.44122663       0.37343308      -0.21123464 </v>
   <v>       0.06231239      -0.29422372       0.47859505 </v>
   <v>      -0.18776952       0.20574535       0.47867353 </v>
   <v>       0.31246159       0.20576643       0.47872145 </v>
   <v>       0.31229083      -0.29421596       0.47863376 </v>
   <v>      -0.18747758      -0.29415657       0.47867613 </v>
   <v>       0.43731624      -0.04425614       0.47866794 </v>
   <v>      -0.31248140      -0.04428121       0.47872069 </v>
   <v>      -0.06264856       0.45570668       0.47866065 </v>
   <v>       0.18747773       0.45560647       0.47870860 </v>
   <v>      -0.43779242       0.20572925       0.47869071 </v>
   <v>       0.43747273       0.45593321       0.47856699 </v>
   <v>      -0.31276156       0.45578132       0.47863664 </v>
   <v>      -0.43748766      -0.29440046       0.47867764 </v>
   <v>       0.06568385       0.04047531      -0.25584492 </v>
   <v>      -0.05963352      -0.20914082      -0.25551791 </v>
   <v>       0.18968676      -0.20825646      -0.25559282 </v>
   <v>      -0.18447926       0.04062232      -0.25580804 </v>
   <v>      -0.06003470       0.29093206      -0.25551552 </v>
   <v>       0.19066546       0.29107907      -0.25563517 </v>
   <v>       0.31510037       0.04187591      -0.25589975 </v>
   <v>       0.06548247      -0.45902520      -0.25566143 </v>
   <v>      -0.30996265      -0.20842460      -0.25571014 </v>
   <v>       0.43961057      -0.20794339      -0.25553998 </v>
   <v>      -0.30983101       0.29137877      -0.25575398 </v>
   <v>       0.43976074       0.29167486      -0.25575294 </v>
   <v>      -0.18422956      -0.45969457      -0.25579426 </v>
   <v>       0.31522320      -0.45864286      -0.25573971 </v>
   <v>      -0.43437138       0.04121941      -0.25576671 </v>
   <v>       0.06189585      -0.12827494      -0.47858543 </v>
   <v>       0.18691071       0.12200262      -0.47861005 </v>
   <v>      -0.06338327       0.12185239      -0.47846103 </v>
   <v>       0.31172358      -0.12805361      -0.47855434 </v>
   <v>      -0.18829527      -0.12861315      -0.47856552 </v>
   <v>       0.06155444       0.37233250      -0.47857590 </v>
   <v>      -0.06312809      -0.37806141      -0.47856247 </v>
   <v>       0.18697690      -0.37855477      -0.47855397 </v>
   <v>      -0.43474328      -0.45855134      -0.25588306 </v>
   <v>       0.43685569       0.12172849      -0.47851510 </v>
   <v>      -0.31325294       0.12177242      -0.47857569 </v>
   <v>       0.31181587       0.37192773      -0.47861595 </v>
   <v>      -0.18798480       0.37209207      -0.47863663 </v>
   <v>       0.43671621      -0.37802480      -0.47858491 </v>
   <v>      -0.31333162      -0.37852200      -0.47865137 </v>
   <v>      -0.43797782      -0.12777487      -0.47854217 </v>
   <v>      -0.43810564       0.37203912      -0.47860504 </v>
   <v>       0.18523363      -0.04262352      -0.30021007 </v>
   <v>      -0.06472812      -0.04187444      -0.30033132 </v>
   <v>       0.06061733       0.20781983      -0.30029082 </v>
   <v>       0.06060433      -0.29237633      -0.30035569 </v>
   <v>       0.31074772       0.20726436      -0.30015915 </v>
   <v>      -0.18917994       0.20739545      -0.30014198 </v>
   <v>       0.31027411      -0.29296191      -0.30024707 </v>
   <v>      -0.18987588      -0.29261408      -0.30027457 </v>
   <v>       0.43550735      -0.04236545      -0.30024233 </v>
   <v>      -0.31485590      -0.04284258      -0.30020375 </v>
   <v>       0.18535781       0.45776783      -0.30035932 </v>
   <v>      -0.06475126       0.45800300      -0.30035028 </v>
   <v>      -0.43954767       0.20715837      -0.30018588 </v>
   <v>       0.43560936       0.45748706      -0.30024969 </v>
   <v>      -0.31514036       0.45768369      -0.30025550 </v>
   <v>      -0.43947476      -0.29287859      -0.30023644 </v>
   <v>       0.18686224      -0.04295160      -0.43445151 </v>
   <v>      -0.06311849      -0.04271602      -0.43446785 </v>
   <v>       0.06213171       0.20706232      -0.43461430 </v>
   <v>       0.06197036      -0.29372175      -0.43443837 </v>
   <v>       0.31144840       0.20666576      -0.43447379 </v>
   <v>      -0.18878317       0.20704153      -0.43451466 </v>
   <v>       0.31137021      -0.29298760      -0.43446303 </v>
   <v>      -0.18869263      -0.29335638      -0.43453266 </v>
   <v>       0.43686148      -0.04281108      -0.43458086 </v>
   <v>      -0.31265625      -0.04313313      -0.43446627 </v>
   <v>       0.18740017       0.45713996      -0.43446088 </v>
   <v>      -0.06353181       0.45640546      -0.43440952 </v>
   <v>      -0.43790670       0.20709191      -0.43446730 </v>
   <v>      -0.31341203       0.45686101      -0.43457210 </v>
   <v>       0.43673091       0.45685689      -0.43445198 </v>
   <v>      -0.43773728      -0.29308289      -0.43445450 </v>
   <v>       0.06641467      -0.12523159      -0.34506658 </v>
   <v>       0.19131298       0.12490099      -0.34483831 </v>
   <v>      -0.05878609       0.12483832      -0.34503640 </v>
   <v>      -0.18391044      -0.12518714      -0.34494870 </v>
   <v>       0.31623472      -0.12517331      -0.34495368 </v>
   <v>       0.06622297       0.37474752      -0.34507830 </v>
   <v>       0.19118437      -0.37484872      -0.34494191 </v>
   <v>      -0.05874365      -0.37482305      -0.34508257 </v>
   <v>      -0.30882192       0.12490663      -0.34498557 </v>
   <v>      -0.18374068       0.37472166      -0.34499979 </v>
   <v>       0.44119853       0.12454125      -0.34505996 </v>
   <v>       0.31609657       0.37423711      -0.34501376 </v>
   <v>      -0.30899330      -0.37497880      -0.34478029 </v>
   <v>      -0.43390488      -0.12548460      -0.34502023 </v>
   <v>       0.44128958      -0.37515414      -0.34496806 </v>
   <v>      -0.43389948       0.37454991      -0.34504815 </v>
   <v>       0.05876446       0.03806867      -0.38911323 </v>
   <v>       0.18371241      -0.21178315      -0.38908464 </v>
   <v>      -0.06632087      -0.21232929      -0.38907887 </v>
   <v>       0.30911867       0.03842911      -0.38892997 </v>
   <v>      -0.06631780       0.28787882      -0.38910936 </v>
   <v>      -0.19098497       0.03835675      -0.38898526 </v>
   <v>       0.18416134       0.28850617      -0.38894728 </v>
   <v>       0.05867190      -0.46185273      -0.38901450 </v>
   <v>       0.43389825      -0.21168459      -0.38899756 </v>
   <v>      -0.31609134      -0.21197871      -0.38905110 </v>
   <v>       0.43398439       0.28833684      -0.38901342 </v>
   <v>      -0.31611497       0.28847638      -0.38897348 </v>
   <v>       0.30898497      -0.46177235      -0.38900705 </v>
   <v>      -0.19099604      -0.46157453      -0.38894668 </v>
   <v>      -0.44081176       0.03868213      -0.38888218 </v>
   <v>      -0.44102722      -0.46160385      -0.38901792 </v>
  </varray>
 </structure>
 <varray name="primitive_index" >
  <v type="int" >        1 </v>
  <v type="int" >      125 </v>
  <v type="int" >       60 </v>
  <v type="int" >       83 </v>
  <v type="int" >       44 </v>
  <v type="int" >       26 </v>
  <v type="int" >      202 </v>
  <v type="int" >      256 </v>
  <v type="int" >      111 </v>
  <v type="int" >      155 </v>
  <v type="int" >      277 </v>
  <v type="int" >       51 </v>
  <v type="int" >      102 </v>
  <v type="int" >      182 </v>
  <v type="int" >      212 </v>
  <v type="int" >      108 </v>
  <v type="int" >       20 </v>
  <v type="int" >      170 </v>
  <v type="int" >       50 </v>
  <v type="int" >      146 </v>
  <v type="int" >      104 </v>
  <v type="int" >      163 </v>
  <v type="int" >      176 </v>
  <v type="int" >      117 </v>
  <v type="int" >      284 </v>
  <v type="int" >      166 </v>
  <v type="int" >      145 </v>
  <v type="int" >      250 </v>
  <v type="int" >      167 </v>
  <v type="int" >      249 </v>
  <v type="int" >      205 </v>
  <v type="int" >       91 </v>
  <v type="int" >      114 </v>
  <v type="int" >      213 </v>
  <v type="int" >      192 </v>
  <v type="int" >      174 </v>
  <v type="int" >       92 </v>
  <v type="int" >      109 </v>
  <v type="int" >      229 </v>
  <v type="int" >      189 </v>
  <v type="int" >       97 </v>
  <v type="int" >      175 </v>
  <v type="int" >       30 </v>
  <v type="int" >      185 </v>
  <v type="int" >      200 </v>
  <v type="int" >       52 </v>
  <v type="int" >      103 </v>
  <v type="int" >      179 </v>
  <v type="int" >       24 </v>
  <v type="int" >      112 </v>
  <v type="int" >      283 </v>
  <v type="int" >      127 </v>
  <v type="int" >      261 </v>
  <v type="int" >      139 </v>
  <v type="int" >      288 </v>
  <v type="int" >      137 </v>
  <v type="int" >      168 </v>
  <v type="int" >      265 </v>
  <v type="int" >      118 </v>
  <v type="int" >       58 </v>
  <v type="int" >      275 </v>
  <v type="int" >      221 </v>
  <v type="int" >       81 </v>
  <v type="int" >      214 </v>
  <v type="int" >      135 </v>
  <v type="int" >      215 </v>
  <v type="int" >       72 </v>
  <v type="int" >       98 </v>
  <v type="int" >      226 </v>
  <v type="int" >       28 </v>
  <v type="int" >      178 </v>
  <v type="int" >      263 </v>
  <v type="int" >      276 </v>
  <v type="int" >      220 </v>
  <v type="int" >      159 </v>
  <v type="int" >      242 </v>
  <v type="int" >      130 </v>
  <v type="int" >      210 </v>
  <v type="int" >      101 </v>
  <v type="int" >      171 </v>
  <v type="int" >      258 </v>
  <v type="int" >      194 </v>
  <v type="int" >       47 </v>
  <v type="int" >      216 </v>
  <v type="int" >       86 </v>
  <v type="int" >      207 </v>
  <v type="int" >      208 </v>
  <v type="int" >      172 </v>
  <v type="int" >       73 </v>
  <v type="int" >       25 </v>
  <v type="int" >      116 </v>
  <v type="int" >       12 </v>
  <v type="int" >      219 </v>
  <v type="int" >      206 </v>
  <v type="int" >       48 </v>
  <v type="int" >      282 </v>
  <v type="int" >      164 </v>
  <v type="int" >      268 </v>
  <v type="int" >      281 </v>
  <v type="int" >      245 </v>
  <v type="int" >       14 </v>
  <v type="int" >      120 </v>
  <v type="int" >      280 </v>
  <v type="int" >      150 </v>
  <v type="int" >      266 </v>
  <v type="int" >      124 </v>
  <v type="int" >       29 </v>
  <v type="int" >      255 </v>
  <v type="int" >      191 </v>
  <v type="int" >      190 </v>
  <v type="int" >      287 </v>
  <v type="int" >       18 </v>
  <v type="int" >      279 </v>
  <v type="int" >      165 </v>
  <v type="int" >      231 </v>
  <v type="int" >       13 </v>
  <v type="int" >      248 </v>
  <v type="int" >      161 </v>
  <v type="int" >      273 </v>
  <v type="int" >       45 </v>
  <v type="int" >       84 </v>
  <v type="int" >      264 </v>
  <v type="int" >        4 </v>
  <v type="int" >      123 </v>
  <v type="int" >       67 </v>
  <v type="int" >       16 </v>
  <v type="int" >       64 </v>
  <v type="int" >       17 </v>
  <v type="int" >      259 </v>
  <v type="int" >        7 </v>
  <v type="int" >      134 </v>
  <v type="int" >        6 </v>
  <v type="int" >       39 </v>
  <v type="int" >      222 </v>
  <v type="int" >      253 </v>
  <v type="int" >       88 </v>
  <v type="int" >        5 </v>
  <v type="int" >      110 </v>
  <v type="int" >       36 </v>
  <v type="int" >      181 </v>
  <v type="int" >      285 </v>
  <v type="int" >      160 </v>
  <v type="int" >      158 </v>
  <v type="int" >      143 </v>
  <v type="int" >       82 </v>
  <v type="int" >       74 </v>
  <v type="int" >      241 </v>
  <v type="int" >      235 </v>
  <v type="int" >       23 </v>
  <v type="int" >      218 </v>
  <v type="int" >      238 </v>
  <v type="int" >      131 </v>
  <v type="int" >      201 </v>
  <v type="int" >      257 </v>
  <v type="int" >       80 </v>
  <v type="int" >      113 </v>
  <v type="int" >      278 </v>
  <v type="int" >      232 </v>
  <v type="int" >       69 </v>
  <v type="int" >      251 </v>
  <v type="int" >      197 </v>
  <v type="int" >        3 </v>
  <v type="int" >      149 </v>
  <v type="int" >      224 </v>
  <v type="int" >       55 </v>
  <v type="int" >      254 </v>
  <v type="int" >       49 </v>
  <v type="int" >      272 </v>
  <v type="int" >      132 </v>
  <v type="int" >      138 </v>
  <v type="int" >      188 </v>
  <v type="int" >       57 </v>
  <v type="int" >      184 </v>
  <v type="int" >       33 </v>
  <v type="int" >       66 </v>
  <v type="int" >       94 </v>
  <v type="int" >      236 </v>
  <v type="int" >      223 </v>
  <v type="int" >      106 </v>
  <v type="int" >      157 </v>
  <v type="int" >       21 </v>
  <v type="int" >      230 </v>
  <v type="int" >       99 </v>
  <v type="int" >      234 </v>
  <v type="int" >      105 </v>
  <v type="int" >       75 </v>
  <v type="int" >      269 </v>
  <v type="int" >      244 </v>
  <v type="int" >      237 </v>
  <v type="int" >      156 </v>
  <v type="int" >      199 </v>
  <v type="int" >      169 </v>
  <v type="int" >        9 </v>
  <v type="int" >       46 </v>
  <v type="int" >      262 </v>
  <v type="int" >      151 </v>
  <v type="int" >      187 </v>
  <v type="int" >       11 </v>
  <v type="int" >      239 </v>
  <v type="int" >      211 </v>
  <v type="int" >       43 </v>
  <v type="int" >       31 </v>
  <v type="int" >       19 </v>
  <v type="int" >       71 </v>
  <v type="int" >       87 </v>
  <v type="int" >      243 </v>
  <v type="int" >      267 </v>
  <v type="int" >       27 </v>
  <v type="int" >      140 </v>
  <v type="int" >      286 </v>
  <v type="int" >      144 </v>
  <v type="int" >       10 </v>
  <v type="int" >      107 </v>
  <v type="int" >      203 </v>
  <v type="int" >       68 </v>
  <v type="int" >      270 </v>
  <v type="int" >      119 </v>
  <v type="int" >       34 </v>
  <v type="int" >      183 </v>
  <v type="int" >      177 </v>
  <v type="int" >      252 </v>
  <v type="int" >      195 </v>
  <v type="int" >       77 </v>
  <v type="int" >      247 </v>
  <v type="int" >      173 </v>
  <v type="int" >      225 </v>
  <v type="int" >       37 </v>
  <v type="int" >      274 </v>
  <v type="int" >       63 </v>
  <v type="int" >      233 </v>
  <v type="int" >      154 </v>
  <v type="int" >      141 </v>
  <v type="int" >       38 </v>
  <v type="int" >       54 </v>
  <v type="int" >      246 </v>
  <v type="int" >      152 </v>
  <v type="int" >       53 </v>
  <v type="int" >      193 </v>
  <v type="int" >       76 </v>
  <v type="int" >      133 </v>
  <v type="int" >      162 </v>
  <v type="int" >      129 </v>
  <v type="int" >       62 </v>
  <v type="int" >       65 </v>
  <v type="int" >       93 </v>
  <v type="int" >      271 </v>
  <v type="int" >       90 </v>
  <v type="int" >       32 </v>
  <v type="int" >       56 </v>
  <v type="int" >       95 </v>
  <v type="int" >       59 </v>
  <v type="int" >       42 </v>
  <v type="int" >        8 </v>
  <v type="int" >      228 </v>
  <v type="int" >       70 </v>
  <v type="int" >      186 </v>
  <v type="int" >      196 </v>
  <v type="int" >      121 </v>
  <v type="int" >      122 </v>
  <v type="int" >       79 </v>
  <v type="int" >        2 </v>
  <v type="int" >      198 </v>
  <v type="int" >      153 </v>
  <v type="int" >      240 </v>
  <v type="int" >      209 </v>
  <v type="int" >       35 </v>
  <v type="int" >      204 </v>
  <v type="int" >       85 </v>
  <v type="int" >      227 </v>
  <v type="int" >       89 </v>
  <v type="int" >       40 </v>
  <v type="int" >       78 </v>
  <v type="int" >      142 </v>
  <v type="int" >       15 </v>
  <v type="int" >      136 </v>
  <v type="int" >      148 </v>
  <v type="int" >      100 </v>
  <v type="int" >      217 </v>
  <v type="int" >       61 </v>
  <v type="int" >      126 </v>
  <v type="int" >       96 </v>
  <v type="int" >      180 </v>
  <v type="int" >      115 </v>
  <v type="int" >      147 </v>
  <v type="int" >       41 </v>
  <v type="int" >       22 </v>
  <v type="int" >      260 </v>
  <v type="int" >      128 </v>
 </varray>
 <kpoints>
  <generation param="Gamma">
   <v type="int" name="divisions">       4        4        1 </v>
   <v name="usershift">      0.00000000       0.00000000       0.00000000 </v>
   <v name="genvec1">      0.25000000       0.00000000       0.00000000 </v>
   <v name="genvec2">      0.00000000       0.25000000       0.00000000 </v>
   <v name="genvec3">      0.00000000       0.00000000       1.00000000 </v>
   <v name="shift">      0.00000000       0.00000000       0.00000000 </v>
  </generation>
  <varray name="kpointlist" >
   <v>       0.00000000       0.00000000       0.00000000 </v>
   <v>       0.25000000       0.00000000       0.00000000 </v>
   <v>       0.50000000       0.00000000       0.00000000 </v>
   <v>       0.00000000       0.25000000       0.00000000 </v>
   <v>       0.25000000       0.25000000       0.00000000 </v>
   <v>       0.50000000       0.25000000       0.00000000 </v>
   <v>      -0.25000000       0.25000000       0.00000000 </v>
   <v>       0.00000000       0.50000000       0.00000000 </v>
   <v>       0.25000000       0.50000000       0.00000000 </v>
   <v>       0.50000000       0.50000000       0.00000000 </v>
  </varray>
  <varray name="weights" >
   <v>       0.06250000 </v>
   <v>       0.12500000 </v>
   <v>       0.06250000 </v>
   <v>       0.12500000 </v>
   <v>       0.12500000 </v>
   <v>       0.12500000 </v>
   <v>       0.12500000 </v>
   <v>       0.06250000 </v>
   <v>       0.12500000 </v>
   <v>       0.06250000 </v>
  </varray>
 </kpoints>
 <parameters>
  <separator name="general" >
   <i type="string" name="SYSTEM">unknown system</i>
   <i type="logical" name="LCOMPAT"> F  </i>
  </separator>
  <separator name="electronic" >
   <i type="string" name="PREC">accura</i>
   <i name="ENMAX">    450.00000000</i>
   <i name="ENAUG">    838.43500000</i>
   <i name="EDIFF">      0.00000100</i>
   <i type="int" name="IALGO">    68</i>
   <i type="int" name="IWAVPR">    11</i>
   <i type="int" name="NBANDS">  1386</i>
   <i name="NELECT">   2290.00000000</i>
   <i type="int" name="TURBO">     0</i>
   <i type="int" name="IRESTART">     0</i>
   <i type="int" name="NREBOOT">     0</i>
   <i type="int" name="NMIN">     0</i>
   <i name="EREF">      0.00000000</i>
   <separator name="electronic smearing" >
    <i type="int" name="ISMEAR">     0</i>
    <i name="SIGMA">      0.15000000</i>
    <i name="KSPACING">      0.50000000</i>
    <i type="logical" name="KGAMMA"> T  </i>
   </separator>
   <separator name="electronic projectors" >
    <i type="logical" name="LREAL"> T  </i>
    <v name="ROPT">     -0.00025000     -0.00025000</v>
    <i type="int" name="LMAXPAW">  -100</i>
    <i type="int" name="LMAXMIX">     2</i>
    <i type="logical" name="NLSPLINE"> F  </i>
   </separator>
   <separator name="electronic startup" >
    <i type="int" name="ISTART">     0</i>
    <i type="int" name="ICHARG">     2</i>
    <i type="int" name="INIWAV">     1</i>
   </separator>
   <separator name="electronic spin" >
    <i type="int" name="ISPIN">     1</i>
    <i type="logical" name="LNONCOLLINEAR"> F  </i>
    <v name="MAGMOM">      1.00000000      1.00000000      1.00000000      1.00000000      1.00000000      1.00000000      1.00000000      1.00000000      1.00000000      1.00000000      1.00000000      1.00000000      1.00000000      1.00000000      1.00000000      1.00000000      1.00000000      1.00000000      1.00000000      1.00000000
      1.00000000      1.00000000      1.00000000      1.00000000      1.00000000      1.00000000      1.00000000      1.00000000      1.00000000      1.00000000      1.00000000      1.00000000      1.00000000      1.00000000      1.00000000      1.00000000      1.00000000      1.00000000      1.00000000      1.00000000
      1.00000000      1.00000000      1.00000000      1.00000000      1.00000000      1.00000000      1.00000000      1.00000000      1.00000000      1.00000000      1.00000000      1.00000000      1.00000000      1.00000000      1.00000000      1.00000000      1.00000000      1.00000000      1.00000000      1.00000000
      1.00000000      1.00000000      1.00000000      1.00000000      1.00000000      1.00000000      1.00000000      1.00000000      1.00000000      1.00000000      1.00000000      1.00000000      1.00000000      1.00000000      1.00000000      1.00000000      1.00000000      1.00000000      1.00000000      1.00000000
      1.00000000      1.00000000      1.00000000      1.00000000      1.00000000      1.00000000      1.00000000      1.00000000      1.00000000      1.00000000      1.00000000      1.00000000      1.00000000      1.00000000      1.00000000      1.00000000      1.00000000      1.00000000      1.00000000      1.00000000
      1.00000000      1.00000000      1.00000000      1.00000000      1.00000000      1.00000000      1.00000000      1.00000000      1.00000000      1.00000000      1.00000000      1.00000000      1.00000000      1.00000000      1.00000000      1.00000000      1.00000000      1.00000000      1.00000000      1.00000000
      1.00000000      1.00000000      1.00000000      1.00000000      1.00000000      1.00000000      1.00000000      1.00000000      1.00000000      1.00000000      1.00000000      1.00000000      1.00000000      1.00000000      1.00000000      1.00000000      1.00000000      1.00000000      1.00000000      1.00000000
      1.00000000      1.00000000      1.00000000      1.00000000      1.00000000      1.00000000      1.00000000      1.00000000      1.00000000      1.00000000      1.00000000      1.00000000      1.00000000      1.00000000      1.00000000      1.00000000      1.00000000      1.00000000      1.00000000      1.00000000
      1.00000000      1.00000000      1.00000000      1.00000000      1.00000000      1.00000000      1.00000000      1.00000000      1.00000000      1.00000000      1.00000000      1.00000000      1.00000000      1.00000000      1.00000000      1.00000000      1.00000000      1.00000000      1.00000000      1.00000000
      1.00000000      1.00000000      1.00000000      1.00000000      1.00000000      1.00000000      1.00000000      1.00000000      1.00000000      1.00000000      1.00000000      1.00000000      1.00000000      1.00000000      1.00000000      1.00000000      1.00000000      1.00000000      1.00000000      1.00000000
      1.00000000      1.00000000      1.00000000      1.00000000      1.00000000      1.00000000      1.00000000      1.00000000      1.00000000      1.00000000      1.00000000      1.00000000      1.00000000      1.00000000      1.00000000      1.00000000      1.00000000      1.00000000      1.00000000      1.00000000
      1.00000000      1.00000000      1.00000000      1.00000000      1.00000000      1.00000000      1.00000000      1.00000000      1.00000000      1.00000000      1.00000000      1.00000000      1.00000000      1.00000000      1.00000000      1.00000000      1.00000000      1.00000000      1.00000000      1.00000000
      1.00000000      1.00000000      1.00000000      1.00000000      1.00000000      1.00000000      1.00000000      1.00000000      1.00000000      1.00000000      1.00000000      1.00000000      1.00000000      1.00000000      1.00000000      1.00000000      1.00000000      1.00000000      1.00000000      1.00000000
      1.00000000      1.00000000      1.00000000      1.00000000      1.00000000      1.00000000      1.00000000      1.00000000      1.00000000      1.00000000      1.00000000      1.00000000      1.00000000      1.00000000      1.00000000      1.00000000      1.00000000      1.00000000      1.00000000      1.00000000
      1.00000000      1.00000000      1.00000000      1.00000000      1.00000000      1.00000000      1.00000000      1.00000000</v>
    <i name="NUPDOWN">     -1.00000000</i>
    <i type="logical" name="LSORBIT"> F  </i>
    <v name="SAXIS">      0.00000000      0.00000000      1.00000000</v>
    <i type="logical" name="LSPIRAL"> F  </i>
    <v name="QSPIRAL">      0.00000000      0.00000000      0.00000000</v>
    <i type="logical" name="LZEROZ"> F  </i>
   </separator>
   <separator name="electronic exchange-correlation" >
    <i type="logical" name="LASPH"> F  </i>
    <i type="logical" name="LMETAGGA"> F  </i>
   </separator>
   <separator name="electronic convergence" >
    <i type="int" name="NELM">   100</i>
    <i type="int" name="NELMDL">     0</i>
    <i type="int" name="NELMIN">     4</i>
    <i name="ENINI">    450.00000000</i>
    <separator name="electronic convergence detail" >
     <i type="logical" name="LDIAG"> T  </i>
     <i type="logical" name="LSUBROT"> F  </i>
     <i name="WEIMIN">      0.00100000</i>
     <i name="EBREAK">      0.00000000</i>
     <i name="DEPER">      0.30000000</i>
     <i type="int" name="NRMM">     4</i>
     <i name="TIME">      0.40000000</i>
    </separator>
   </separator>
   <separator name="electronic mixer" >
    <i name="AMIX">      0.40000000</i>
    <i name="BMIX">      1.00000000</i>
    <i name="AMIN">      0.10000000</i>
    <i name="AMIX_MAG">      1.60000000</i>
    <i name="BMIX_MAG">      1.00000000</i>
    <separator name="electronic mixer details" >
     <i type="int" name="IMIX">     4</i>
     <i type="logical" name="MIXFIRST"> F  </i>
     <i type="int" name="MAXMIX">   -45</i>
     <i name="WC">    100.00000000</i>
     <i type="int" name="INIMIX">     1</i>
     <i type="int" name="MIXPRE">     1</i>
     <i type="int" name="MREMOVE">     5</i>
    </separator>
   </separator>
   <separator name="electronic dipolcorrection" >
    <i type="logical" name="LDIPOL"> F  </i>
    <i type="logical" name="LMONO"> F  </i>
    <i type="int" name="IDIPOL">     0</i>
    <i name="EPSILON">      1.00000000</i>
    <v name="DIPOL">   -100.00000000   -100.00000000   -100.00000000</v>
    <i name="EFIELD">      0.00000000</i>
   </separator>
  </separator>
  <separator name="grids" >
   <i type="int" name="NGX">    70</i>
   <i type="int" name="NGY">    60</i>
   <i type="int" name="NGZ">   320</i>
   <i type="int" name="NGXF">   140</i>
   <i type="int" name="NGYF">   120</i>
   <i type="int" name="NGZF">   640</i>
   <i type="logical" name="ADDGRID"> F  </i>
  </separator>
  <separator name="ionic" >
   <i type="int" name="NSW">     5</i>
   <i type="int" name="IBRION">     2</i>
   <i type="int" name="MDALGO">     0</i>
   <i type="int" name="ISIF">     2</i>
   <i name="PSTRESS">      0.00000000</i>
   <i name="EDIFFG">      0.00001000</i>
   <i type="int" name="NFREE">     1</i>
   <i name="POTIM">      0.25000000</i>
   <i name="SMASS">     -3.00000000</i>
   <i name="SCALEE">      1.00000000</i>
  </separator>
  <separator name="ionic md" >
   <i name="TEBEG">      0.00010000</i>
   <i name="TEEND">      0.00010000</i>
   <i type="int" name="NBLOCK">     1</i>
   <i type="int" name="KBLOCK">     5</i>
   <i type="int" name="NPACO">   256</i>
   <i name="APACO">     16.00000000</i>
  </separator>
  <separator name="symmetry" >
   <i type="int" name="ISYM">     2</i>
   <i name="SYMPREC">      0.00001000</i>
  </separator>
  <separator name="dos" >
   <i type="int" name="LORBIT">     0</i>
   <v name="RWIGS">     -1.00000000     -1.00000000</v>
   <i type="int" name="NEDOS">   301</i>
   <i name="EMIN">     10.00000000</i>
   <i name="EMAX">    -10.00000000</i>
   <i name="EFERMI">      0.00000000</i>
  </separator>
  <separator name="writing" >
   <i type="int" name="NWRITE">     2</i>
   <i type="logical" name="LWAVE"> F  </i>
   <i type="logical" name="LDOWNSAMPLE"> F  </i>
   <i type="logical" name="LCHARG"> F  </i>
   <i type="logical" name="LPARD"> F  </i>
   <i type="logical" name="LVTOT"> F  </i>
   <i type="logical" name="LVHAR"> F  </i>
   <i type="logical" name="LELF"> F  </i>
   <i type="logical" name="LOPTICS"> F  </i>
   <v name="STM">      0.00000000      0.00000000      0.00000000      0.00000000      0.00000000      0.00000000      0.00000000</v>
  </separator>
  <separator name="performance" >
   <i type="int" name="NPAR">    14</i>
   <i type="int" name="NSIM">     4</i>
   <i type="int" name="NBLK">    -1</i>
   <i type="logical" name="LPLANE"> T  </i>
   <i type="logical" name="LSCALAPACK"> T  </i>
   <i type="logical" name="LSCAAWARE"> T  </i>
   <i type="logical" name="LSCALU"> F  </i>
   <i type="logical" name="LASYNC"> F  </i>
   <i type="logical" name="LORBITALREAL"> F  </i>
  </separator>
  <separator name="miscellaneous" >
   <i type="int" name="IDIOT">     3</i>
   <i type="int" name="ISPECIAL">     0</i>
   <i type="logical" name="LMUSIC"> F  </i>
   <v name="POMASS">     55.84700000     54.93800000</v>
   <v name="DARWINR">      0.00000000      0.00000000</v>
   <v name="DARWINV">      1.00000000      1.00000000</v>
   <i type="logical" name="LCORR"> T  </i>
  </separator>
  <i type="logical" name="GGA_COMPAT"> T  </i>
  <i type="logical" name="LBERRY"> F  </i>
  <i type="int" name="ICORELEVEL">     0</i>
  <i type="logical" name="LDAU"> F  </i>
  <i type="int" name="I_CONSTRAINED_M">     0</i>
  <separator name="electronic exchange-correlation" >
   <i type="string" name="GGA">--</i>
   <i type="int" name="VOSKOWN">     0</i>
   <i type="logical" name="LHFCALC"> F  </i>
   <i type="string" name="PRECFOCK"></i>
   <i type="logical" name="LSYMGRAD"> F  </i>
   <i type="logical" name="LHFONE"> F  </i>
   <i type="logical" name="LRHFCALC"> F  </i>
   <i type="logical" name="LTHOMAS"> F  </i>
   <i type="logical" name="LMODELHF"> F  </i>
   <i name="ENCUT4O">     -1.00000000</i>
   <i type="int" name="EXXOEP">     0</i>
   <i type="int" name="FOURORBIT">     0</i>
   <i name="AEXX">      0.00000000</i>
   <i name="HFALPHA">      0.00000000</i>
   <i name="MCALPHA">      0.00000000</i>
   <i name="ALDAX">      1.00000000</i>
   <i name="AGGAX">      1.00000000</i>
   <i name="ALDAC">      1.00000000</i>
   <i name="AGGAC">      1.00000000</i>
   <i type="int" name="NKREDX">     1</i>
   <i type="int" name="NKREDY">     1</i>
   <i type="int" name="NKREDZ">     1</i>
   <i type="logical" name="SHIFTRED"> F  </i>
   <i type="logical" name="ODDONLY"> F  </i>
   <i type="logical" name="EVENONLY"> F  </i>
   <i type="int" name="LMAXFOCK">     0</i>
   <i type="int" name="NMAXFOCKAE">     0</i>
   <i type="logical" name="LFOCKAEDFT"> F  </i>
   <i name="HFSCREEN">      0.00000000</i>
   <i name="HFSCREENC">      0.00000000</i>
   <i type="int" name="NBANDSGWLOW">     0</i>
  </separator>
  <separator name="vdW DFT" >
   <i type="logical" name="LUSE_VDW"> F  </i>
   <i name="Zab_VDW">     -0.84910000</i>
   <i name="PARAM1">      0.12340000</i>
   <i name="PARAM2">      1.00000000</i>
   <i name="PARAM3">      0.00000000</i>
  </separator>
  <separator name="model GW" >
   <i type="int" name="MODEL_GW">     0</i>
   <i name="MODEL_EPS0">      7.68123389</i>
   <i name="MODEL_ALPHA">      1.00000000</i>
  </separator>
  <separator name="linear response parameters" >
   <i type="logical" name="LEPSILON"> F  </i>
   <i type="logical" name="LRPA"> F  </i>
   <i type="logical" name="LNABLA"> F  </i>
   <i type="logical" name="LVEL"> F  </i>
   <i type="int" name="KINTER">     0</i>
   <i name="CSHIFT">      0.10000000</i>
   <i name="OMEGAMAX">     -1.00000000</i>
   <i name="DEG_THRESHOLD">      0.00200000</i>
   <i name="RTIME">     -0.10000000</i>
   <i name="WPLASMAI">      0.00000000</i>
   <v name="DFIELD">      0.00000000      0.00000000      0.00000000</v>
   <v name="WPLASMA">      0.00000000      0.00000000      0.00000000      0.00000000      0.00000000      0.00000000      0.00000000      0.00000000      0.00000000</v>
  </separator>
  <separator name="orbital magnetization" >
   <i type="logical" name="NUCIND"> F  </i>
   <v name="MAGPOS">      0.00000000      0.00000000      0.00000000</v>
   <i type="logical" name="LNICSALL"> T  </i>
   <i type="logical" name="ORBITALMAG"> F  </i>
   <i type="logical" name="LMAGBLOCH"> F  </i>
   <i type="logical" name="LCHIMAG"> F  </i>
   <i type="logical" name="LGAUGE"> T  </i>
   <i type="int" name="MAGATOM">     0</i>
   <v name="MAGDIPOL">      0.00000000      0.00000000      0.00000000</v>
   <v name="AVECCONST">      0.00000000      0.00000000      0.00000000</v>
  </separator>
  <separator name="response functions" >
   <i type="logical" name="LADDER"> F  </i>
   <i type="logical" name="LRPAFORCE"> F  </i>
   <i type="logical" name="LFXC"> F  </i>
   <i type="logical" name="LHARTREE"> T  </i>
   <i type="int" name="IBSE">     0</i>
   <v type="int" name="KPOINT">    -1     0     0     0</v>
   <i type="logical" name="LTCTE"> F  </i>
   <i type="logical" name="LTETE"> F  </i>
   <i type="logical" name="LTRIPLET"> F  </i>
   <i type="logical" name="LFXCEPS"> F  </i>
   <i type="logical" name="LFXHEG"> F  </i>
   <i type="int" name="NATURALO">     2</i>
   <i type="logical" name="L2ORDER"> F  </i>
   <i type="logical" name="LMP2LT"> F  </i>
   <i type="logical" name="LUSEW"> F  </i>
   <i name="ENCUTGW">     -2.00000000</i>
   <i name="ENCUTGWSOFT">     -2.00000000</i>
   <i name="ENCUTLF">     -1.00000000</i>
   <i type="int" name="LMAXMP2">    -1</i>
   <i name="SCISSOR">      0.00000000</i>
   <i type="int" name="NOMEGA">     0</i>
   <i type="int" name="NOMEGAR">     0</i>
   <i type="int" name="NBANDSGW">    -1</i>
   <i type="int" name="NBANDSO">    -1</i>
   <i type="int" name="NBANDSV">    -1</i>
   <i type="int" name="NELM">   100</i>
   <i type="int" name="NELMHF">     1</i>
   <i type="int" name="DIM">     3</i>
   <i type="int" name="ANTIRES">     0</i>
   <i name="OMEGAMAX">    -30.00000000</i>
   <i name="OMEGAMIN">    -30.00000000</i>
   <i name="OMEGATL">   -200.00000000</i>
   <i type="int" name="OMEGAGRID">   140</i>
   <i name="CSHIFT">     -0.10000000</i>
   <i type="logical" name="SELFENERGY"> F  </i>
   <i type="logical" name="LSPECTRAL"> F  </i>
   <i type="logical" name="LSPECTRALGW"> F  </i>
   <i type="logical" name="LSINGLES"> F  </i>
   <i type="logical" name="LFERMIGW"> F  </i>
   <i type="logical" name="ODDONLYGW"> F  </i>
   <i type="logical" name="EVENONLYGW"> F  </i>
   <i type="int" name="NKREDLFX">     1</i>
   <i type="int" name="NKREDLFY">     1</i>
   <i type="int" name="NKREDLFZ">     1</i>
   <i type="int" name="MAXMEM">  2800</i>
   <i type="int" name="TELESCOPE">     0</i>
   <i type="int" name="TAUPAR">     1</i>
   <i type="int" name="OMEGAPAR">    -1</i>
   <i name="LAMBDA">      1.00000000</i>
  </separator>
  <separator name="External order field" >
   <i name="OFIELD_KAPPA">      0.00000000</i>
   <v name="OFIELD_K">      0.00000000      0.00000000      0.00000000</v>
   <i name="OFIELD_Q6_NEAR">      0.00000000</i>
   <i name="OFIELD_Q6_FAR">      0.00000000</i>
   <i name="OFIELD_A">      0.00000000</i>
  </separator>
 </parameters>
 <atominfo>
  <atoms>     288 </atoms>
  <types>       2 </types>
  <array name="atoms" >
   <dimension dim="1">ion</dimension>
   <field type="string">element</field>
   <field type="int">atomtype</field>
   <set>
    <rc><c>Fe</c><c>   1</c></rc>
    <rc><c>Fe</c><c>   1</c></rc>
    <rc><c>Fe</c><c>   1</c></rc>
    <rc><c>Fe</c><c>   1</c></rc>
    <rc><c>Fe</c><c>   1</c></rc>
    <rc><c>Fe</c><c>   1</c></rc>
    <rc><c>Fe</c><c>   1</c></rc>
    <rc><c>Fe</c><c>   1</c></rc>
    <rc><c>Fe</c><c>   1</c></rc>
    <rc><c>Fe</c><c>   1</c></rc>
    <rc><c>Fe</c><c>   1</c></rc>
    <rc><c>Fe</c><c>   1</c></rc>
    <rc><c>Fe</c><c>   1</c></rc>
    <rc><c>Fe</c><c>   1</c></rc>
    <rc><c>Fe</c><c>   1</c></rc>
    <rc><c>Fe</c><c>   1</c></rc>
    <rc><c>Fe</c><c>   1</c></rc>
    <rc><c>Fe</c><c>   1</c></rc>
    <rc><c>Fe</c><c>   1</c></rc>
    <rc><c>Fe</c><c>   1</c></rc>
    <rc><c>Fe</c><c>   1</c></rc>
    <rc><c>Fe</c><c>   1</c></rc>
    <rc><c>Fe</c><c>   1</c></rc>
    <rc><c>Fe</c><c>   1</c></rc>
    <rc><c>Fe</c><c>   1</c></rc>
    <rc><c>Fe</c><c>   1</c></rc>
    <rc><c>Fe</c><c>   1</c></rc>
    <rc><c>Fe</c><c>   1</c></rc>
    <rc><c>Fe</c><c>   1</c></rc>
    <rc><c>Fe</c><c>   1</c></rc>
    <rc><c>Fe</c><c>   1</c></rc>
    <rc><c>Fe</c><c>   1</c></rc>
    <rc><c>Fe</c><c>   1</c></rc>
    <rc><c>Fe</c><c>   1</c></rc>
    <rc><c>Fe</c><c>   1</c></rc>
    <rc><c>Fe</c><c>   1</c></rc>
    <rc><c>Fe</c><c>   1</c></rc>
    <rc><c>Fe</c><c>   1</c></rc>
    <rc><c>Fe</c><c>   1</c></rc>
    <rc><c>Fe</c><c>   1</c></rc>
    <rc><c>Fe</c><c>   1</c></rc>
    <rc><c>Fe</c><c>   1</c></rc>
    <rc><c>Fe</c><c>   1</c></rc>
    <rc><c>Fe</c><c>   1</c></rc>
    <rc><c>Fe</c><c>   1</c></rc>
    <rc><c>Fe</c><c>   1</c></rc>
    <rc><c>Fe</c><c>   1</c></rc>
    <rc><c>Fe</c><c>   1</c></rc>
    <rc><c>Fe</c><c>   1</c></rc>
    <rc><c>Fe</c><c>   1</c></rc>
    <rc><c>Fe</c><c>   1</c></rc>
    <rc><c>Fe</c><c>   1</c></rc>
    <rc><c>Fe</c><c>   1</c></rc>
    <rc><c>Fe</c><c>   1</c></rc>
    <rc><c>Fe</c><c>   1</c></rc>
    <rc><c>Fe</c><c>   1</c></rc>
    <rc><c>Fe</c><c>   1</c></rc>
    <rc><c>Fe</c><c>   1</c></rc>
    <rc><c>Fe</c><c>   1</c></rc>
    <rc><c>Fe</c><c>   1</c></rc>
    <rc><c>Fe</c><c>   1</c></rc>
    <rc><c>Fe</c><c>   1</c></rc>
    <rc><c>Fe</c><c>   1</c></rc>
    <rc><c>Fe</c><c>   1</c></rc>
    <rc><c>Fe</c><c>   1</c></rc>
    <rc><c>Fe</c><c>   1</c></rc>
    <rc><c>Fe</c><c>   1</c></rc>
    <rc><c>Fe</c><c>   1</c></rc>
    <rc><c>Fe</c><c>   1</c></rc>
    <rc><c>Fe</c><c>   1</c></rc>
    <rc><c>Fe</c><c>   1</c></rc>
    <rc><c>Fe</c><c>   1</c></rc>
    <rc><c>Fe</c><c>   1</c></rc>
    <rc><c>Fe</c><c>   1</c></rc>
    <rc><c>Fe</c><c>   1</c></rc>
    <rc><c>Fe</c><c>   1</c></rc>
    <rc><c>Fe</c><c>   1</c></rc>
    <rc><c>Fe</c><c>   1</c></rc>
    <rc><c>Fe</c><c>   1</c></rc>
    <rc><c>Fe</c><c>   1</c></rc>
    <rc><c>Fe</c><c>   1</c></rc>
    <rc><c>Fe</c><c>   1</c></rc>
    <rc><c>Fe</c><c>   1</c></rc>
    <rc><c>Fe</c><c>   1</c></rc>
    <rc><c>Fe</c><c>   1</c></rc>
    <rc><c>Fe</c><c>   1</c></rc>
    <rc><c>Fe</c><c>   1</c></rc>
    <rc><c>Fe</c><c>   1</c></rc>
    <rc><c>Fe</c><c>   1</c></rc>
    <rc><c>Fe</c><c>   1</c></rc>
    <rc><c>Fe</c><c>   1</c></rc>
    <rc><c>Fe</c><c>   1</c></rc>
    <rc><c>Fe</c><c>   1</c></rc>
    <rc><c>Fe</c><c>   1</c></rc>
    <rc><c>Fe</c><c>   1</c></rc>
    <rc><c>Fe</c><c>   1</c></rc>
    <rc><c>Fe</c><c>   1</c></rc>
    <rc><c>Fe</c><c>   1</c></rc>
    <rc><c>Fe</c><c>   1</c></rc>
    <rc><c>Fe</c><c>   1</c></rc>
    <rc><c>Fe</c><c>   1</c></rc>
    <rc><c>Fe</c><c>   1</c></rc>
    <rc><c>Fe</c><c>   1</c></rc>
    <rc><c>Fe</c><c>   1</c></rc>
    <rc><c>Fe</c><c>   1</c></rc>
    <rc><c>Fe</c><c>   1</c></rc>
    <rc><c>Fe</c><c>   1</c></rc>
    <rc><c>Fe</c><c>   1</c></rc>
    <rc><c>Fe</c><c>   1</c></rc>
    <rc><c>Fe</c><c>   1</c></rc>
    <rc><c>Fe</c><c>   1</c></rc>
    <rc><c>Fe</c><c>   1</c></rc>
    <rc><c>Fe</c><c>   1</c></rc>
    <rc><c>Fe</c><c>   1</c></rc>
    <rc><c>Fe</c><c>   1</c></rc>
    <rc><c>Fe</c><c>   1</c></rc>
    <rc><c>Fe</c><c>   1</c></rc>
    <rc><c>Fe</c><c>   1</c></rc>
    <rc><c>Fe</c><c>   1</c></rc>
    <rc><c>Fe</c><c>   1</c></rc>
    <rc><c>Fe</c><c>   1</c></rc>
    <rc><c>Fe</c><c>   1</c></rc>
    <rc><c>Fe</c><c>   1</c></rc>
    <rc><c>Fe</c><c>   1</c></rc>
    <rc><c>Fe</c><c>   1</c></rc>
    <rc><c>Fe</c><c>   1</c></rc>
    <rc><c>Fe</c><c>   1</c></rc>
    <rc><c>Fe</c><c>   1</c></rc>
    <rc><c>Fe</c><c>   1</c></rc>
    <rc><c>Fe</c><c>   1</c></rc>
    <rc><c>Fe</c><c>   1</c></rc>
    <rc><c>Fe</c><c>   1</c></rc>
    <rc><c>Fe</c><c>   1</c></rc>
    <rc><c>Fe</c><c>   1</c></rc>
    <rc><c>Fe</c><c>   1</c></rc>
    <rc><c>Fe</c><c>   1</c></rc>
    <rc><c>Fe</c><c>   1</c></rc>
    <rc><c>Fe</c><c>   1</c></rc>
    <rc><c>Fe</c><c>   1</c></rc>
    <rc><c>Fe</c><c>   1</c></rc>
    <rc><c>Fe</c><c>   1</c></rc>
    <rc><c>Fe</c><c>   1</c></rc>
    <rc><c>Fe</c><c>   1</c></rc>
    <rc><c>Fe</c><c>   1</c></rc>
    <rc><c>Fe</c><c>   1</c></rc>
    <rc><c>Fe</c><c>   1</c></rc>
    <rc><c>Fe</c><c>   1</c></rc>
    <rc><c>Fe</c><c>   1</c></rc>
    <rc><c>Fe</c><c>   1</c></rc>
    <rc><c>Fe</c><c>   1</c></rc>
    <rc><c>Fe</c><c>   1</c></rc>
    <rc><c>Fe</c><c>   1</c></rc>
    <rc><c>Fe</c><c>   1</c></rc>
    <rc><c>Fe</c><c>   1</c></rc>
    <rc><c>Fe</c><c>   1</c></rc>
    <rc><c>Fe</c><c>   1</c></rc>
    <rc><c>Fe</c><c>   1</c></rc>
    <rc><c>Fe</c><c>   1</c></rc>
    <rc><c>Fe</c><c>   1</c></rc>
    <rc><c>Fe</c><c>   1</c></rc>
    <rc><c>Fe</c><c>   1</c></rc>
    <rc><c>Fe</c><c>   1</c></rc>
    <rc><c>Fe</c><c>   1</c></rc>
    <rc><c>Fe</c><c>   1</c></rc>
    <rc><c>Fe</c><c>   1</c></rc>
    <rc><c>Fe</c><c>   1</c></rc>
    <rc><c>Fe</c><c>   1</c></rc>
    <rc><c>Fe</c><c>   1</c></rc>
    <rc><c>Fe</c><c>   1</c></rc>
    <rc><c>Fe</c><c>   1</c></rc>
    <rc><c>Fe</c><c>   1</c></rc>
    <rc><c>Fe</c><c>   1</c></rc>
    <rc><c>Fe</c><c>   1</c></rc>
    <rc><c>Fe</c><c>   1</c></rc>
    <rc><c>Fe</c><c>   1</c></rc>
    <rc><c>Fe</c><c>   1</c></rc>
    <rc><c>Fe</c><c>   1</c></rc>
    <rc><c>Fe</c><c>   1</c></rc>
    <rc><c>Fe</c><c>   1</c></rc>
    <rc><c>Fe</c><c>   1</c></rc>
    <rc><c>Fe</c><c>   1</c></rc>
    <rc><c>Fe</c><c>   1</c></rc>
    <rc><c>Fe</c><c>   1</c></rc>
    <rc><c>Fe</c><c>   1</c></rc>
    <rc><c>Fe</c><c>   1</c></rc>
    <rc><c>Fe</c><c>   1</c></rc>
    <rc><c>Fe</c><c>   1</c></rc>
    <rc><c>Fe</c><c>   1</c></rc>
    <rc><c>Fe</c><c>   1</c></rc>
    <rc><c>Fe</c><c>   1</c></rc>
    <rc><c>Fe</c><c>   1</c></rc>
    <rc><c>Fe</c><c>   1</c></rc>
    <rc><c>Fe</c><c>   1</c></rc>
    <rc><c>Fe</c><c>   1</c></rc>
    <rc><c>Fe</c><c>   1</c></rc>
    <rc><c>Fe</c><c>   1</c></rc>
    <rc><c>Fe</c><c>   1</c></rc>
    <rc><c>Fe</c><c>   1</c></rc>
    <rc><c>Fe</c><c>   1</c></rc>
    <rc><c>Fe</c><c>   1</c></rc>
    <rc><c>Fe</c><c>   1</c></rc>
    <rc><c>Fe</c><c>   1</c></rc>
    <rc><c>Fe</c><c>   1</c></rc>
    <rc><c>Fe</c><c>   1</c></rc>
    <rc><c>Fe</c><c>   1</c></rc>
    <rc><c>Fe</c><c>   1</c></rc>
    <rc><c>Fe</c><c>   1</c></rc>
    <rc><c>Fe</c><c>   1</c></rc>
    <rc><c>Fe</c><c>   1</c></rc>
    <rc><c>Fe</c><c>   1</c></rc>
    <rc><c>Fe</c><c>   1</c></rc>
    <rc><c>Fe</c><c>   1</c></rc>
    <rc><c>Fe</c><c>   1</c></rc>
    <rc><c>Fe</c><c>   1</c></rc>
    <rc><c>Fe</c><c>   1</c></rc>
    <rc><c>Fe</c><c>   1</c></rc>
    <rc><c>Fe</c><c>   1</c></rc>
    <rc><c>Fe</c><c>   1</c></rc>
    <rc><c>Fe</c><c>   1</c></rc>
    <rc><c>Fe</c><c>   1</c></rc>
    <rc><c>Fe</c><c>   1</c></rc>
    <rc><c>Fe</c><c>   1</c></rc>
    <rc><c>Fe</c><c>   1</c></rc>
    <rc><c>Fe</c><c>   1</c></rc>
    <rc><c>Fe</c><c>   1</c></rc>
    <rc><c>Fe</c><c>   1</c></rc>
    <rc><c>Fe</c><c>   1</c></rc>
    <rc><c>Fe</c><c>   1</c></rc>
    <rc><c>Fe</c><c>   1</c></rc>
    <rc><c>Fe</c><c>   1</c></rc>
    <rc><c>Fe</c><c>   1</c></rc>
    <rc><c>Fe</c><c>   1</c></rc>
    <rc><c>Fe</c><c>   1</c></rc>
    <rc><c>Fe</c><c>   1</c></rc>
    <rc><c>Fe</c><c>   1</c></rc>
    <rc><c>Fe</c><c>   1</c></rc>
    <rc><c>Fe</c><c>   1</c></rc>
    <rc><c>Fe</c><c>   1</c></rc>
    <rc><c>Fe</c><c>   1</c></rc>
    <rc><c>Fe</c><c>   1</c></rc>
    <rc><c>Fe</c><c>   1</c></rc>
    <rc><c>Fe</c><c>   1</c></rc>
    <rc><c>Fe</c><c>   1</c></rc>
    <rc><c>Fe</c><c>   1</c></rc>
    <rc><c>Fe</c><c>   1</c></rc>
    <rc><c>Fe</c><c>   1</c></rc>
    <rc><c>Fe</c><c>   1</c></rc>
    <rc><c>Fe</c><c>   1</c></rc>
    <rc><c>Fe</c><c>   1</c></rc>
    <rc><c>Fe</c><c>   1</c></rc>
    <rc><c>Fe</c><c>   1</c></rc>
    <rc><c>Fe</c><c>   1</c></rc>
    <rc><c>Fe</c><c>   1</c></rc>
    <rc><c>Fe</c><c>   1</c></rc>
    <rc><c>Fe</c><c>   1</c></rc>
    <rc><c>Fe</c><c>   1</c></rc>
    <rc><c>Fe</c><c>   1</c></rc>
    <rc><c>Fe</c><c>   1</c></rc>
    <rc><c>Fe</c><c>   1</c></rc>
    <rc><c>Fe</c><c>   1</c></rc>
    <rc><c>Fe</c><c>   1</c></rc>
    <rc><c>Fe</c><c>   1</c></rc>
    <rc><c>Fe</c><c>   1</c></rc>
    <rc><c>Fe</c><c>   1</c></rc>
    <rc><c>Fe</c><c>   1</c></rc>
    <rc><c>Fe</c><c>   1</c></rc>
    <rc><c>Fe</c><c>   1</c></rc>
    <rc><c>Fe</c><c>   1</c></rc>
    <rc><c>Fe</c><c>   1</c></rc>
    <rc><c>Fe</c><c>   1</c></rc>
    <rc><c>Fe</c><c>   1</c></rc>
    <rc><c>Fe</c><c>   1</c></rc>
    <rc><c>Fe</c><c>   1</c></rc>
    <rc><c>Fe</c><c>   1</c></rc>
    <rc><c>Mn</c><c>   2</c></rc>
    <rc><c>Mn</c><c>   2</c></rc>
    <rc><c>Mn</c><c>   2</c></rc>
    <rc><c>Mn</c><c>   2</c></rc>
    <rc><c>Mn</c><c>   2</c></rc>
    <rc><c>Mn</c><c>   2</c></rc>
    <rc><c>Mn</c><c>   2</c></rc>
    <rc><c>Mn</c><c>   2</c></rc>
    <rc><c>Mn</c><c>   2</c></rc>
    <rc><c>Mn</c><c>   2</c></rc>
    <rc><c>Mn</c><c>   2</c></rc>
    <rc><c>Mn</c><c>   2</c></rc>
    <rc><c>Mn</c><c>   2</c></rc>
    <rc><c>Mn</c><c>   2</c></rc>
   </set>
  </array>
  <array name="atomtypes" >
   <dimension dim="1">type</dimension>
   <field type="int">atomspertype</field>
   <field type="string">element</field>
   <field>mass</field>
   <field>valence</field>
   <field type="string">pseudopotential</field>
   <set>
    <rc><c> 274</c><c>Fe</c><c>     55.84700000</c><c>      8.00000000</c><c>  PAW_PBE Fe_GW 31Mar2010               </c></rc>
    <rc><c>  14</c><c>Mn</c><c>     54.93800000</c><c>      7.00000000</c><c>  PAW_PBE Mn_GW 31Mar2010               </c></rc>
   </set>
  </array>
 </atominfo>
 <structure name="initialpos" >
  <crystal>
   <varray name="basis" >
    <v>       9.72667804       0.00000000       0.00000000 </v>
    <v>       0.00000000       8.42355028       0.00000000 </v>
    <v>       0.00000000       0.00000000      45.00000000 </v>
   </varray>
   <i name="volume">   3686.99226691 </i>
   <varray name="rec_basis" >
    <v>       0.10281002       0.00000000       0.00000000 </v>
    <v>       0.00000000       0.11871479       0.00000000 </v>
    <v>       0.00000000       0.00000000       0.02222222 </v>
   </varray>
  </crystal>
  <varray name="positions" >
   <v>       0.06259433       0.03010988       0.12424357 </v>
   <v>       0.31623472       0.87482669       0.65504632 </v>
   <v>       0.18370792       0.12327561       0.78859277 </v>
   <v>       0.44127087       0.28783308       0.38914014 </v>
   <v>       0.31814614       0.71390306       0.83321945 </v>
   <v>       0.81830191       0.21525034       0.83364817 </v>
   <v>       0.19161488       0.96352911       0.83358452 </v>
   <v>       0.56209330       0.20709191       0.56553270 </v>
   <v>       0.06568385       0.04047531       0.74415508 </v>
   <v>       0.81170473       0.87138685       0.52143448 </v>
   <v>       0.19066546       0.29107907       0.74436483 </v>
   <v>       0.93365928       0.45232225       0.34492178 </v>
   <v>       0.94119336       0.28656486       0.38900096 </v>
   <v>       0.81287377       0.04077333       0.87578760 </v>
   <v>       0.18371241       0.78821685       0.61091536 </v>
   <v>       0.56638737       0.03786255       0.38905284 </v>
   <v>       0.94259687       0.96501886       0.83392833 </v>
   <v>       0.31318584       0.54078165       0.87607171 </v>
   <v>       0.69016899       0.29137877       0.74424602 </v>
   <v>       0.18233979       0.61357249       0.16672879 </v>
   <v>       0.81223048       0.20574535       0.47867353 </v>
   <v>       0.80900396       0.53842547       0.61105332 </v>
   <v>       0.31196276       0.87033224       0.43450673 </v>
   <v>       0.80901496       0.03812391       0.25586287 </v>
   <v>       0.68269710       0.95182311       0.34469473 </v>
   <v>       0.93126894       0.11440465       0.16685478 </v>
   <v>       0.06189585       0.87172506       0.52141457 </v>
   <v>       0.55819041       0.53782090       0.25562169 </v>
   <v>       0.68445162       0.79779176       0.87597406 </v>
   <v>       0.55638676       0.36453700       0.16662407 </v>
   <v>       0.43961057       0.79205661       0.74446002 </v>
   <v>       0.81130737       0.70664362       0.56546734 </v>
   <v>       0.55917805       0.87362725       0.78863534 </v>
   <v>       0.68674706       0.12177242       0.52142431 </v>
   <v>       0.81625932       0.37472166       0.65500021 </v>
   <v>       0.94240470       0.46452802       0.83376437 </v>
   <v>       0.06061733       0.20781983       0.69970918 </v>
   <v>       0.43550735       0.95763455       0.69975767 </v>
   <v>       0.31692124       0.21281877       0.83345930 </v>
   <v>       0.44128958       0.62484586       0.65503194 </v>
   <v>       0.30898497       0.53822765       0.61099295 </v>
   <v>       0.93646819       0.45640546       0.56559048 </v>
   <v>       0.69003735       0.79157540       0.74428986 </v>
   <v>       0.93497020       0.78807483       0.12446273 </v>
   <v>       0.69148453       0.78775771       0.38905352 </v>
   <v>       0.94036648       0.79085918       0.74448209 </v>
   <v>       0.05857429       0.20257897       0.34488829 </v>
   <v>       0.68358449       0.45253394       0.34492941 </v>
   <v>       0.43374307       0.12291172       0.78896256 </v>
   <v>       0.06597876       0.20319051       0.21099802 </v>
   <v>       0.05541144       0.36524532       0.16670729 </v>
   <v>       0.93368077       0.78740712       0.25564138 </v>
   <v>       0.56045233       0.20715837       0.69981412 </v>
   <v>       0.68514410       0.95715742       0.69979625 </v>
   <v>       0.80894118       0.87382104       0.78839973 </v>
   <v>       0.43686148       0.95718892       0.56541914 </v>
   <v>       0.80880363       0.37501834       0.78854427 </v>
   <v>       0.68421503       0.28841284       0.25589042 </v>
   <v>       0.18740017       0.45713996       0.56553912 </v>
   <v>       0.05678495       0.86516836       0.16673071 </v>
   <v>       0.18416134       0.28850617       0.61105272 </v>
   <v>       0.06213171       0.20706232       0.56538570 </v>
   <v>       0.31074772       0.20726436       0.69984085 </v>
   <v>       0.56235453       0.54089361       0.87600415 </v>
   <v>       0.06197036       0.70627825       0.56556163 </v>
   <v>       0.68301246       0.62240772       0.78862441 </v>
   <v>       0.31585986       0.53828124       0.38890642 </v>
   <v>       0.18697690       0.62144523       0.52144603 </v>
   <v>       0.56246453       0.87047932       0.43441397 </v>
   <v>       0.43673091       0.45685689       0.56554802 </v>
   <v>       0.43976074       0.29167486       0.74424706 </v>
   <v>       0.82039925       0.87334331       0.30027528 </v>
   <v>       0.80853347       0.70252563       0.34493223 </v>
   <v>       0.44239745       0.46282084       0.83337205 </v>
   <v>       0.68751860       0.95571879       0.47872069 </v>
   <v>       0.68485964       0.45768369       0.69974450 </v>
   <v>       0.56202218       0.87222513       0.52145783 </v>
   <v>       0.56610052       0.37454991       0.65495185 </v>
   <v>       0.81608956       0.87481286       0.65505130 </v>
   <v>       0.81176716       0.37141488       0.43420425 </v>
   <v>       0.80868000       0.53711883       0.25583182 </v>
   <v>       0.69222186       0.46225373       0.83332990 </v>
   <v>       0.18604675       0.78736929       0.12410004 </v>
   <v>       0.69125271       0.28736225       0.38902221 </v>
   <v>       0.31609657       0.37423711       0.65498624 </v>
   <v>       0.30869768       0.20269415       0.34469107 </v>
   <v>       0.81577044       0.54030543       0.74420574 </v>
   <v>       0.69162152       0.96238696       0.83347529 </v>
   <v>       0.56609512       0.87451540       0.65497977 </v>
   <v>       0.31137021       0.70701240       0.56553697 </v>
   <v>       0.31161198       0.53012224       0.12415070 </v>
   <v>       0.69086876       0.95517493       0.21178027 </v>
   <v>       0.31144840       0.20666576       0.56552621 </v>
   <v>       0.18741631       0.95573167       0.47868756 </v>
   <v>       0.68734375       0.95686687       0.56553373 </v>
   <v>       0.43389825       0.78831541       0.61100244 </v>
   <v>       0.68235689       0.61159224       0.16628073 </v>
   <v>       0.31907671       0.87297610       0.29996598 </v>
   <v>       0.31229083       0.70578404       0.47863376 </v>
   <v>       0.93368220       0.28787882       0.61089064 </v>
   <v>       0.44583868       0.62292827       0.30010419 </v>
   <v>       0.80732177       0.86317258       0.16683963 </v>
   <v>       0.56677575       0.20277437       0.21141980 </v>
   <v>       0.93290009       0.61281803       0.16668349 </v>
   <v>       0.43731624       0.95574386       0.47866794 </v>
   <v>       0.55877337       0.37343308       0.78876536 </v>
   <v>       0.06155444       0.37233250       0.52142410 </v>
   <v>       0.30695673       0.36366541       0.16667046 </v>
   <v>       0.31657050       0.70314683       0.21151404 </v>
   <v>       0.44289140       0.96329574       0.83335276 </v>
   <v>       0.18506301       0.28688388       0.12422880 </v>
   <v>       0.18396213       0.28803202       0.25585201 </v>
   <v>       0.31261891       0.37042943       0.43444268 </v>
   <v>       0.56289658       0.03190422       0.12431230 </v>
   <v>       0.43398439       0.28833684       0.61098658 </v>
   <v>       0.18363310       0.45253636       0.34490566 </v>
   <v>       0.43420233       0.28636646       0.12425622 </v>
   <v>       0.68317013       0.78844477       0.25578605 </v>
   <v>       0.43685569       0.12172849       0.52148490 </v>
   <v>       0.18853055       0.29683811       0.87619205 </v>
   <v>       0.19131298       0.12490099       0.65516169 </v>
   <v>       0.94121391       0.12483832       0.65496360 </v>
   <v>       0.81638254       0.53770889       0.38906269 </v>
   <v>       0.06642564       0.03814966       0.38914902 </v>
   <v>       0.18318111       0.11248737       0.16646138 </v>
   <v>       0.05867190       0.53814727       0.61098550 </v>
   <v>       0.93364679       0.28813651       0.25576639 </v>
   <v>       0.55897278       0.53839615       0.61098208 </v>
   <v>       0.93688151       0.95728398       0.56553215 </v>
   <v>       0.69413581       0.62351908       0.30001703 </v>
   <v>       0.93744545       0.62035707       0.43448262 </v>
   <v>       0.93318729       0.62437627       0.78837346 </v>
   <v>       0.56052524       0.70712141       0.69976356 </v>
   <v>       0.06608307       0.71682897       0.83395503 </v>
   <v>       0.94493835       0.12268615       0.30004956 </v>
   <v>       0.93367913       0.78767071       0.61092113 </v>
   <v>       0.43333835       0.78786970       0.25547942 </v>
   <v>       0.30882975       0.37394847       0.78878850 </v>
   <v>       0.44060311       0.45348442       0.21111133 </v>
   <v>       0.18691071       0.12200262       0.52138995 </v>
   <v>       0.81012412       0.70738592       0.69972543 </v>
   <v>       0.05876446       0.03806867       0.61088677 </v>
   <v>       0.56610373       0.21354598       0.83324583 </v>
   <v>       0.31172358       0.87194639       0.52144566 </v>
   <v>       0.68639988       0.28643565       0.12396038 </v>
   <v>       0.19118510       0.95542425       0.21166217 </v>
   <v>       0.68388503       0.28847638       0.61102652 </v>
   <v>       0.30911867       0.03842911       0.61107003 </v>
   <v>       0.93407106       0.12461247       0.78864391 </v>
   <v>       0.43659028       0.79783546       0.87621416 </v>
   <v>       0.81552074       0.04062232       0.74419196 </v>
   <v>       0.93524874       0.45800300       0.69964972 </v>
   <v>       0.19118437       0.62515128       0.65505809 </v>
   <v>       0.31027411       0.70703809       0.69975293 </v>
   <v>       0.93456557       0.28677333       0.12416107 </v>
   <v>       0.43747273       0.45593321       0.47856699 </v>
   <v>       0.06231239       0.70577628       0.47859505 </v>
   <v>       0.93694738       0.11982077       0.43460705 </v>
   <v>       0.44375157       0.12356225       0.30022440 </v>
   <v>       0.18690349       0.11996866       0.43429497 </v>
   <v>       0.56279902       0.04064242       0.87605975 </v>
   <v>       0.18686224       0.95704840       0.56554849 </v>
   <v>       0.68459992       0.78783318       0.12449251 </v>
   <v>       0.55892344       0.70219172       0.34491041 </v>
   <v>       0.31654056       0.03693938       0.38879430 </v>
   <v>       0.68248685       0.11363439       0.16672437 </v>
   <v>       0.81587800       0.20248481       0.21119712 </v>
   <v>       0.05899368       0.53704155       0.25551348 </v>
   <v>       0.56251234       0.70559954       0.47867764 </v>
   <v>       0.43531316       0.78697511       0.12425161 </v>
   <v>       0.56968124       0.37217003       0.30012679 </v>
   <v>       0.43354094       0.95268201       0.34493624 </v>
   <v>       0.18523363       0.95737648       0.69978993 </v>
   <v>       0.43164606       0.61275267       0.16626354 </v>
   <v>       0.94027230       0.45452206       0.21174720 </v>
   <v>       0.06244541       0.53043767       0.12414209 </v>
   <v>       0.81201520       0.37209207       0.52136337 </v>
   <v>       0.94450850       0.62347849       0.29988072 </v>
   <v>       0.30895716       0.03746921       0.25579635 </v>
   <v>       0.68390866       0.78802129       0.61094890 </v>
   <v>       0.19173921       0.46334136       0.83351881 </v>
   <v>       0.43321914       0.11214490       0.16654189 </v>
   <v>       0.31181587       0.37192773       0.52138405 </v>
   <v>       0.43305789       0.62297152       0.78892940 </v>
   <v>       0.05897361       0.03713334       0.25577730 </v>
   <v>       0.56226272       0.70691711       0.56554550 </v>
   <v>       0.93996530       0.29093206       0.74448448 </v>
   <v>       0.68232939       0.12277442       0.78859448 </v>
   <v>       0.18979429       0.45405117       0.21132245 </v>
   <v>       0.94128711       0.78784279       0.38885059 </v>
   <v>       0.68545172       0.29911008       0.87604474 </v>
   <v>       0.55686220       0.86221192       0.16647813 </v>
   <v>       0.43560936       0.45748706       0.69975031 </v>
   <v>       0.93406952       0.95186477       0.34475169 </v>
   <v>       0.68666838       0.62147800       0.52134863 </v>
   <v>       0.06641467       0.87476841       0.65493342 </v>
   <v>       0.05907486       0.87423273       0.78845413 </v>
   <v>       0.06622297       0.37474752       0.65492170 </v>
   <v>       0.68723844       0.45578132       0.47863664 </v>
   <v>       0.18427397       0.78750891       0.25547594 </v>
   <v>       0.43699831       0.12066305       0.43440460 </v>
   <v>       0.81367299       0.03119093       0.12410427 </v>
   <v>       0.93687191       0.62193859       0.52143753 </v>
   <v>       0.44119853       0.12454125       0.65494004 </v>
   <v>       0.81329488       0.52988739       0.12409586 </v>
   <v>       0.43367652       0.45264148       0.34503200 </v>
   <v>       0.80879782       0.20249342       0.34489711 </v>
   <v>       0.30885110       0.70117561       0.34482760 </v>
   <v>       0.69117808       0.12490663       0.65501443 </v>
   <v>       0.56955614       0.87422136       0.30016149 </v>
   <v>       0.06548247       0.54097480       0.74433857 </v>
   <v>       0.94097306       0.95385994       0.21127010 </v>
   <v>       0.81726109       0.70315355       0.21132093 </v>
   <v>       0.06975583       0.87244873       0.29998694 </v>
   <v>       0.19526019       0.12377927       0.30007502 </v>
   <v>       0.05854081       0.70232119       0.34491042 </v>
   <v>       0.80901503       0.03835675       0.61101474 </v>
   <v>       0.06299788       0.37163721       0.43424824 </v>
   <v>       0.55838271       0.20233811       0.34476436 </v>
   <v>       0.81940378       0.37275466       0.29999479 </v>
   <v>       0.55898923       0.03730503       0.25544192 </v>
   <v>       0.56640768       0.53772344       0.38907973 </v>
   <v>       0.06255039       0.20592106       0.47867137 </v>
   <v>       0.31005612       0.87324262       0.78844763 </v>
   <v>       0.93527188       0.95812556       0.69966868 </v>
   <v>       0.06899917       0.37452881       0.29998870 </v>
   <v>       0.69100670       0.62502120       0.65521971 </v>
   <v>       0.68658797       0.45686101       0.56542790 </v>
   <v>       0.44144482       0.95519173       0.21186953 </v>
   <v>       0.31246159       0.20576643       0.47872145 </v>
   <v>       0.81204483       0.54035588       0.87587351 </v>
   <v>       0.68793292       0.62072211       0.43442066 </v>
   <v>       0.81082006       0.20739545       0.69985802 </v>
   <v>       0.81252242       0.70584343       0.47867613 </v>
   <v>       0.81174053       0.87114112       0.43427208 </v>
   <v>       0.93731010       0.95528287       0.47873926 </v>
   <v>       0.56220758       0.20572925       0.47869071 </v>
   <v>       0.18733610       0.62013493       0.43445934 </v>
   <v>       0.31510037       0.04187591       0.74410025 </v>
   <v>       0.94125635       0.62517695       0.65491743 </v>
   <v>       0.56640088       0.71368766       0.83334916 </v>
   <v>       0.31928375       0.37397367       0.30002570 </v>
   <v>       0.31522320       0.54135714       0.74426029 </v>
   <v>       0.18747773       0.45560647       0.47870860 </v>
   <v>       0.31429264       0.04103628       0.87589243 </v>
   <v>       0.18535781       0.45776783       0.69964068 </v>
   <v>       0.56189436       0.37203912       0.52139496 </v>
   <v>       0.19106653       0.28758843       0.38892898 </v>
   <v>       0.31586154       0.20334167       0.21124701 </v>
   <v>       0.06710067       0.70283655       0.21118677 </v>
   <v>       0.56203630       0.37111241       0.43434989 </v>
   <v>       0.43671621       0.62197520       0.52141509 </v>
   <v>       0.81718091       0.71548641       0.83334787 </v>
   <v>       0.05897720       0.37500824       0.78843371 </v>
   <v>       0.43652436       0.29839034       0.87637300 </v>
   <v>       0.31167385       0.03019154       0.12412678 </v>
   <v>       0.68765885       0.11990405       0.43439660 </v>
   <v>       0.18377319       0.95202988       0.34494156 </v>
   <v>       0.06670075       0.21541625       0.83405635 </v>
   <v>       0.55918824       0.03868213       0.61111782 </v>
   <v>       0.68918240       0.45432377       0.21163856 </v>
   <v>       0.18968676       0.79174354       0.74440718 </v>
   <v>       0.19440246       0.62278829       0.30005795 </v>
   <v>       0.44152411       0.78761760       0.38905976 </v>
   <v>       0.43298428       0.28782701       0.25567231 </v>
   <v>       0.06326727       0.54081533       0.87589478 </v>
   <v>       0.56562862       0.04121941       0.74423329 </v>
   <v>       0.18786609       0.79730686       0.87607473 </v>
   <v>       0.93735144       0.45570668       0.47866065 </v>
   <v>       0.56525672       0.54144866       0.74411694 </v>
   <v>       0.81121683       0.20704153       0.56548534 </v>
   <v>       0.18435907       0.62263425       0.78850852 </v>
   <v>       0.06711850       0.53850180       0.38909617 </v>
   <v>       0.06060433       0.70762367       0.69964431 </v>
   <v>       0.30852933       0.53710389       0.25571610 </v>
   <v>       0.69559994       0.12292990       0.30037979 </v>
   <v>       0.30548263       0.86465600       0.16601647 </v>
   <v>       0.43674942       0.62074871       0.43441271 </v>
   <v>       0.81788750       0.03921545       0.38916105 </v>
   <v>       0.93488396       0.29803988       0.87557763 </v>
   <v>       0.93706837       0.79548030       0.87558295 </v>
   <v>       0.06536789       0.03902682       0.87576819 </v>
   <v>       0.56232080       0.52924521       0.12449620 </v>
   <v>       0.80540372       0.36552543       0.16585502 </v>
   <v>       0.06205324       0.87131328       0.43446596 </v>
   <v>       0.93661673       0.12185239       0.52153897 </v>
   <v>       0.19317165       0.78772452       0.38875927 </v>
   <v>       0.56635940       0.70292931       0.21187580 </v>
  </varray>
 </structure>
 <calculation>
  <scstep>
   <time name="dav">   54.80   54.81</time>
   <time name="total">   54.95   55.00</time>
   <energy>
    <i name="alphaZ">  16293.21160653 </i>
    <i name="ewald"> 727348.42568425 </i>
    <i name="hartreedc">-917861.73137259 </i>
    <i name="XCdc">  -6512.59534776 </i>
    <i name="pawpsdc"> 162273.92519768 </i>
    <i name="pawaedc">-159623.75899949 </i>
    <i name="eentropy">     -1.07197314 </i>
    <i name="bandstr">  38488.06227362 </i>
    <i name="atom"> 168671.76673737 </i>
    <i name="e_fr_energy">  29076.23380646 </i>
    <i name="e_wo_entrp">  29077.30577960 </i>
    <i name="e_0_energy">  29076.76979303 </i>
   </energy>
  </scstep>
  <scstep>
   <time name="dav">   54.27   54.30</time>
   <time name="total">   54.28   54.31</time>
   <energy>
    <i name="e_fr_energy">   1188.16190380 </i>
    <i name="e_wo_entrp">   1189.65893076 </i>
    <i name="e_0_energy">   1188.91041728 </i>
   </energy>
  </scstep>
  <scstep>
   <time name="dav">   71.25   71.30</time>
   <time name="total">   71.26   71.30</time>
   <energy>
    <i name="e_fr_energy">  -1949.10539054 </i>
    <i name="e_wo_entrp">  -1945.55142149 </i>
    <i name="e_0_energy">  -1947.32840602 </i>
   </energy>
  </scstep>
  <scstep>
   <time name="dav">   89.27   89.32</time>
   <time name="total">   89.28   89.33</time>
   <energy>
    <i name="e_fr_energy">  -2619.05996378 </i>
    <i name="e_wo_entrp">  -2615.52914889 </i>
    <i name="e_0_energy">  -2617.29455633 </i>
   </energy>
  </scstep>
  <scstep>
   <time name="dav">   85.31   85.35</time>
   <time name="total">   87.42   87.47</time>
   <energy>
    <i name="e_fr_energy">  -2738.53238917 </i>
    <i name="e_wo_entrp">  -2734.87475571 </i>
    <i name="e_0_energy">  -2736.70357244 </i>
   </energy>
  </scstep>
  <scstep>
   <time name="diag">    8.24    8.24</time>
   <time name="diis">   37.11   37.11</time>
   <time name="orth">    2.29    2.29</time>
   <time name="total">   49.84   49.88</time>
   <energy>
    <i name="e_fr_energy">  -5660.22331884 </i>
    <i name="e_wo_entrp">  -5657.47738311 </i>
    <i name="e_0_energy">  -5658.85035098 </i>
   </energy>
  </scstep>
  <scstep>
   <time name="diag">    8.37    8.37</time>
   <time name="diis">   23.72   23.72</time>
   <time name="orth">    2.29    2.29</time>
   <time name="total">   36.48   36.52</time>
[...]
       <r>     5.8566     0.0000  2772.0000 </r>
       <r>     5.8993     0.0000  2772.0000 </r>
       <r>     5.9421     0.0000  2772.0000 </r>
       <r>     5.9849     0.0000  2772.0000 </r>
       <r>     6.0276     0.0000  2772.0000 </r>
       <r>     6.0704     0.0000  2772.0000 </r>
       <r>     6.1132     0.0000  2772.0000 </r>
       <r>     6.1559     0.0000  2772.0000 </r>
       <r>     6.1987     0.0000  2772.0000 </r>
       <r>     6.2415     0.0000  2772.0000 </r>
       <r>     6.2842     0.0000  2772.0000 </r>
       <r>     6.3270     0.0000  2772.0000 </r>
       <r>     6.3698     0.0000  2772.0000 </r>
       <r>     6.4125     0.0000  2772.0000 </r>
       <r>     6.4553     0.0000  2772.0000 </r>
       <r>     6.4980     0.0000  2772.0000 </r>
       <r>     6.5408     0.0000  2772.0000 </r>
       <r>     6.5836     0.0000  2772.0000 </r>
       <r>     6.6263     0.0000  2772.0000 </r>
       <r>     6.6691     0.0000  2772.0000 </r>
       <r>     6.7119     0.0000  2772.0000 </r>
       <r>     6.7546     0.0000  2772.0000 </r>
       <r>     6.7974     0.0000  2772.0000 </r>
      </set>
     </set>
    </array>
   </total>
  </dos>
 </calculation>
 <structure name="finalpos" >
  <crystal>
   <varray name="basis" >
    <v>       9.72667804       0.00000000       0.00000000 </v>
    <v>       0.00000000       8.42355028       0.00000000 </v>
    <v>       0.00000000       0.00000000      45.00000000 </v>
   </varray>
   <i name="volume">   3686.99226691 </i>
   <varray name="rec_basis" >
    <v>       0.10281002       0.00000000       0.00000000 </v>
    <v>       0.00000000       0.11871479       0.00000000 </v>
    <v>       0.00000000       0.00000000       0.02222222 </v>
   </varray>
  </crystal>
  <varray name="positions" >
   <v>       0.06182303       0.03148001       0.12432361 </v>
   <v>       0.31462815       0.87403817       0.65482580 </v>
   <v>       0.18548813       0.12398970       0.78841077 </v>
   <v>       0.44006717       0.28807425       0.38959100 </v>
   <v>       0.31618229       0.71302605       0.83334849 </v>
   <v>       0.81671061       0.21313253       0.83362449 </v>
   <v>       0.19024273       0.96254687       0.83364531 </v>
   <v>       0.56196437       0.20632263       0.56580544 </v>
   <v>       0.06481124       0.04075489       0.74402476 </v>
   <v>       0.81137891       0.87212834       0.52182487 </v>
   <v>       0.18955219       0.29174112       0.74409467 </v>
   <v>       0.93624578       0.45358788       0.34522484 </v>
   <v>       0.94077392       0.28737962       0.38923885 </v>
   <v>       0.81263973       0.04383873       0.87567540 </v>
   <v>       0.18568327       0.78895311       0.61035708 </v>
   <v>       0.56428336       0.03807059       0.38956284 </v>
   <v>       0.94151286       0.96341867       0.83377428 </v>
   <v>       0.31339896       0.54463078       0.87574233 </v>
   <v>       0.68883610       0.29173701       0.74413960 </v>
   <v>       0.18406371       0.61546263       0.16651507 </v>
   <v>       0.81200501       0.20541917       0.47875844 </v>
   <v>       0.80960568       0.53868650       0.61040144 </v>
   <v>       0.31335052       0.87150487       0.43451227 </v>
   <v>       0.81044418       0.03717164       0.25594748 </v>
   <v>       0.68478138       0.95272946       0.34513894 </v>
   <v>       0.93282586       0.11562589       0.16645770 </v>
   <v>       0.06210124       0.87199637       0.52168922 </v>
   <v>       0.55967345       0.53794302       0.25587972 </v>
   <v>       0.68557652       0.79566550       0.87575121 </v>
   <v>       0.55815031       0.36606896       0.16611671 </v>
   <v>       0.43848689       0.79146007       0.74422388 </v>
   <v>       0.81137339       0.70622657       0.56561877 </v>
   <v>       0.56017115       0.87374595       0.78847835 </v>
   <v>       0.68673922       0.12200215       0.52175898 </v>
   <v>       0.81461243       0.37429884       0.65484019 </v>
   <v>       0.94104154       0.46345624       0.83371680 </v>
   <v>       0.06150412       0.20774208       0.69951012 </v>
   <v>       0.43583880       0.95684616       0.69954606 </v>
   <v>       0.31530005       0.21203232       0.83365009 </v>
   <v>       0.43948245       0.62437852       0.65483505 </v>
   <v>       0.31064450       0.53873806       0.61039641 </v>
   <v>       0.93658632       0.45619368       0.56561580 </v>
   <v>       0.68889753       0.79099647       0.74420612 </v>
   <v>       0.93502105       0.78503091       0.12460524 </v>
   <v>       0.69004658       0.78776683       0.38938215 </v>
   <v>       0.93962941       0.79066682       0.74413255 </v>
   <v>       0.06142709       0.20403143       0.34528587 </v>
   <v>       0.68536262       0.45325526       0.34508467 </v>
   <v>       0.43493794       0.12363908       0.78857312 </v>
   <v>       0.06483803       0.20343906       0.21122789 </v>
   <v>       0.05675218       0.36616334       0.16629996 </v>
   <v>       0.93551251       0.78697217       0.25586643 </v>
   <v>       0.56083714       0.20755360       0.69955965 </v>
   <v>       0.68603700       0.95712319       0.69953185 </v>
   <v>       0.80998306       0.87422014       0.78839441 </v>
   <v>       0.43711151       0.95677665       0.56587478 </v>
   <v>       0.80993419       0.37492029       0.78839404 </v>
   <v>       0.68527101       0.28801340       0.25605226 </v>
   <v>       0.18679851       0.45635723       0.56572193 </v>
   <v>       0.05841115       0.86568309       0.16635644 </v>
   <v>       0.18599497       0.28881333       0.61050238 </v>
   <v>       0.06196823       0.20704710       0.56547240 </v>
   <v>       0.31150608       0.20757747       0.69960292 </v>
   <v>       0.56326739       0.54498884       0.87568129 </v>
   <v>       0.06173851       0.70593819       0.56558504 </v>
   <v>       0.68446828       0.62440215       0.78840318 </v>
   <v>       0.31486196       0.53724877       0.38926539 </v>
   <v>       0.18707598       0.62188864       0.52171642 </v>
   <v>       0.56208030       0.87190005       0.43434838 </v>
   <v>       0.43699339       0.45645696       0.56587006 </v>
   <v>       0.43880278       0.29231363       0.74407394 </v>
   <v>       0.81714587       0.87169139       0.30047278 </v>
   <v>       0.81069170       0.70279735       0.34515877 </v>
   <v>       0.44109435       0.46225273       0.83355617 </v>
   <v>       0.68759469       0.95542909       0.47866388 </v>
   <v>       0.68582535       0.45770606       0.69953649 </v>
   <v>       0.56236132       0.87245681       0.52176350 </v>
   <v>       0.56457313       0.37437804       0.65474017 </v>
   <v>       0.81462142       0.87425847       0.65484047 </v>
   <v>       0.81118411       0.37030980       0.43430198 </v>
   <v>       0.81033512       0.53766205       0.25606008 </v>
   <v>       0.69101330       0.46232960       0.83352241 </v>
   <v>       0.18577805       0.78443007       0.12425099 </v>
   <v>       0.68920885       0.28739263       0.38938589 </v>
   <v>       0.31452465       0.37437146       0.65478068 </v>
   <v>       0.31070454       0.20372412       0.34524366 </v>
   <v>       0.81436964       0.54125110       0.74401507 </v>
   <v>       0.69106046       0.96169629       0.83361601 </v>
   <v>       0.56460926       0.87416595       0.65470857 </v>
   <v>       0.31194938       0.70648053       0.56579179 </v>
   <v>       0.31082754       0.53241860       0.12421417 </v>
   <v>       0.68918792       0.95321138       0.21157552 </v>
   <v>       0.31190487       0.20634436       0.56580009 </v>
   <v>       0.18752197       0.95575170       0.47864794 </v>
   <v>       0.68683180       0.95656060       0.56577526 </v>
   <v>       0.43529217       0.78903913       0.61032540 </v>
   <v>       0.68281081       0.61324246       0.16620023 </v>
   <v>       0.31728945       0.87147372       0.30033717 </v>
   <v>       0.31198164       0.70506283       0.47849902 </v>
   <v>       0.93496941       0.28862201       0.61034041 </v>
   <v>       0.44200280       0.62247215       0.30039303 </v>
   <v>       0.80802066       0.86438526       0.16647676 </v>
   <v>       0.56487758       0.20239417       0.21158624 </v>
   <v>       0.93380088       0.61400858       0.16647511 </v>
   <v>       0.43736435       0.95536823       0.47849450 </v>
   <v>       0.56007903       0.37420530       0.78842108 </v>
   <v>       0.06174562       0.37285194       0.52169107 </v>
   <v>       0.30772460       0.36513012       0.16622594 </v>
   <v>       0.31507671       0.70246243       0.21144759 </v>
   <v>       0.44139678       0.96129903       0.83354985 </v>
   <v>       0.18472075       0.28501538       0.12444657 </v>
   <v>       0.18615846       0.28776072       0.25601854 </v>
   <v>       0.31318442       0.37051663       0.43428839 </v>
   <v>       0.56183491       0.03266397       0.12439081 </v>
   <v>       0.43530326       0.28867892       0.61029749 </v>
   <v>       0.18601954       0.45349363       0.34522882 </v>
   <v>       0.43425881       0.28470398       0.12445133 </v>
   <v>       0.68486677       0.78735006       0.25599531 </v>
   <v>       0.43690230       0.12246187       0.52173877 </v>
   <v>       0.18868891       0.29433731       0.87599473 </v>
   <v>       0.18968099       0.12432947       0.65487278 </v>
   <v>       0.93969030       0.12430903       0.65479282 </v>
   <v>       0.81549724       0.53750844       0.38918814 </v>
   <v>       0.06586981       0.03876800       0.38935416 </v>
   <v>       0.18372111       0.11376481       0.16632163 </v>
   <v>       0.06038954       0.53853938       0.61037787 </v>
   <v>       0.93545052       0.28777947       0.25586891 </v>
   <v>       0.55987517       0.53889016       0.61031929 </v>
   <v>       0.93656154       0.95632593       0.56551907 </v>
   <v>       0.69141159       0.62286598       0.30038223 </v>
   <v>       0.93810845       0.62116474       0.43442041 </v>
   <v>       0.93481356       0.62560838       0.78829259 </v>
   <v>       0.56065441       0.70680620       0.69957104 </v>
   <v>       0.06533244       0.71491446       0.83373810 </v>
   <v>       0.94308573       0.12232697       0.30041820 </v>
   <v>       0.93483429       0.78855205       0.61045114 </v>
   <v>       0.43543090       0.78687077       0.25592680 </v>
   <v>       0.31040110       0.37437490       0.78838615 </v>
   <v>       0.43900454       0.45451679       0.21146040 </v>
   <v>       0.18694215       0.12243121       0.52166566 </v>
   <v>       0.81145959       0.70730781       0.69952649 </v>
   <v>       0.06044208       0.03907074       0.61038003 </v>
   <v>       0.56534617       0.21222774       0.83336168 </v>
   <v>       0.31174176       0.87209362       0.52173216 </v>
   <v>       0.68619458       0.28507024       0.12411476 </v>
   <v>       0.19024954       0.95398897       0.21160411 </v>
   <v>       0.68438671       0.28896953       0.61042994 </v>
   <v>       0.31067187       0.03894422       0.61036204 </v>
   <v>       0.93528390       0.12499046       0.78851871 </v>
   <v>       0.43723949       0.79528235       0.87593229 </v>
   <v>       0.81446889       0.04104448       0.74405638 </v>
   <v>       0.93655744       0.45804617       0.69950004 </v>
   <v>       0.18972343       0.62443366       0.65496855 </v>
   <v>       0.31105231       0.70689964       0.69963383 </v>
   <v>       0.93452288       0.28477986       0.12424752 </v>
   <v>       0.43699336       0.45493893       0.47842703 </v>
   <v>       0.06283114       0.70457111       0.47868082 </v>
   <v>       0.93735015       0.12044056       0.43474195 </v>
   <v>       0.44159301       0.12215750       0.30048670 </v>
   <v>       0.18805100       0.12096258       0.43421644 </v>
   <v>       0.56358533       0.04309023       0.87583010 </v>
   <v>       0.18697986       0.95675203       0.56573592 </v>
   <v>       0.68494337       0.78478027       0.12456185 </v>
   <v>       0.56033127       0.70292901       0.34506006 </v>
   <v>       0.31560971       0.03808526       0.38929980 </v>
   <v>       0.68410732       0.11467869       0.16650074 </v>
   <v>       0.81479367       0.20281221       0.21129363 </v>
   <v>       0.06087645       0.53751539       0.25579481 </v>
   <v>       0.56225407       0.70551918       0.47860296 </v>
   <v>       0.43499084       0.78426804       0.12430236 </v>
   <v>       0.56625940       0.37229017       0.30048359 </v>
   <v>       0.43537453       0.95308102       0.34509092 </v>
   <v>       0.18632754       0.95682354       0.69959977 </v>
   <v>       0.43331478       0.61460399       0.16622550 </v>
   <v>       0.93942484       0.45408765       0.21163099 </v>
   <v>       0.06153017       0.53191324       0.12427200 </v>
   <v>       0.81208400       0.37259760       0.52174671 </v>
   <v>       0.94252181       0.62285168       0.30025203 </v>
   <v>       0.31091240       0.03681799       0.25601758 </v>
   <v>       0.68453878       0.78892149       0.61029813 </v>
   <v>       0.19082712       0.46296669       0.83369241 </v>
   <v>       0.43381020       0.11312143       0.16640948 </v>
   <v>       0.31123256       0.37242882       0.52166657 </v>
   <v>       0.43490078       0.62450851       0.78856966 </v>
   <v>       0.06098145       0.03668885       0.25587607 </v>
   <v>       0.56192184       0.70648196       0.56580738 </v>
   <v>       0.93938087       0.29147202       0.74415823 </v>
   <v>       0.68452290       0.12397147       0.78841206 </v>
   <v>       0.18931357       0.45400959       0.21149577 </v>
   <v>       0.94002884       0.78722225       0.38913737 </v>
   <v>       0.68644808       0.29553682       0.87583981 </v>
   <v>       0.55722466       0.86382842       0.16643727 </v>
   <v>       0.43593633       0.45755998       0.69961723 </v>
   <v>       0.93623852       0.95260403       0.34513173 </v>
   <v>       0.68685761       0.62212805       0.52172227 </v>
   <v>       0.06475243       0.87404276       0.65487120 </v>
   <v>       0.06082317       0.87461518       0.78844419 </v>
   <v>       0.06473323       0.37434839       0.65484566 </v>
   <v>       0.68723179       0.45480381       0.47859160 </v>
   <v>       0.18631863       0.78680329       0.25589341 </v>
   <v>       0.43717855       0.12145122       0.43432248 </v>
   <v>       0.81243702       0.03264813       0.12432025 </v>
   <v>       0.93666206       0.62209063       0.52173109 </v>
   <v>       0.43965065       0.12428075       0.65471889 </v>
   <v>       0.81234213       0.53172805       0.12407014 </v>
   <v>       0.43531092       0.45339725       0.34519629 </v>
   <v>       0.81068778       0.20357201       0.34523079 </v>
   <v>       0.31103089       0.70224167       0.34499057 </v>
   <v>       0.68964675       0.12455916       0.65477952 </v>
   <v>       0.56636783       0.87199629       0.30032507 </v>
   <v>       0.06459705       0.54139824       0.74397620 </v>
   <v>       0.93977684       0.95337900       0.21134652 </v>
   <v>       0.81509357       0.70290221       0.21143380 </v>
   <v>       0.06798677       0.87121606       0.30033909 </v>
   <v>       0.19306407       0.12258495       0.30037787 </v>
   <v>       0.06102664       0.70269098       0.34511755 </v>
   <v>       0.80971838       0.03896014       0.61039774 </v>
   <v>       0.06402860       0.37085338       0.43423860 </v>
   <v>       0.55997409       0.20329578       0.34520636 </v>
   <v>       0.81684841       0.37340509       0.30035637 </v>
   <v>       0.56032147       0.03684682       0.25580837 </v>
   <v>       0.56427030       0.53702494       0.38929680 </v>
   <v>       0.06290932       0.20572366       0.47867491 </v>
   <v>       0.31101039       0.87372457       0.78828136 </v>
   <v>       0.93651107       0.95729143       0.69942659 </v>
   <v>       0.06760432       0.37392011       0.30044421 </v>
   <v>       0.68951067       0.62446924       0.65491098 </v>
   <v>       0.68677065       0.45640728       0.56570784 </v>
   <v>       0.43957494       0.95333817       0.21174595 </v>
   <v>       0.31207011       0.20540623       0.47848617 </v>
   <v>       0.81246262       0.54413810       0.87567497 </v>
   <v>       0.68738749       0.62122469       0.43439676 </v>
   <v>       0.81142256       0.20766226       0.69950727 </v>
   <v>       0.81255233       0.70547797       0.47874064 </v>
   <v>       0.81098239       0.87169123       0.43441919 </v>
   <v>       0.93720093       0.95494452       0.47880043 </v>
   <v>       0.56240857       0.20505482       0.47854076 </v>
   <v>       0.18794559       0.61992798       0.43450893 </v>
   <v>       0.31401907       0.04141943       0.74407274 </v>
   <v>       0.93974218       0.62451249       0.65489695 </v>
   <v>       0.56523967       0.71265100       0.83339741 </v>
   <v>       0.31753774       0.37378395       0.30042797 </v>
   <v>       0.31414165       0.54162511       0.74404880 </v>
   <v>       0.18757699       0.45510703       0.47857981 </v>
   <v>       0.31498151       0.04385768       0.87578967 </v>
   <v>       0.18643999       0.45820799       0.69956263 </v>
   <v>       0.56232098       0.37221099       0.52172752 </v>
   <v>       0.19041895       0.28804185       0.38932230 </v>
   <v>       0.31463643       0.20308394       0.21145136 </v>
   <v>       0.06558573       0.70251089       0.21128175 </v>
   <v>       0.56127310       0.37028258       0.43437451 </v>
   <v>       0.43675810       0.62241507       0.52163213 </v>
   <v>       0.81567109       0.71399239       0.83332868 </v>
   <v>       0.06066072       0.37535098       0.78832697 </v>
   <v>       0.43696390       0.29509991       0.87596348 </v>
   <v>       0.31129397       0.03154219       0.12415207 </v>
   <v>       0.68684808       0.12064256       0.43436350 </v>
   <v>       0.18617086       0.95265568       0.34508402 </v>
   <v>       0.06523999       0.21302018       0.83377861 </v>
   <v>       0.56002868       0.03899750       0.61033024 </v>
   <v>       0.68861504       0.45456210       0.21158321 </v>
   <v>       0.18920970       0.79114729       0.74409247 </v>
   <v>       0.19293074       0.62248302       0.30037616 </v>
   <v>       0.44048753       0.78782754       0.38935844 </v>
   <v>       0.43507299       0.28790264       0.25594272 </v>
   <v>       0.06429596       0.54400580       0.87581414 </v>
   <v>       0.56400578       0.04138053       0.74415646 </v>
   <v>       0.18859399       0.79496786       0.87595316 </v>
   <v>       0.93770795       0.45474326       0.47876068 </v>
   <v>       0.56376131       0.54169755       0.74402264 </v>
   <v>       0.81105891       0.20690896       0.56551411 </v>
   <v>       0.18594707       0.62477096       0.78832263 </v>
   <v>       0.06663566       0.53800120       0.38929870 </v>
   <v>       0.06173100       0.70737548       0.69952693 </v>
   <v>       0.31047365       0.53745314       0.25584274 </v>
   <v>       0.69218407       0.12208872       0.30068165 </v>
   <v>       0.30701744       0.86441021       0.16591937 </v>
   <v>       0.43606581       0.62050709       0.43442691 </v>
   <v>       0.81643038       0.03823028       0.38940170 </v>
   <v>       0.93595664       0.29514197       0.87584056 </v>
   <v>       0.93700755       0.79373575       0.87574986 </v>
   <v>       0.06524394       0.04248698       0.87575217 </v>
   <v>       0.56212389       0.53156871       0.12440378 </v>
   <v>       0.80711263       0.36612505       0.16557986 </v>
   <v>       0.06260518       0.87173102       0.43462702 </v>
   <v>       0.93675621       0.12290861       0.52187363 </v>
   <v>       0.19190457       0.78664967       0.38883477 </v>
   <v>       0.56457309       0.70282022       0.21173504 </v>
  </varray>
 </structure>
</modeling>
