 288 288   0   0
  0.1280206E+02  0.9726678E-09  0.8423550E-09  0.4500000E-08  0.2500000E-15
  1.000000000000000E-004
  CAR 
 unknown system                          
      6.82140600     -6.01550593  301      4.29536443      1.00000000
     -6.016  0.0000E+00  0.0000E+00
     -5.973  0.0000E+00  0.0000E+00
     -5.930  0.0000E+00  0.0000E+00
     -5.887  0.0000E+00  0.0000E+00
     -5.844  0.0000E+00  0.0000E+00
     -5.802  0.0000E+00  0.0000E+00
     -5.759  0.0000E+00  0.0000E+00
     -5.716  0.0000E+00  0.0000E+00
     -5.673  0.0000E+00  0.0000E+00
     -5.630  0.0000E+00  0.0000E+00
     -5.588  0.0000E+00  0.0000E+00
     -5.545  0.0000E+00  0.0000E+00
     -5.502  0.0000E+00  0.0000E+00
     -5.459  0.0000E+00  0.0000E+00
     -5.416  0.0000E+00  0.0000E+00
     -5.374  0.1622E-15  0.6939E-17
     -5.331  0.4249E-14  0.1887E-15
     -5.288  0.9084E-13  0.4076E-14
     -5.245  0.1660E-11  0.7510E-13
     -5.203  0.2583E-10  0.1180E-11
     -5.160  0.3424E-09  0.1583E-10
     -5.117  0.3868E-08  0.1813E-09
     -5.074  0.3726E-07  0.1776E-08
     -5.031  0.3062E-06  0.1488E-07
     -4.989  0.2149E-05  0.1068E-06
     -4.946  0.1289E-04  0.6585E-06
     -4.903  0.6626E-04  0.3494E-05
     -4.860  0.2924E-03  0.1600E-04
     -4.817  0.1111E-02  0.6356E-04
     -4.775  0.3655E-02  0.2200E-03
     -4.732  0.1047E-01  0.6679E-03
     -4.689  0.2631E-01  0.1794E-02
     -4.646  0.5861E-01  0.4302E-02
     -4.603  0.1169E+00  0.9306E-02
     -4.561  0.2114E+00  0.1835E-01
     -4.518  0.3500E+00  0.3333E-01
     -4.475  0.5349E+00  0.5622E-01
     -4.432  0.7594E+00  0.8871E-01
     -4.389  0.1006E+01  0.1318E+00
     -4.347  0.1250E+01  0.1853E+00
     -4.304  0.1465E+01  0.2479E+00
     -4.261  0.1628E+01  0.3176E+00
     -4.218  0.1734E+01  0.3918E+00
     -4.176  0.1795E+01  0.4686E+00
     -4.133  0.1842E+01  0.5474E+00
     -4.090  0.1917E+01  0.6294E+00
     -4.047  0.2054E+01  0.7173E+00
     -4.004  0.2263E+01  0.8142E+00
     -3.962  0.2529E+01  0.9224E+00
     -3.919  0.2806E+01  0.1042E+01
     -3.876  0.3041E+01  0.1173E+01
     -3.833  0.3184E+01  0.1309E+01
     -3.790  0.3218E+01  0.1446E+01
     -3.748  0.3163E+01  0.1582E+01
     -3.705  0.3075E+01  0.1713E+01
     -3.662  0.3018E+01  0.1843E+01
     -3.619  0.3048E+01  0.1973E+01
     -3.576  0.3185E+01  0.2109E+01
     -3.534  0.3406E+01  0.2255E+01
     -3.491  0.3660E+01  0.2412E+01
     -3.448  0.3887E+01  0.2578E+01
     -3.405  0.4046E+01  0.2751E+01
     -3.363  0.4126E+01  0.2928E+01
     -3.320  0.4147E+01  0.3105E+01
     -3.277  0.4143E+01  0.3282E+01
     -3.234  0.4149E+01  0.3460E+01
     -3.191  0.4197E+01  0.3639E+01
     -3.149  0.4300E+01  0.3823E+01
     -3.106  0.4456E+01  0.4014E+01
     -3.063  0.4650E+01  0.4213E+01
     -3.020  0.4857E+01  0.4421E+01
     -2.977  0.5047E+01  0.4637E+01
     -2.935  0.5193E+01  0.4859E+01
     -2.892  0.5286E+01  0.5085E+01
     -2.849  0.5339E+01  0.5314E+01
     -2.806  0.5384E+01  0.5544E+01
     -2.763  0.5452E+01  0.5777E+01
     -2.721  0.5557E+01  0.6015E+01
     -2.678  0.5672E+01  0.6258E+01
     -2.635  0.5733E+01  0.6503E+01
     -2.592  0.5685E+01  0.6746E+01
     -2.550  0.5536E+01  0.6983E+01
     -2.507  0.5383E+01  0.7214E+01
     -2.464  0.5371E+01  0.7443E+01
     -2.421  0.5617E+01  0.7684E+01
     -2.378  0.6129E+01  0.7946E+01
     -2.336  0.6780E+01  0.8236E+01
     -2.293  0.7356E+01  0.8551E+01
     -2.250  0.7660E+01  0.8879E+01
     -2.207  0.7612E+01  0.9204E+01
     -2.164  0.7300E+01  0.9517E+01
     -2.122  0.6932E+01  0.9813E+01
     -2.079  0.6745E+01  0.1010E+02
     -2.036  0.6879E+01  0.1040E+02
     -1.993  0.7322E+01  0.1071E+02
     -1.950  0.7926E+01  0.1105E+02
     -1.908  0.8484E+01  0.1141E+02
     -1.865  0.8829E+01  0.1179E+02
     -1.822  0.8911E+01  0.1217E+02
     -1.779  0.8810E+01  0.1255E+02
     -1.737  0.8681E+01  0.1292E+02
     -1.694  0.8656E+01  0.1329E+02
     -1.651  0.8784E+01  0.1367E+02
     -1.608  0.9023E+01  0.1405E+02
     -1.565  0.9304E+01  0.1445E+02
     -1.523  0.9581E+01  0.1486E+02
     -1.480  0.9847E+01  0.1528E+02
     -1.437  0.1010E+02  0.1571E+02
     -1.394  0.1031E+02  0.1615E+02
     -1.351  0.1045E+02  0.1660E+02
     -1.309  0.1054E+02  0.1705E+02
     -1.266  0.1073E+02  0.1751E+02
     -1.223  0.1122E+02  0.1799E+02
     -1.180  0.1212E+02  0.1851E+02
     -1.137  0.1333E+02  0.1908E+02
     -1.095  0.1453E+02  0.1970E+02
     -1.052  0.1536E+02  0.2036E+02
     -1.009  0.1565E+02  0.2103E+02
     -0.966  0.1558E+02  0.2170E+02
     -0.924  0.1555E+02  0.2236E+02
     -0.881  0.1597E+02  0.2304E+02
     -0.838  0.1703E+02  0.2377E+02
     -0.795  0.1869E+02  0.2457E+02
     -0.752  0.2082E+02  0.2546E+02
     -0.710  0.2345E+02  0.2647E+02
     -0.667  0.2678E+02  0.2761E+02
     -0.624  0.3096E+02  0.2894E+02
     -0.581  0.3579E+02  0.3047E+02
     -0.538  0.4072E+02  0.3221E+02
     -0.496  0.4508E+02  0.3414E+02
     -0.453  0.4848E+02  0.3621E+02
     -0.410  0.5096E+02  0.3840E+02
     -0.367  0.5283E+02  0.4066E+02
     -0.324  0.5435E+02  0.4298E+02
     -0.282  0.5560E+02  0.4536E+02
     -0.239  0.5649E+02  0.4778E+02
     -0.196  0.5693E+02  0.5021E+02
     -0.153  0.5700E+02  0.5265E+02
     -0.111  0.5687E+02  0.5509E+02
     -0.068  0.5682E+02  0.5752E+02
     -0.025  0.5710E+02  0.5996E+02
      0.018  0.5794E+02  0.6244E+02
      0.061  0.5949E+02  0.6499E+02
      0.103  0.6179E+02  0.6763E+02
      0.146  0.6478E+02  0.7040E+02
      0.189  0.6828E+02  0.7332E+02
      0.232  0.7204E+02  0.7641E+02
      0.275  0.7578E+02  0.7965E+02
      0.317  0.7918E+02  0.8304E+02
      0.360  0.8200E+02  0.8655E+02
      0.403  0.8416E+02  0.9015E+02
      0.446  0.8570E+02  0.9381E+02
      0.489  0.8672E+02  0.9752E+02
      0.531  0.8726E+02  0.1013E+03
      0.574  0.8730E+02  0.1050E+03
      0.617  0.8688E+02  0.1087E+03
      0.660  0.8607E+02  0.1124E+03
      0.702  0.8492E+02  0.1160E+03
      0.745  0.8343E+02  0.1196E+03
      0.788  0.8158E+02  0.1231E+03
      0.831  0.7954E+02  0.1265E+03
      0.874  0.7765E+02  0.1298E+03
      0.916  0.7630E+02  0.1331E+03
      0.959  0.7572E+02  0.1363E+03
      1.002  0.7579E+02  0.1396E+03
      1.045  0.7614E+02  0.1428E+03
      1.088  0.7634E+02  0.1461E+03
      1.130  0.7613E+02  0.1493E+03
      1.173  0.7554E+02  0.1526E+03
      1.216  0.7474E+02  0.1558E+03
      1.259  0.7395E+02  0.1589E+03
      1.302  0.7325E+02  0.1621E+03
      1.344  0.7256E+02  0.1652E+03
      1.387  0.7170E+02  0.1682E+03
      1.430  0.7047E+02  0.1713E+03
      1.473  0.6887E+02  0.1742E+03
      1.515  0.6720E+02  0.1771E+03
      1.558  0.6601E+02  0.1799E+03
      1.601  0.6585E+02  0.1827E+03
      1.644  0.6700E+02  0.1856E+03
      1.687  0.6931E+02  0.1886E+03
      1.729  0.7231E+02  0.1917E+03
      1.772  0.7551E+02  0.1949E+03
      1.815  0.7859E+02  0.1982E+03
      1.858  0.8144E+02  0.2017E+03
      1.901  0.8401E+02  0.2053E+03
      1.943  0.8630E+02  0.2090E+03
      1.986  0.8833E+02  0.2128E+03
      2.029  0.9018E+02  0.2167E+03
      2.072  0.9186E+02  0.2206E+03
      2.115  0.9330E+02  0.2246E+03
      2.157  0.9445E+02  0.2286E+03
      2.200  0.9546E+02  0.2327E+03
      2.243  0.9670E+02  0.2368E+03
      2.286  0.9862E+02  0.2411E+03
      2.328  0.1015E+03  0.2454E+03
      2.371  0.1054E+03  0.2499E+03
      2.414  0.1099E+03  0.2546E+03
      2.457  0.1143E+03  0.2595E+03
      2.500  0.1182E+03  0.2646E+03
      2.542  0.1213E+03  0.2698E+03
      2.585  0.1237E+03  0.2751E+03
      2.628  0.1258E+03  0.2804E+03
      2.671  0.1277E+03  0.2859E+03
      2.714  0.1296E+03  0.2914E+03
      2.756  0.1318E+03  0.2971E+03
      2.799  0.1343E+03  0.3028E+03
      2.842  0.1371E+03  0.3087E+03
      2.885  0.1398E+03  0.3147E+03
      2.928  0.1417E+03  0.3207E+03
      2.970  0.1418E+03  0.3268E+03
      3.013  0.1392E+03  0.3328E+03
      3.056  0.1338E+03  0.3385E+03
      3.099  0.1262E+03  0.3439E+03
      3.141  0.1172E+03  0.3489E+03
      3.184  0.1083E+03  0.3535E+03
      3.227  0.1005E+03  0.3578E+03
      3.270  0.9429E+02  0.3619E+03
      3.313  0.8995E+02  0.3657E+03
      3.355  0.8717E+02  0.3695E+03
      3.398  0.8551E+02  0.3731E+03
      3.441  0.8455E+02  0.3767E+03
      3.484  0.8394E+02  0.3803E+03
      3.527  0.8336E+02  0.3839E+03
      3.569  0.8274E+02  0.3874E+03
      3.612  0.8230E+02  0.3910E+03
      3.655  0.8254E+02  0.3945E+03
      3.698  0.8396E+02  0.3981E+03
      3.741  0.8678E+02  0.4018E+03
      3.783  0.9075E+02  0.4057E+03
      3.826  0.9526E+02  0.4098E+03
      3.869  0.9963E+02  0.4140E+03
      3.912  0.1034E+03  0.4184E+03
      3.954  0.1062E+03  0.4230E+03
      3.997  0.1081E+03  0.4276E+03
      4.040  0.1089E+03  0.4323E+03
      4.083  0.1089E+03  0.4369E+03
      4.126  0.1082E+03  0.4416E+03
      4.168  0.1070E+03  0.4461E+03
      4.211  0.1057E+03  0.4507E+03
      4.254  0.1045E+03  0.4551E+03
      4.297  0.1033E+03  0.4595E+03
      4.340  0.1024E+03  0.4639E+03
      4.382  0.1018E+03  0.4683E+03
      4.425  0.1016E+03  0.4726E+03
      4.468  0.1012E+03  0.4770E+03
      4.511  0.1005E+03  0.4813E+03
      4.554  0.9937E+02  0.4855E+03
      4.596  0.9803E+02  0.4897E+03
      4.639  0.9707E+02  0.4939E+03
      4.682  0.9704E+02  0.4980E+03
      4.725  0.9814E+02  0.5022E+03
      4.768  0.1002E+03  0.5065E+03
      4.810  0.1028E+03  0.5109E+03
      4.853  0.1055E+03  0.5154E+03
      4.896  0.1077E+03  0.5200E+03
      4.939  0.1091E+03  0.5247E+03
      4.981  0.1093E+03  0.5294E+03
      5.024  0.1076E+03  0.5340E+03
      5.067  0.1033E+03  0.5384E+03
      5.110  0.9534E+02  0.5425E+03
      5.153  0.8333E+02  0.5460E+03
      5.195  0.6786E+02  0.5489E+03
      5.238  0.5078E+02  0.5511E+03
      5.281  0.3450E+02  0.5526E+03
      5.324  0.2111E+02  0.5535E+03
      5.367  0.1155E+02  0.5540E+03
      5.409  0.5629E+01  0.5542E+03
      5.452  0.2438E+01  0.5543E+03
      5.495  0.9371E+00  0.5544E+03
      5.538  0.3197E+00  0.5544E+03
      5.581  0.9691E-01  0.5544E+03
      5.623  0.2611E-01  0.5544E+03
      5.666  0.6258E-02  0.5544E+03
      5.709  0.1333E-02  0.5544E+03
      5.752  0.2516E-03  0.5544E+03
      5.794  0.4196E-04  0.5544E+03
      5.837  0.6153E-05  0.5544E+03
      5.880  0.7893E-06  0.5544E+03
      5.923  0.8811E-07  0.5544E+03
      5.966  0.8524E-08  0.5544E+03
      6.008  0.7117E-09  0.5544E+03
      6.051  0.5113E-10  0.5544E+03
      6.094  0.3152E-11  0.5544E+03
      6.137  0.1658E-12  0.5544E+03
      6.180  0.7265E-14  0.5544E+03
      6.222  0.2595E-15  0.5544E+03
      6.265  0.0000E+00  0.5544E+03
      6.308  0.0000E+00  0.5544E+03
      6.351  0.0000E+00  0.5544E+03
      6.394  0.0000E+00  0.5544E+03
      6.436  0.0000E+00  0.5544E+03
      6.479  0.0000E+00  0.5544E+03
      6.522  0.0000E+00  0.5544E+03
      6.565  0.0000E+00  0.5544E+03
      6.607  0.0000E+00  0.5544E+03
      6.650  0.0000E+00  0.5544E+03
      6.693  0.0000E+00  0.5544E+03
      6.736  0.0000E+00  0.5544E+03
      6.779  0.0000E+00  0.5544E+03
      6.821  0.0000E+00  0.5544E+03
