       N       E                     dE             d eps       ncg     rms          rms(c)
DAV:   1     0.292165622050E+05    0.29217E+05   -0.86580E+05 27930   0.197E+03
DAV:   2     0.119370211503E+04   -0.28023E+05   -0.27412E+05 27720   0.604E+02
DAV:   3    -0.193958287968E+04   -0.31333E+04   -0.27221E+04 39004   0.279E+02
DAV:   4    -0.260672192747E+04   -0.66714E+03   -0.60701E+03 51016   0.974E+01
DAV:   5    -0.272695581040E+04   -0.12023E+03   -0.11230E+03 48342   0.396E+01    0.203E+02
RMM:   6    -0.585823643691E+04   -0.31313E+04   -0.12369E+04 48571   0.249E+02    0.675E+02
RMM:   7    -0.390464655889E+04    0.19536E+04   -0.34824E+03 47369   0.102E+02    0.398E+02
RMM:   8    -0.117963362797E+05   -0.78917E+04   -0.20498E+04 47245   0.395E+02    0.125E+03
RMM:   9    -0.145496356668E+05   -0.27533E+04   -0.16560E+04 49779   0.196E+02    0.823E+02
RMM:  10    -0.891723558700E+04    0.56324E+04   -0.62681E+03 40790   0.150E+02    0.547E+02
RMM:  11    -0.976214698621E+04   -0.84491E+03   -0.15748E+04 44484   0.253E+02    0.828E+02
RMM:  12    -0.110846944389E+05   -0.13225E+04   -0.15261E+04 49319   0.128E+02    0.759E+02
RMM:  13    -0.919523931654E+04    0.18895E+04   -0.54671E+03 47964   0.137E+02    0.582E+02
RMM:  14    -0.969068994475E+04   -0.49545E+03   -0.70462E+03 36809   0.196E+02    0.576E+02
RMM:  15    -0.604111967802E+04    0.36496E+04   -0.63242E+03 29436   0.165E+02    0.490E+02
RMM:  16    -0.491183954989E+04    0.11293E+04   -0.13030E+03 28862   0.699E+01    0.405E+02
RMM:  17    -0.421948099968E+04    0.69236E+03   -0.33099E+03 38796   0.946E+01    0.365E+02
RMM:  18    -0.330558162052E+04    0.91390E+03   -0.10979E+03 35482   0.464E+01    0.310E+02
RMM:  19    -0.305816287820E+04    0.24742E+03   -0.90247E+02 35401   0.380E+01    0.299E+02
RMM:  20    -0.264400211544E+04    0.41416E+03   -0.17817E+03 43797   0.456E+01    0.206E+02
RMM:  21    -0.254948531182E+04    0.94517E+02   -0.64000E+02 36312   0.319E+01    0.192E+02
RMM:  22    -0.237941609757E+04    0.17007E+03   -0.38404E+02 29073   0.365E+01    0.126E+02
RMM:  23    -0.267741656038E+04   -0.29800E+03   -0.55081E+02 33780   0.316E+01    0.197E+02
RMM:  24    -0.250559724248E+04    0.17182E+03   -0.46450E+02 43253   0.153E+01    0.161E+02
RMM:  25    -0.245662231567E+04    0.48975E+02   -0.84205E+01 28209   0.189E+01    0.150E+02
RMM:  26    -0.239901602285E+04    0.57606E+02   -0.10971E+02 43348   0.636E+00    0.120E+02
RMM:  27    -0.238348023158E+04    0.15536E+02   -0.32683E+01 34062   0.613E+00    0.109E+02
RMM:  28    -0.236847021569E+04    0.15010E+02   -0.26397E+01 41660   0.364E+00    0.961E+01
RMM:  29    -0.236627817154E+04    0.21920E+01   -0.85634E+00 31600   0.416E+00    0.943E+01
RMM:  30    -0.235197888555E+04    0.14299E+02   -0.12547E+01 31491   0.532E+00    0.798E+01
RMM:  31    -0.234737193339E+04    0.46070E+01   -0.19116E+01 31845   0.643E+00    0.724E+01
RMM:  32    -0.234099830817E+04    0.63736E+01   -0.19042E+01 35549   0.518E+00    0.643E+01
RMM:  33    -0.233320730727E+04    0.77910E+01   -0.10570E+01 36534   0.364E+00    0.564E+01
RMM:  34    -0.233154770740E+04    0.16596E+01   -0.66448E+00 35522   0.299E+00    0.541E+01
RMM:  35    -0.232968500776E+04    0.18627E+01   -0.48121E+00 32645   0.322E+00    0.505E+01
RMM:  36    -0.233061613086E+04   -0.93112E+00   -0.45736E+00 30885   0.363E+00    0.545E+01
RMM:  37    -0.232965836657E+04    0.95776E+00   -0.53877E+00 42197   0.182E+00    0.532E+01
RMM:  38    -0.232864008088E+04    0.10183E+01   -0.24102E+00 33805   0.177E+00    0.520E+01
RMM:  39    -0.232435839129E+04    0.42817E+01   -0.20909E+00 31427   0.230E+00    0.431E+01
RMM:  40    -0.232018759714E+04    0.41708E+01   -0.22737E+00 29710   0.279E+00    0.351E+01
RMM:  41    -0.231796275118E+04    0.22248E+01   -0.40364E+00 31295   0.322E+00    0.312E+01
RMM:  42    -0.231698869770E+04    0.97405E+00   -0.44356E+00 36151   0.252E+00    0.292E+01
RMM:  43    -0.231723849918E+04   -0.24980E+00   -0.31002E+00 39857   0.163E+00    0.307E+01
RMM:  44    -0.231733127007E+04   -0.92771E-01   -0.14184E+00 41946   0.935E-01    0.309E+01
RMM:  45    -0.231716219850E+04    0.16907E+00   -0.52727E-01 38085   0.669E-01    0.302E+01
RMM:  46    -0.231767877240E+04   -0.51657E+00   -0.64915E-01 31326   0.125E+00    0.324E+01
RMM:  47    -0.231824189644E+04   -0.56312E+00   -0.54559E-01 32362   0.104E+00    0.343E+01
RMM:  48    -0.231815304057E+04    0.88856E-01   -0.27102E-01 31389   0.811E-01    0.339E+01
RMM:  49    -0.231852848671E+04   -0.37545E+00   -0.25631E-01 28581   0.105E+00    0.349E+01
RMM:  50    -0.231823857778E+04    0.28991E+00   -0.44970E-01 30555   0.110E+00    0.339E+01
RMM:  51    -0.235999402720E+04   -0.41755E+02   -0.45799E+01 33367   0.882E+00    0.809E+01
RMM:  52    -0.234576382928E+04    0.14230E+02   -0.20852E+01 29018   0.864E+00    0.700E+01
RMM:  53    -0.234653385712E+04   -0.77003E+00   -0.13297E+01 31644   0.541E+00    0.733E+01
RMM:  54    -0.237868108787E+04   -0.32147E+02   -0.19621E+01 30696   0.759E+00    0.102E+02
RMM:  55    -0.237248797173E+04    0.61931E+01   -0.21251E+01 34190   0.607E+00    0.968E+01
RMM:  56    -0.236099397683E+04    0.11494E+02   -0.25758E+01 27984   0.114E+01    0.925E+01
RMM:  57    -0.234059702321E+04    0.20397E+02   -0.30239E+01 33230   0.798E+00    0.693E+01
RMM:  58    -0.233230170333E+04    0.82953E+01   -0.14413E+01 28566   0.733E+00    0.570E+01
RMM:  59    -0.233249550203E+04   -0.19380E+00   -0.16030E+01 30627   0.659E+00    0.563E+01
RMM:  60    -0.232828041264E+04    0.42151E+01   -0.70170E+00 28348   0.550E+00    0.522E+01
RMM:  61    -0.236162038663E+04   -0.33340E+02   -0.19384E+01 30849   0.737E+00    0.925E+01
RMM:  62    -0.234735820746E+04    0.14262E+02   -0.19507E+01 38793   0.453E+00    0.757E+01
RMM:  63    -0.234217100196E+04    0.51872E+01   -0.71034E+00 31806   0.403E+00    0.704E+01
RMM:  64    -0.234133288528E+04    0.83812E+00   -0.68509E+00 39630   0.253E+00    0.698E+01
RMM:  65    -0.234178117985E+04   -0.44829E+00   -0.28008E+00 32951   0.210E+00    0.711E+01
RMM:  66    -0.232958255570E+04    0.12199E+02   -0.15298E+01 29276   0.702E+00    0.510E+01
RMM:  67    -0.232143383953E+04    0.81487E+01   -0.99997E+00 27775   0.676E+00    0.342E+01
RMM:  68    -0.231905626566E+04    0.23776E+01   -0.78044E+00 28098   0.617E+00    0.277E+01
RMM:  69    -0.231857576230E+04    0.48050E+00   -0.62357E+00 29339   0.448E+00    0.259E+01
RMM:  70    -0.231703252828E+04    0.15432E+01   -0.31970E+00 28355   0.360E+00    0.191E+01
RMM:  71    -0.232125651567E+04   -0.42240E+01   -0.51235E+00 29579   0.401E+00    0.339E+01
RMM:  72    -0.231682479337E+04    0.44317E+01   -0.18934E+00 27832   0.296E+00    0.181E+01
RMM:  73    -0.231632832566E+04    0.49647E+00   -0.12765E+00 29714   0.205E+00    0.156E+01
RMM:  74    -0.231592070377E+04    0.40762E+00   -0.12907E+00 31929   0.165E+00    0.122E+01
RMM:  75    -0.231562424362E+04    0.29646E+00   -0.67183E-01 29817   0.147E+00    0.970E+00
RMM:  76    -0.231541464283E+04    0.20960E+00   -0.72574E-01 30527   0.143E+00    0.744E+00
RMM:  77    -0.231528697291E+04    0.12767E+00   -0.33577E-01 28779   0.117E+00    0.556E+00
RMM:  78    -0.231528002315E+04    0.69498E-02   -0.37333E-01 30313   0.107E+00    0.498E+00
RMM:  79    -0.231526966069E+04    0.10362E-01   -0.26136E-01 30166   0.895E-01    0.469E+00
RMM:  80    -0.231524620963E+04    0.23451E-01   -0.26624E-01 34188   0.674E-01    0.404E+00
RMM:  81    -0.231533371649E+04   -0.87507E-01   -0.19789E-01 28892   0.878E-01    0.574E+00
RMM:  82    -0.231529303938E+04    0.40677E-01   -0.93550E-02 28000   0.679E-01    0.499E+00
RMM:  83    -0.231525518329E+04    0.37856E-01   -0.67172E-02 30559   0.434E-01    0.414E+00
RMM:  84    -0.231520984700E+04    0.45336E-01   -0.50447E-02 32688   0.326E-01    0.292E+00
RMM:  85    -0.231517815650E+04    0.31690E-01   -0.25872E-02 30926   0.261E-01    0.164E+00
RMM:  86    -0.231518758222E+04   -0.94257E-02   -0.44641E-02 30966   0.339E-01    0.201E+00
RMM:  87    -0.231517499029E+04    0.12592E-01   -0.15108E-02 28243   0.267E-01    0.132E+00
RMM:  88    -0.231517203998E+04    0.29503E-02   -0.14997E-02 35148   0.145E-01    0.107E+00
RMM:  89    -0.231517049440E+04    0.15456E-02   -0.53902E-03 31570   0.113E-01    0.966E-01
RMM:  90    -0.231517283175E+04   -0.23373E-02   -0.53105E-03 30479   0.124E-01    0.117E+00
RMM:  91    -0.231517125985E+04    0.15719E-02   -0.88155E-03 28527   0.189E-01    0.913E-01
RMM:  92    -0.231516961554E+04    0.16443E-02   -0.37078E-03 28068   0.144E-01    0.731E-01
RMM:  93    -0.231516886364E+04    0.75190E-03   -0.38586E-03 34344   0.753E-02    0.592E-01
RMM:  94    -0.231516863283E+04    0.23081E-03   -0.19226E-03 32623   0.632E-02    0.534E-01
RMM:  95    -0.231516851680E+04    0.11603E-03   -0.13047E-03 31782   0.549E-02    0.492E-01
RMM:  96    -0.231516863888E+04   -0.12208E-03   -0.28266E-03 31606   0.825E-02    0.487E-01
RMM:  97    -0.231516795842E+04    0.68045E-03   -0.12439E-03 27922   0.834E-02    0.341E-01
RMM:  98    -0.231516764248E+04    0.31594E-03   -0.89622E-04 31441   0.471E-02    0.229E-01
RMM:  99    -0.231516764319E+04   -0.71109E-06   -0.61231E-04 30842   0.407E-02    0.215E-01
RMM: 100    -0.231516758103E+04    0.62157E-04   -0.52120E-04 34326   0.293E-02    0.166E-01
RMM: 101    -0.231516836041E+04   -0.77938E-03   -0.12609E-03 28137   0.703E-02    0.401E-01
RMM: 102    -0.231516769603E+04    0.66438E-03   -0.48773E-04 27721   0.609E-02    0.200E-01
RMM: 103    -0.231516755202E+04    0.14401E-03   -0.14246E-04 28939   0.251E-02    0.119E-01
RMM: 104    -0.231516754114E+04    0.10883E-04   -0.13621E-04 30815   0.185E-02    0.928E-02
RMM: 105    -0.231516755471E+04   -0.13573E-04   -0.10398E-04 32478   0.144E-02    0.900E-02
RMM: 106    -0.231516763180E+04   -0.77092E-04   -0.13610E-04 29862   0.210E-02    0.138E-01
RMM: 107    -0.231516756734E+04    0.64461E-04   -0.46337E-05 28106   0.159E-02    0.695E-02
RMM: 108    -0.231516756286E+04    0.44867E-05   -0.32144E-05 31194   0.817E-03    0.556E-02
RMM: 109    -0.231516756956E+04   -0.67097E-05   -0.38033E-05 33851   0.766E-03    0.408E-02
RMM: 110    -0.231516757744E+04   -0.78787E-05   -0.18361E-05 28419   0.623E-03    0.296E-02
RMM: 111    -0.231516761333E+04   -0.35885E-04   -0.42977E-05 30631   0.108E-02    0.698E-02
RMM: 112    -0.231516759292E+04    0.20407E-04   -0.14524E-05 27207   0.926E-03    0.313E-02
RMM: 113    -0.231516759891E+04   -0.59902E-05   -0.77705E-06 23109   0.438E-03    0.214E-02
RMM: 114    -0.231516760282E+04   -0.39119E-05   -0.43250E-06 19875   0.398E-03    0.157E-02
RMM: 115    -0.231516760696E+04   -0.41324E-05   -0.43716E-06 20424   0.330E-03    0.131E-02
RMM: 116    -0.231516760752E+04   -0.56511E-06   -0.28528E-06 17305   0.366E-03
   1 F= -.23151676E+04 E0= -.23122937E+04  d E =-.231517E+04
       N       E                     dE             d eps       ncg     rms          rms(c)
DAV:   1    -0.231539934811E+04   -0.23174E+00   -0.54777E+01 28028   0.775E+00    0.114E+00
RMM:   2    -0.231590424772E+04   -0.50490E+00   -0.87271E-01 27980   0.193E+00    0.909E+00
RMM:   3    -0.231653754388E+04   -0.63330E+00   -0.32968E-01 39593   0.670E-01    0.141E+01
RMM:   4    -0.231586049155E+04    0.67705E+00   -0.84465E-02 27859   0.580E-01    0.833E+00
RMM:   5    -0.231593038643E+04   -0.69895E-01   -0.12058E-01 37190   0.402E-01    0.951E+00
RMM:   6    -0.231562261407E+04    0.30777E+00   -0.12627E-01 28195   0.662E-01    0.528E+00
RMM:   7    -0.231574978089E+04   -0.12717E+00   -0.15944E-01 28837   0.737E-01    0.742E+00
RMM:   8    -0.231563711039E+04    0.11267E+00   -0.69570E-02 28012   0.522E-01    0.571E+00
RMM:   9    -0.231548417054E+04    0.15294E+00   -0.39668E-02 27733   0.488E-01    0.204E+00
RMM:  10    -0.231548356646E+04    0.60408E-03   -0.38143E-02 28498   0.379E-01    0.214E+00
RMM:  11    -0.231548183650E+04    0.17300E-02   -0.31368E-02 28982   0.325E-01    0.204E+00
RMM:  12    -0.231546592496E+04    0.15912E-01   -0.10881E-02 27723   0.237E-01    0.115E+00
RMM:  13    -0.231546143075E+04    0.44942E-02   -0.61761E-03 28980   0.153E-01    0.739E-01
RMM:  14    -0.231546083076E+04    0.59999E-03   -0.81677E-03 33797   0.119E-01    0.619E-01
RMM:  15    -0.231545941642E+04    0.14143E-02   -0.29006E-03 29795   0.939E-02    0.325E-01
RMM:  16    -0.231545926610E+04    0.15032E-03   -0.23131E-03 35593   0.573E-02    0.231E-01
RMM:  17    -0.231545936719E+04   -0.10110E-03   -0.14987E-03 34504   0.498E-02    0.243E-01
RMM:  18    -0.231545913056E+04    0.23663E-03   -0.52662E-04 30053   0.420E-02    0.119E-01
RMM:  19    -0.231545913643E+04   -0.58657E-05   -0.52894E-04 37138   0.237E-02    0.949E-02
RMM:  20    -0.231545916102E+04   -0.24587E-04   -0.30546E-04 35257   0.213E-02    0.101E-01
RMM:  21    -0.231545913489E+04    0.26132E-04   -0.11133E-04 30640   0.180E-02    0.729E-02
RMM:  22    -0.231545913284E+04    0.20442E-05   -0.10977E-04 37432   0.109E-02    0.593E-02
RMM:  23    -0.231545913147E+04    0.13714E-05   -0.66611E-05 36787   0.930E-03    0.491E-02
RMM:  24    -0.231545912163E+04    0.98434E-05   -0.23203E-05 30328   0.773E-03    0.183E-02
RMM:  25    -0.231545912303E+04   -0.14014E-05   -0.21527E-05 30428   0.404E-03    0.176E-02
RMM:  26    -0.231545912341E+04   -0.38519E-06   -0.77987E-06 23738   0.411E-03
   2 F= -.23154591E+04 E0= -.23125811E+04  d E =-.291516E+00
       N       E                     dE             d eps       ncg     rms          rms(c)
DAV:   1    -0.231532733569E+04    0.13179E+00   -0.49174E+02 27720   0.234E+01    0.404E+00
RMM:   2    -0.232023518052E+04   -0.49078E+01   -0.11188E+01 27849   0.683E+00    0.279E+01
RMM:   3    -0.233284923617E+04   -0.12614E+02   -0.38804E+00 39356   0.247E+00    0.535E+01
RMM:   4    -0.232345245695E+04    0.93968E+01   -0.12108E+00 28191   0.206E+00    0.363E+01
RMM:   5    -0.232467851724E+04   -0.12261E+01   -0.24187E+00 37750   0.169E+00    0.411E+01
RMM:   6    -0.231846941448E+04    0.62091E+01   -0.19440E+00 28280   0.257E+00    0.200E+01
RMM:   7    -0.231758860967E+04    0.88080E+00   -0.12958E+00 27792   0.248E+00    0.167E+01
RMM:   8    -0.231820176417E+04   -0.61315E+00   -0.65597E-01 27891   0.170E+00    0.203E+01
RMM:   9    -0.231655091882E+04    0.16508E+01   -0.48515E-01 27818   0.154E+00    0.935E+00
RMM:  10    -0.231687447554E+04   -0.32356E+00   -0.69946E-01 28153   0.165E+00    0.123E+01
RMM:  11    -0.231631227628E+04    0.56220E+00   -0.36532E-01 27732   0.138E+00    0.663E+00
RMM:  12    -0.231610875931E+04    0.20352E+00   -0.14363E-01 27996   0.887E-01    0.310E+00
RMM:  13    -0.231608819603E+04    0.20563E-01   -0.12197E-01 32417   0.488E-01    0.234E+00
RMM:  14    -0.231607883366E+04    0.93624E-02   -0.69039E-02 32180   0.398E-01    0.178E+00
RMM:  15    -0.231607219641E+04    0.66372E-02   -0.28086E-02 28916   0.334E-01    0.150E+00
RMM:  16    -0.231607133366E+04    0.86276E-03   -0.35361E-02 35960   0.226E-01    0.128E+00
RMM:  17    -0.231606888616E+04    0.24475E-02   -0.14830E-02 30771   0.198E-01    0.103E+00
RMM:  18    -0.231606700288E+04    0.18833E-02   -0.83460E-03 31322   0.148E-01    0.822E-01
RMM:  19    -0.231606577094E+04    0.12319E-02   -0.90871E-03 36205   0.112E-01    0.570E-01
RMM:  20    -0.231606554254E+04    0.22840E-03   -0.27851E-03 30376   0.934E-02    0.541E-01
RMM:  21    -0.231606554645E+04   -0.39135E-05   -0.31634E-03 37098   0.613E-02    0.504E-01
RMM:  22    -0.231606478674E+04    0.75972E-03   -0.19246E-03 33339   0.592E-02    0.283E-01
RMM:  23    -0.231606455732E+04    0.22942E-03   -0.92252E-04 31885   0.463E-02    0.186E-01
RMM:  24    -0.231606460095E+04   -0.43635E-04   -0.89808E-04 39403   0.288E-02    0.184E-01
RMM:  25    -0.231606451109E+04    0.89859E-04   -0.28098E-04 31949   0.252E-02    0.123E-01
RMM:  26    -0.231606447449E+04    0.36605E-04   -0.14959E-04 32269   0.181E-02    0.843E-02
RMM:  27    -0.231606448044E+04   -0.59463E-05   -0.15789E-04 39363   0.127E-02    0.802E-02
RMM:  28    -0.231606445894E+04    0.21500E-04   -0.56519E-05 31773   0.112E-02    0.435E-02
RMM:  29    -0.231606445858E+04    0.35908E-06   -0.45355E-05 36033   0.691E-03    0.363E-02
RMM:  30    -0.231606445950E+04   -0.92390E-06   -0.26744E-05 33476   0.612E-03    0.347E-02
RMM:  31    -0.231606445642E+04    0.30823E-05   -0.94512E-06 24831   0.513E-03    0.244E-02
RMM:  32    -0.231606445579E+04    0.62765E-06   -0.58218E-06 21348   0.304E-03
   3 F= -.23160645E+04 E0= -.23131761E+04  d E =-.896848E+00
       N       E                     dE             d eps       ncg     rms          rms(c)
DAV:   1    -0.231222896880E+04    0.38355E+01   -0.19682E+03 27720   0.478E+01    0.853E+00
RMM:   2    -0.233570119368E+04   -0.23472E+02   -0.58761E+01 27820   0.139E+01    0.592E+01
RMM:   3    -0.240573566640E+04   -0.70034E+02   -0.19956E+01 38967   0.587E+00    0.120E+02
RMM:   4    -0.234639421506E+04    0.59341E+02   -0.54371E+00 28731   0.412E+00    0.725E+01
RMM:   5    -0.235690033002E+04   -0.10506E+02   -0.15760E+01 39142   0.380E+00    0.872E+01
RMM:   6    -0.232393314439E+04    0.32967E+02   -0.73008E+00 28309   0.496E+00    0.355E+01
RMM:   7    -0.232221692460E+04    0.17162E+01   -0.50899E+00 27840   0.493E+00    0.339E+01
RMM:   8    -0.233053875482E+04   -0.83218E+01   -0.37369E+00 28142   0.377E+00    0.521E+01
RMM:   9    -0.231922177534E+04    0.11317E+02   -0.29850E+00 27804   0.376E+00    0.231E+01
RMM:  10    -0.232018644742E+04   -0.96467E+00   -0.32772E+00 27931   0.369E+00    0.272E+01
RMM:  11    -0.231678776315E+04    0.33987E+01   -0.15851E+00 27724   0.303E+00    0.112E+01
RMM:  12    -0.231629707493E+04    0.49069E+00   -0.80077E-01 29144   0.173E+00    0.686E+00
RMM:  13    -0.231621075388E+04    0.86321E-01   -0.70678E-01 33437   0.115E+00    0.519E+00
RMM:  14    -0.231616393093E+04    0.46823E-01   -0.20307E-01 28582   0.939E-01    0.450E+00
RMM:  15    -0.231613513910E+04    0.28792E-01   -0.19910E-01 31599   0.675E-01    0.357E+00
RMM:  16    -0.231613266341E+04    0.24757E-02   -0.16519E-01 34503   0.504E-01    0.331E+00
RMM:  17    -0.231613482160E+04   -0.21582E-02   -0.73810E-02 31325   0.428E-01    0.331E+00
RMM:  18    -0.231610893578E+04    0.25886E-01   -0.72176E-02 35661   0.335E-01    0.231E+00
RMM:  19    -0.231609318607E+04    0.15750E-01   -0.23915E-02 29659   0.284E-01    0.158E+00
RMM:  20    -0.231609677307E+04   -0.35870E-02   -0.24890E-02 34200   0.207E-01    0.173E+00
RMM:  21    -0.231609479308E+04    0.19800E-02   -0.15804E-02 34359   0.163E-01    0.158E+00
RMM:  22    -0.231609248507E+04    0.23080E-02   -0.78809E-03 32004   0.132E-01    0.140E+00
RMM:  23    -0.231608877979E+04    0.37053E-02   -0.86985E-03 33180   0.133E-01    0.105E+00
RMM:  24    -0.231608469330E+04    0.40865E-02   -0.34674E-03 28478   0.123E-01    0.553E-01
RMM:  25    -0.231608478532E+04   -0.92015E-04   -0.30213E-03 29981   0.991E-02    0.559E-01
RMM:  26    -0.231608532754E+04   -0.54222E-03   -0.40995E-03 33510   0.873E-02    0.606E-01
RMM:  27    -0.231608447765E+04    0.84989E-03   -0.13736E-03 29668   0.709E-02    0.460E-01
RMM:  28    -0.231608426877E+04    0.20888E-03   -0.18453E-03 41192   0.350E-02    0.389E-01
RMM:  29    -0.231608369368E+04    0.57509E-03   -0.65397E-04 33851   0.318E-02    0.207E-01
RMM:  30    -0.231608362012E+04    0.73560E-04   -0.39295E-04 34375   0.236E-02    0.158E-01
RMM:  31    -0.231608360086E+04    0.19264E-04   -0.29586E-04 37418   0.189E-02    0.135E-01
RMM:  32    -0.231608354127E+04    0.59593E-04   -0.11423E-04 31213   0.169E-02    0.750E-02
RMM:  33    -0.231608353570E+04    0.55639E-05   -0.82977E-05 34240   0.115E-02    0.621E-02
RMM:  34    -0.231608353733E+04   -0.16318E-05   -0.71108E-05 36273   0.102E-02    0.600E-02
RMM:  35    -0.231608352437E+04    0.12959E-04   -0.27212E-05 30258   0.870E-03    0.342E-02
RMM:  36    -0.231608352365E+04    0.71950E-06   -0.25884E-05 33204   0.490E-03    0.275E-02
RMM:  37    -0.231608352257E+04    0.10856E-05   -0.10849E-05 26063   0.458E-03    0.229E-02
RMM:  38    -0.231608352155E+04    0.10146E-05   -0.45289E-06 19973   0.409E-03    0.189E-02
RMM:  39    -0.231608352130E+04    0.25047E-06   -0.29785E-06 18817   0.241E-03
   4 F= -.23160835E+04 E0= -.23131973E+04  d E =-.915914E+00
       N       E                     dE             d eps       ncg     rms          rms(c)
DAV:   1    -0.231555890477E+04    0.52462E+00   -0.47524E+02 27720   0.230E+01    0.413E+00
RMM:   2    -0.231975404326E+04   -0.41951E+01   -0.12030E+01 27785   0.729E+00    0.267E+01
RMM:   3    -0.232082894849E+04   -0.10749E+01   -0.27683E+00 29354   0.314E+00    0.286E+01
RMM:   4    -0.232648595195E+04   -0.56570E+01   -0.19109E+00 39155   0.160E+00    0.436E+01
RMM:   5    -0.232365003399E+04    0.28359E+01   -0.13765E+00 29719   0.198E+00    0.370E+01
RMM:   6    -0.232177968549E+04    0.18703E+01   -0.20903E+00 37872   0.164E+00    0.311E+01
RMM:   7    -0.231734950240E+04    0.44302E+01   -0.13161E+00 27768   0.242E+00    0.132E+01
RMM:   8    -0.231766675573E+04   -0.31725E+00   -0.74045E-01 27815   0.183E+00    0.163E+01
RMM:   9    -0.231695725963E+04    0.70950E+00   -0.49477E-01 29686   0.123E+00    0.114E+01
RMM:  10    -0.231693139927E+04    0.25860E-01   -0.72251E-01 28090   0.163E+00    0.109E+01
RMM:  11    -0.231659487970E+04    0.33652E+00   -0.37083E-01 27731   0.138E+00    0.764E+00
RMM:  12    -0.231634552570E+04    0.24935E+00   -0.14542E-01 27798   0.922E-01    0.369E+00
RMM:  13    -0.231630774734E+04    0.37778E-01   -0.92227E-02 30448   0.496E-01    0.274E+00
RMM:  14    -0.231630152724E+04    0.62201E-02   -0.10522E-01 33663   0.449E-01    0.237E+00
RMM:  15    -0.231628179406E+04    0.19733E-01   -0.31994E-02 27970   0.380E-01    0.146E+00
RMM:  16    -0.231628009441E+04    0.16997E-02   -0.30304E-02 35180   0.225E-01    0.128E+00
RMM:  17    -0.231627784614E+04    0.22483E-02   -0.19193E-02 32707   0.199E-01    0.106E+00
RMM:  18    -0.231627441489E+04    0.34313E-02   -0.76116E-03 29979   0.161E-01    0.690E-01
RMM:  19    -0.231627489251E+04   -0.47762E-03   -0.93825E-03 33644   0.133E-01    0.707E-01
RMM:  20    -0.231627379786E+04    0.10946E-02   -0.37391E-03 29593   0.114E-01    0.527E-01
RMM:  21    -0.231627349297E+04    0.30489E-03   -0.27053E-03 32456   0.750E-02    0.442E-01
RMM:  22    -0.231627322341E+04    0.26956E-03   -0.25133E-03 36422   0.578E-02    0.349E-01
RMM:  23    -0.231627290969E+04    0.31372E-03   -0.86693E-04 31417   0.460E-02    0.250E-01
RMM:  24    -0.231627288718E+04    0.22512E-04   -0.79018E-04 38030   0.282E-02    0.217E-01
RMM:  25    -0.231627275895E+04    0.12823E-03   -0.38837E-04 34961   0.243E-02    0.137E-01
RMM:  26    -0.231627271132E+04    0.47636E-04   -0.14901E-04 31341   0.191E-02    0.926E-02
RMM:  27    -0.231627271707E+04   -0.57560E-05   -0.17743E-04 38825   0.135E-02    0.873E-02
RMM:  28    -0.231627269841E+04    0.18661E-04   -0.74294E-05 32905   0.116E-02    0.569E-02
RMM:  29    -0.231627269476E+04    0.36472E-05   -0.41810E-05 33326   0.822E-03    0.467E-02
RMM:  30    -0.231627269222E+04    0.25457E-05   -0.31924E-05 34656   0.550E-03    0.365E-02
RMM:  31    -0.231627268719E+04    0.50258E-05   -0.99192E-06 25597   0.481E-03    0.180E-02
RMM:  32    -0.231627268709E+04    0.10361E-06   -0.50356E-06 20670   0.373E-03
   5 F= -.23162727E+04 E0= -.23133806E+04  d E =-.110508E+01
