unknown system                          
           1
     9.726678    0.000000    0.000000
     0.000000    8.423550    0.000000
     0.000000    0.000000   45.000000
   Fe   Mn
 281   7
Direct configuration=     1
   0.05382795  0.70106963  0.21131426
   0.31734689  0.72346111  0.87613762
   0.68833343  0.95878347  0.61149394
   0.43845795  0.45871596  0.61158570
   0.44076475  0.28736369  0.25503763
   0.05864486  0.38762708  0.83355454
   0.30844522  0.88777295  0.83348461
   0.44688167  0.62643811  0.70041232
   0.05957730  0.21231662  0.74490182
   0.17914545  0.45127242  0.21130644
   0.56763625  0.21046499  0.47748325
   0.06663750  0.87490896  0.56686931
   0.56794772  0.22302573  0.87614341
   0.80886828  0.52805166  0.12388526
   0.42919025  0.95154759  0.21139563
   0.56668210  0.37509561  0.56686568
   0.81166959  0.04197615  0.38832028
   0.68198662  0.78868721  0.52240938
   0.44269626  0.46056073  0.47745765
   0.43411007  0.96262011  0.74492410
   0.44166966  0.62492639  0.56690444
   0.57172446  0.87626830  0.70053852
   0.30910819  0.02587105  0.12389115
   0.68984359  0.95863089  0.34399166
   0.68789246  0.78197550  0.12420871
   0.05253167  0.37384264  0.29958139
   0.69006908  0.46835420  0.87604488
   0.42894787  0.45123233  0.21136946
   0.80825647  0.37519854  0.43315249
   0.56365101  0.70872310  0.61157944
   0.55960920  0.54066518  0.65587566
   0.81785017  0.86182469  0.16669090
   0.56564785  0.53725118  0.25513425
   0.68982382  0.45907810  0.34401846
   0.19156925  0.61140942  0.16631552
   0.19474887  0.79933052  0.78880437
   0.44700114  0.12635599  0.70040368
   0.92773032  0.62346732  0.29964629
   0.31736118  0.22321002  0.87615303
   0.31672339  0.87481285  0.56686100
   0.81743264  0.22353620  0.87613213
   0.80964976  0.54071541  0.65585028
   0.55926079  0.52675404  0.12384536
   0.56939808  0.04970928  0.78890348
   0.19035046  0.28721731  0.25505859
   0.80854580  0.87499190  0.43311980
   0.57199513  0.37638915  0.70040318
   0.05728005  0.02661331  0.12406923
   0.30974574  0.54056800  0.65596242
   0.56534980  0.20895347  0.34400894
   0.18847262  0.95866542  0.61147828
   0.30290495  0.37391557  0.29958354
   0.43468903  0.79042627  0.65599473
   0.19488956  0.29905798  0.78884481
   0.06742986  0.36303598  0.16664739
   0.69694859  0.62631224  0.70045250
   0.31175017  0.54108447  0.38847547
   0.06753056  0.72361669  0.87613304
   0.93353023  0.63755080  0.83359658
   0.31988854  0.54965058  0.78891879
   0.30474561  0.20028873  0.21113652
   0.06793895  0.71053611  0.47739984
   0.55459518  0.20064826  0.21109481
   0.30957097  0.21243494  0.74496481
   0.07166813  0.37659827  0.70052692
   0.18354969  0.63767650  0.83353418
   0.06967709  0.04964153  0.78898960
   0.44167475  0.12511227  0.56691047
   0.93473842  0.29067225  0.65584200
   0.80439732  0.20143102  0.21115309
   0.92950848  0.95142612  0.21127920
   0.94171030  0.62510712  0.56682087
   0.80833279  0.38765296  0.83346554
   0.19707756  0.62628725  0.70038062
   0.80855226  0.88771361  0.83348001
   0.68475783  0.29050319  0.65598707
   0.31321631  0.20851928  0.61150237
   0.43436017  0.46292526  0.74480787
   0.43596867  0.79080143  0.38840351
   0.68441118  0.96271375  0.74492203
   0.80375991  0.70105392  0.21130097
   0.81359686  0.70882277  0.61160019
   0.43745277  0.78366155  0.12398304
   0.30963986  0.71235075  0.74486678
   0.31999356  0.04955510  0.78883108
   0.81121563  0.54155079  0.38833899
   0.68223803  0.28859827  0.52239558
   0.69484293  0.79916018  0.78882192
   0.19092636  0.78772489  0.25517297
   0.69161934  0.11244042  0.16653707
   0.69274526  0.96076445  0.47749100
   0.94060316  0.95945230  0.34410528
   0.80716887  0.03915116  0.52255399
   0.68355522  0.62474613  0.43302933
   0.43985915  0.45875665  0.34405318
   0.80979377  0.21251128  0.74481635
   0.43977057  0.96853607  0.87601183
   0.56671934  0.87496684  0.56686089
   0.80921473  0.02810486  0.12395818
   0.42797797  0.62381386  0.29940564
   0.81734949  0.72342203  0.87618893
   0.68836862  0.45858971  0.61149100
   0.55841739  0.38743638  0.83346599
   0.80336293  0.37324549  0.29944894
   0.18612145  0.29074944  0.38840723
   0.81961696  0.54961437  0.78899333
   0.18230928  0.78919091  0.52255193
   0.30313171  0.87376042  0.29960726
   0.17835429  0.95134739  0.21129960
   0.18446514  0.46279078  0.74492759
   0.43218316  0.28889345  0.52235176
   0.06503068  0.70851946  0.34389430
   0.18478991  0.79057817  0.65590034
   0.44499146  0.79922597  0.78880036
   0.68352779  0.12521936  0.43304400
   0.93219232  0.78859182  0.52246475
   0.69180173  0.61266127  0.16666285
   0.81437215  0.70849187  0.34378967
   0.93444493  0.46260756  0.74491028
   0.18975183  0.45835958  0.34393934
   0.56957564  0.54967634  0.78900898
   0.56668414  0.36255874  0.16646685
   0.56460570  0.70891373  0.34394673
   0.55285765  0.37368833  0.29955753
   0.18974483  0.46833982  0.87599839
   0.19170694  0.11112774  0.16635732
   0.44489517  0.29933657  0.78880746
   0.69113548  0.78755874  0.25539535
   0.93351921  0.13769556  0.83350546
   0.44275417  0.96071467  0.47753097
   0.56748009  0.72350433  0.87617923
   0.19251385  0.46070561  0.47749075
   0.93437509  0.28189699  0.12412003
   0.31143203  0.04144498  0.38838091
   0.05980142  0.04072258  0.65591787
   0.55821010  0.37496607  0.43304812
   0.68415731  0.46269112  0.74493586
   0.55967456  0.21252525  0.74482875
   0.94707115  0.12629518  0.70045072
   0.55947901  0.04076843  0.65588090
   0.55728685  0.53920446  0.52255247
   0.17774909  0.12387080  0.29961232
   0.44181186  0.11058458  0.16639485
   0.67763437  0.62357283  0.29962313
   0.92765828  0.12358877  0.29964390
   0.81661045  0.37498727  0.56691867
   0.05292057  0.87404583  0.29955139
   0.19148384  0.62495167  0.56690253
   0.94497557  0.79953984  0.78869657
   0.30830161  0.38754311  0.83349562
   0.93978815  0.46862310  0.87600471
   0.43369237  0.63788483  0.83353180
   0.06975314  0.54942502  0.78891095
   0.18987198  0.96847600  0.87600627
   0.93466521  0.78190110  0.12414648
   0.68680438  0.79120267  0.38842877
   0.93469667  0.79060853  0.65590131
   0.94142960  0.11219109  0.16643559
   0.43491749  0.29071764  0.65600327
   0.05486502  0.20071982  0.21122547
   0.67891788  0.95137784  0.21132213
   0.17814892  0.62416287  0.29940013
   0.82211037  0.87625142  0.70046457
   0.94675441  0.62645084  0.70043999
   0.19694893  0.12624232  0.70043317
   0.94263069  0.46048250  0.47725543
   0.81336781  0.20862327  0.61156628
   0.18332996  0.62501740  0.43313653
   0.42781735  0.12402135  0.29953929
   0.67761389  0.12382641  0.29954815
   0.56179875  0.54159554  0.38849628
   0.81454315  0.20803326  0.34397832
   0.44005610  0.46840916  0.87598800
   0.55856701  0.88770927  0.83349258
   0.31784722  0.21040585  0.47733989
   0.19266481  0.96076562  0.47747957
   0.05842215  0.88774821  0.83354022
   0.05724878  0.53925204  0.52253541
   0.94267874  0.96053875  0.47734171
   0.06349710  0.70841848  0.61157641
   0.55727811  0.03914484  0.52250784
   0.69484992  0.29923093  0.78881634
   0.81764903  0.36169691  0.16671218
   0.43335947  0.12465007  0.43309049
   0.06799850  0.21079146  0.47746571
   0.30980889  0.04063115  0.65592559
   0.43222291  0.78883167  0.52235917
   0.18356250  0.13786010  0.83354376
   0.18565027  0.28289165  0.12424482
   0.94060459  0.45931804  0.34408318
   0.56656611  0.86246663  0.16644674
   0.30445955  0.70069623  0.21126407
   0.94135267  0.61224465  0.16649933
   0.18843820  0.45874188  0.61153822
   0.07222622  0.87640021  0.70042323
   0.05970816  0.54057816  0.65590989
   0.30807082  0.52617866  0.12395492
   0.93674024  0.79128577  0.38856359
   0.94478047  0.29895761  0.78879275
   0.18456255  0.29049062  0.65590265
   0.93821626  0.95846134  0.61150926
   0.80976898  0.71237862  0.74491141
   0.69115674  0.28786092  0.25530419
   0.05944077  0.71263814  0.74483557
   0.67903547  0.45129565  0.21126153
   0.81779908  0.21047117  0.47756410
   0.56762799  0.71046139  0.47750838
   0.06784311  0.86330686  0.16666518
   0.93226193  0.28852461  0.52246631
   0.68445086  0.79032674  0.65593031
   0.05793089  0.87469228  0.43309680
   0.06771013  0.22383043  0.87609734
   0.80972246  0.04047796  0.65591975
   0.55966152  0.02687561  0.12385315
   0.30850125  0.37528519  0.43306335
   0.31678487  0.37482410  0.56687844
   0.31770297  0.71049928  0.47732842
   0.05719262  0.03917200  0.52255264
   0.32167419  0.87646524  0.70055193
   0.06516067  0.53754520  0.25496781
   0.68367195  0.13754865  0.83351436
   0.81467526  0.03729771  0.25515504
   0.18348973  0.12515824  0.43311582
   0.69705913  0.12646597  0.70042595
   0.18228293  0.28934676  0.52257748
   0.44068055  0.78770193  0.25529166
   0.44147986  0.61036987  0.16642751
   0.06348714  0.20847967  0.61157045
   0.18609280  0.79109180  0.38835153
   0.30706536  0.53880965  0.52243066
   0.82183205  0.37646317  0.70039962
   0.68624716  0.29102792  0.38838371
   0.19166511  0.12499770  0.56689761
   0.68971674  0.96854924  0.87604743
   0.69145338  0.12497305  0.56690692
   0.44032860  0.95861207  0.34403220
   0.18400930  0.96267925  0.74490716
   0.94059013  0.78771805  0.25515826
   0.55830659  0.87498895  0.43305401
   0.30849408  0.87525258  0.43310580
   0.80720515  0.53939784  0.52258694
   0.92930312  0.45113852  0.21128033
   0.31526492  0.53785719  0.25506216
   0.56195462  0.04155496  0.38846275
   0.93818346  0.45831853  0.61163452
   0.06196705  0.04174644  0.38840601
   0.06142053  0.54113566  0.38841163
   0.43628313  0.29114822  0.38835883
   0.69272034  0.46067417  0.47739233
   0.06681745  0.37507470  0.56687394
   0.55425552  0.70080989  0.21108009
   0.94075001  0.28730787  0.25521786
   0.81948764  0.04990481  0.78899830
   0.19011799  0.95868763  0.34401445
   0.55280626  0.87383627  0.29964181
   0.05852213  0.37472275  0.43306725
   0.31503367  0.70892366  0.34404439
   0.31454447  0.20889733  0.34391338
   0.94153033  0.12512377  0.56681804
   0.43853232  0.95871528  0.61158376
   0.56511454  0.03749179  0.25505207
   0.18604320  0.78271353  0.12424489
   0.06572174  0.03741783  0.25520403
   0.69154530  0.62490758  0.56693266
   0.05688397  0.52630034  0.12414057
   0.30706011  0.03868665  0.52232798
   0.68746825  0.28217470  0.12414573
   0.81768429  0.71076724  0.47749404
   0.43351213  0.13767561  0.83351899
   0.32194881  0.37622611  0.70052283
   0.68354101  0.63765446  0.83352584
   0.55983480  0.71221140  0.74483172
   0.93635644  0.29143239  0.38847094
   0.93979803  0.96865899  0.87604536
   0.56299973  0.20823117  0.61146805
   0.81654659  0.87501233  0.56691624
   0.80334085  0.87311605  0.29938531
   0.31540913  0.03758011  0.25519644
   0.43723471  0.28371414  0.12403495
   0.31361142  0.70865620  0.61157727
   0.43346176  0.62495276  0.43298656
   0.93281336  0.62534224  0.43328437
   0.31805583  0.86261201  0.16573966
   0.06524917  0.20810450  0.34380160
   0.93328170  0.12561284  0.43324312
   0.31836417  0.36302382  0.16579271
   0.93340155  0.96248789  0.74464428
   0.81592313  0.53750988  0.25538946
Direct configuration=     2
   0.05444705  0.70104956  0.21128112
   0.31707159  0.72300513  0.87607057
   0.68834539  0.95867739  0.61148535
   0.43843264  0.45862425  0.61156894
   0.44016371  0.28726722  0.25510485
   0.05898787  0.38750503  0.83362830
   0.30881029  0.88759461  0.83357458
   0.44622261  0.62647048  0.70040808
   0.06014052  0.21245597  0.74483891
   0.17962601  0.45127669  0.21128491
   0.56710397  0.21027950  0.47753737
   0.06629399  0.87490241  0.56687284
   0.56760492  0.22261283  0.87607048
   0.80905625  0.52838659  0.12397237
   0.42976309  0.95151369  0.21136849
   0.56634114  0.37501777  0.56685278
   0.81171447  0.04197527  0.38833880
   0.68255296  0.78901213  0.52237888
   0.44212764  0.46034450  0.47750647
   0.43465415  0.96267385  0.74484847
   0.44129407  0.62489683  0.56689371
   0.57108680  0.87632252  0.70051498
   0.30934751  0.02655788  0.12392357
   0.68943440  0.95847207  0.34399725
   0.68788054  0.78164932  0.12426888
   0.05324815  0.37376793  0.29957535
   0.68991159  0.46875293  0.87596533
   0.42955555  0.45123793  0.21133400
   0.80860086  0.37523315  0.43314059
   0.56359141  0.70864615  0.61157110
   0.56008345  0.54073506  0.65586965
   0.81736567  0.86210930  0.16659497
   0.56495642  0.53724226  0.25518954
   0.68939505  0.45897176  0.34403158
   0.19115323  0.61161422  0.16629685
   0.19428628  0.79929617  0.78880981
   0.44632525  0.12637035  0.70040794
   0.92846720  0.62347526  0.29965402
   0.31707081  0.22279101  0.87608279
   0.31633340  0.87479080  0.56685105
   0.81712802  0.22305230  0.87606915
   0.81010179  0.54083983  0.65584425
   0.55937613  0.52717305  0.12392897
   0.56903694  0.04969677  0.78891628
   0.18985070  0.28718695  0.25512093
   0.80883216  0.87507008  0.43311038
   0.57129962  0.37643894  0.70040809
   0.05784069  0.02696472  0.12411929
   0.31019335  0.54065622  0.65594267
   0.56483030  0.20883970  0.34403772
   0.18844280  0.95856559  0.61146899
   0.30356372  0.37391161  0.29957308
   0.43513829  0.79061712  0.65597261
   0.19446093  0.29908456  0.78884701
   0.06695512  0.36307929  0.16654842
   0.69624778  0.62636431  0.70044003
   0.31172590  0.54116760  0.38847350
   0.06722581  0.72313103  0.87607499
   0.93397319  0.63743209  0.83367193
   0.31944405  0.54961914  0.78892664
   0.30515125  0.20028523  0.21112432
   0.06736897  0.71033340  0.47746893
   0.55501230  0.20070548  0.21109232
   0.31009241  0.21260837  0.74488837
   0.07105027  0.37663437  0.70051197
   0.18396750  0.63759697  0.83360215
   0.06927012  0.04961824  0.78898564
   0.44128983  0.12503329  0.56690183
   0.93518859  0.29083343  0.65583118
   0.80484623  0.20138807  0.21114271
   0.92994368  0.95146593  0.21127952
   0.94131897  0.62508178  0.56681969
   0.80870606  0.38750030  0.83356622
   0.19638255  0.62634682  0.70038053
   0.80893414  0.88753505  0.83358147
   0.68521058  0.29063010  0.65596469
   0.31325211  0.20847043  0.61150086
   0.43489202  0.46291236  0.74475992
   0.43609885  0.79093219  0.38841476
   0.68488806  0.96274464  0.74485411
   0.80430483  0.70100696  0.21127512
   0.81354615  0.70870081  0.61157667
   0.43739238  0.78305666  0.12402410
   0.31015520  0.71243040  0.74480029
   0.31953264  0.04955173  0.78885682
   0.81129556  0.54161713  0.38835929
   0.68276584  0.28896476  0.52236667
   0.69443864  0.79916529  0.78882977
   0.19033032  0.78773446  0.25522052
   0.69124986  0.11258231  0.16648590
   0.69216068  0.96051036  0.47754804
   0.94007471  0.95929703  0.34411005
   0.80773007  0.03933650  0.52249873
   0.68374809  0.62482525  0.43303594
   0.43943622  0.45873803  0.34406908
   0.81030662  0.21263626  0.74475920
   0.43966928  0.96890843  0.87593929
   0.56635703  0.87490295  0.56684998
   0.80939736  0.02834505  0.12403457
   0.42859719  0.62373918  0.29944389
   0.81706037  0.72297424  0.87612059
   0.68836691  0.45850355  0.61148208
   0.55880143  0.38736033  0.83356627
   0.80397858  0.37321910  0.29948807
   0.18615444  0.29089325  0.38841550
   0.81924031  0.54958197  0.78898914
   0.18287607  0.78941357  0.52249989
   0.30379850  0.87373057  0.29961066
   0.17898522  0.95135669  0.21129303
   0.18504952  0.46279138  0.74485678
   0.43274012  0.28915496  0.52231537
   0.06459811  0.70850782  0.34394694
   0.18525555  0.79068074  0.65588169
   0.44454213  0.79919926  0.78880418
   0.68374274  0.12517606  0.43304768
   0.93275925  0.78884454  0.52243072
   0.69139190  0.61275286  0.16658413
   0.81396818  0.70846025  0.34386353
   0.93497775  0.46266296  0.74484307
   0.18935798  0.45838661  0.34396659
   0.56920278  0.54963051  0.78900226
   0.56647338  0.36271924  0.16636537
   0.56418173  0.70881539  0.34399719
   0.55355568  0.37362813  0.29956484
   0.18967184  0.46876322  0.87593193
   0.19129675  0.11134703  0.16631762
   0.44445226  0.29931396  0.78881415
   0.69041251  0.78747300  0.25540859
   0.93396779  0.13756011  0.83358719
   0.44219208  0.96046474  0.47757036
   0.56717644  0.72304100  0.87610943
   0.19196913  0.46048729  0.47754394
   0.93466033  0.28156837  0.12418671
   0.31145908  0.04148094  0.38839288
   0.06023467  0.04079332  0.65590074
   0.55862118  0.37498961  0.43305087
   0.68464733  0.46271601  0.74486620
   0.56020879  0.21268042  0.74477278
   0.94639909  0.12639094  0.70043501
   0.55998632  0.04082031  0.65587502
   0.55781425  0.53942434  0.52249369
   0.17842326  0.12379577  0.29960931
   0.44134660  0.11081370  0.16634009
   0.67827890  0.62355284  0.29963028
   0.92830478  0.12348538  0.29963683
   0.81626440  0.37495787  0.56691589
   0.05360940  0.87395123  0.29956928
   0.19116568  0.62493848  0.56690208
   0.94450968  0.79947625  0.78871861
   0.30871750  0.38743666  0.83358711
   0.93967495  0.46905739  0.87592538
   0.43410352  0.63772247  0.83360906
   0.06931829  0.54943052  0.78891623
   0.18975476  0.96886344  0.87593558
   0.93491277  0.78157924  0.12421003
   0.68673810  0.79132139  0.38843489
   0.93517668  0.79074922  0.65589045
   0.94101839  0.11238664  0.16639456
   0.43532518  0.29081766  0.65598029
   0.05536213  0.20077336  0.21120671
   0.67948743  0.95140382  0.21131806
   0.17876642  0.62404737  0.29943411
   0.82135923  0.87631532  0.70044940
   0.94612031  0.62651006  0.70043674
   0.19624275  0.12631945  0.70043139
   0.94210781  0.46025798  0.47734731
   0.81334394  0.20854097  0.61154686
   0.18383648  0.62502358  0.43312501
   0.42851901  0.12392269  0.29954951
   0.67829660  0.12366548  0.29955526
   0.56172032  0.54158953  0.38849151
   0.81411639  0.20804923  0.34402464
   0.43992309  0.46879779  0.87591548
   0.55893043  0.88757186  0.83358774
   0.31729060  0.21023269  0.47741940
   0.19207586  0.96051150  0.47753715
   0.05879597  0.88758529  0.83362490
   0.05779707  0.53940659  0.52247101
   0.94215418  0.96030763  0.47741687
   0.06348520  0.70836312  0.61155786
   0.55780478  0.03938264  0.52245268
   0.69438407  0.29922399  0.78881983
   0.81719365  0.36197535  0.16661139
   0.43371015  0.12470907  0.43308099
   0.06741705  0.21050921  0.47753406
   0.31024739  0.04073374  0.65591109
   0.43276929  0.78907741  0.52232427
   0.18402884  0.13775250  0.83362216
   0.18570544  0.28233528  0.12427270
   0.94000720  0.45920775  0.34409356
   0.56643334  0.86267307  0.16635566
   0.30489491  0.70062634  0.21123586
   0.94087509  0.61240306  0.16645880
   0.18842816  0.45863175  0.61152405
   0.07153007  0.87640938  0.70041007
   0.06017209  0.54070591  0.65590416
   0.30844013  0.52680326  0.12396964
   0.93665000  0.79135158  0.38854951
   0.94436097  0.29896165  0.78879800
   0.18503801  0.29063047  0.65589890
   0.93825492  0.95839726  0.61150578
   0.81025326  0.71245511  0.74485030
   0.69044830  0.28773869  0.25532520
   0.06004889  0.71270979  0.74477579
   0.67959067  0.45130010  0.21126271
   0.81723062  0.21024741  0.47761007
   0.56708266  0.71027261  0.47755897
   0.06724313  0.86337388  0.16656872
   0.93282391  0.28881082  0.52243380
   0.68491464  0.79049315  0.65591066
   0.05841427  0.87470730  0.43309152
   0.06740010  0.22330642  0.87604755
   0.81019080  0.04060347  0.65590385
   0.55974188  0.02724831  0.12392934
   0.30883963  0.37526764  0.43307884
   0.31638631  0.37480913  0.56686539
   0.31716187  0.71031647  0.47740194
   0.05776247  0.03937154  0.52248660
   0.32106704  0.87649575  0.70053188
   0.06471370  0.53752323  0.25504479
   0.68405304  0.13749271  0.83359918
   0.81419495  0.03721822  0.25519644
   0.18392760  0.12514570  0.43310805
   0.69638211  0.12648187  0.70041759
   0.18286257  0.28953593  0.52252756
   0.44009826  0.78762736  0.25531910
   0.44107668  0.61067465  0.16636999
   0.06345065  0.20842237  0.61155075
   0.18614412  0.79112484  0.38835911
   0.30766420  0.53911878  0.52238603
   0.82116627  0.37652519  0.70040068
   0.68627534  0.29116936  0.38840029
   0.19130617  0.12495147  0.56689102
   0.68962899  0.96890613  0.87596716
   0.69112593  0.12493863  0.56690256
   0.43982652  0.95855462  0.34405353
   0.18461934  0.96271244  0.74484187
   0.94003837  0.78768396  0.25521349
   0.55869542  0.87501679  0.43305047
   0.30880611  0.87520008  0.43310193
   0.80775260  0.53951818  0.52251963
   0.92978177  0.45119770  0.21128332
   0.31473568  0.53768538  0.25514189
   0.56187199  0.04153491  0.38846080
   0.93821416  0.45825876  0.61161427
   0.06192202  0.04168269  0.38841940
   0.06144049  0.54120184  0.38841399
   0.43632431  0.29121822  0.38837586
   0.69215299  0.46043466  0.47746567
   0.06642955  0.37503652  0.56687762
   0.55472527  0.70080249  0.21109036
   0.94016972  0.28722257  0.25526348
   0.81912008  0.04981119  0.78898322
   0.18968960  0.95858815  0.34403853
   0.55353622  0.87377029  0.29964399
   0.05888713  0.37473820  0.43305781
   0.31462438  0.70874380  0.34406212
   0.31423012  0.20877134  0.34395346
   0.94118056  0.12509134  0.56681655
   0.43848243  0.95862638  0.61156719
   0.56451333  0.03744625  0.25512441
   0.18607657  0.78220101  0.12425996
   0.06515119  0.03739568  0.25524758
   0.69119504  0.62487853  0.56692417
   0.05746580  0.52671055  0.12417865
   0.30763609  0.03902705  0.52229910
   0.68749123  0.28183542  0.12421430
   0.81711984  0.71050720  0.47755170
   0.43395895  0.13755569  0.83359136
   0.32125454  0.37629047  0.70050712
   0.68399809  0.63755385  0.83360388
   0.56033161  0.71230226  0.74477360
   0.93633092  0.29157254  0.38848157
   0.93967559  0.96902467  0.87596616
   0.56306386  0.20823959  0.61147170
   0.81621208  0.87498198  0.56691233
   0.80391686  0.87316811  0.29941608
   0.31483373  0.03745616  0.25524474
   0.43718159  0.28313907  0.12406999
   0.31356020  0.70857161  0.61156192
   0.43374190  0.62499928  0.43299637
   0.93322613  0.62528716  0.43325932
   0.31765079  0.86272377  0.16570879
   0.06480406  0.20814962  0.34384827
   0.93362119  0.12553055  0.43322912
   0.31789507  0.36304302  0.16575499
   0.93399779  0.96257215  0.74463603
   0.81535167  0.53740873  0.25538863
Direct configuration=     3
   0.05630433  0.70098936  0.21118171
   0.31624570  0.72163719  0.87586943
   0.68838129  0.95835914  0.61145958
   0.43835670  0.45834911  0.61151867
   0.43836061  0.28697783  0.25530650
   0.06001689  0.38713891  0.83384958
   0.30990552  0.88705960  0.83384448
   0.44424544  0.62656758  0.70039534
   0.06183021  0.21287402  0.74465017
   0.18106770  0.45128952  0.21122033
   0.56550714  0.20972303  0.47769972
   0.06526345  0.87488275  0.56688344
   0.56657654  0.22137410  0.87585167
   0.80962016  0.52939140  0.12423370
   0.43148161  0.95141200  0.21128706
   0.56531828  0.37478426  0.56681408
   0.81184912  0.04197264  0.38839435
   0.68425199  0.78998688  0.52228736
   0.44042178  0.45969578  0.47765292
   0.43628638  0.96283506  0.74462158
   0.44016732  0.62480817  0.56686153
   0.56917381  0.87648518  0.70044435
   0.31006549  0.02861839  0.12402083
   0.68820683  0.95799560  0.34401403
   0.68784477  0.78067076  0.12444939
   0.05539759  0.37354381  0.29955726
   0.68943915  0.46994912  0.87572668
   0.43137856  0.45125472  0.21122763
   0.80963404  0.37533698  0.43310487
   0.56341261  0.70841530  0.61154609
   0.56150619  0.54094467  0.65585159
   0.81591215  0.86296311  0.16630717
   0.56288211  0.53721550  0.25535542
   0.68810873  0.45865276  0.34407093
   0.18990515  0.61222864  0.16624085
   0.19289853  0.79919314  0.78882613
   0.44429759  0.12641344  0.70042069
   0.93067781  0.62349908  0.29967721
   0.31619969  0.22153396  0.87587206
   0.31516345  0.87472464  0.56682120
   0.81621414  0.22160060  0.87588019
   0.81145788  0.54121309  0.65582616
   0.55972215  0.52843007  0.12417982
   0.56795349  0.04965925  0.78895468
   0.18835141  0.28709589  0.25530793
   0.80969124  0.87530459  0.43308213
   0.56921310  0.37658829  0.70042284
   0.05952262  0.02801895  0.12426946
   0.31153620  0.54092088  0.65588344
   0.56327181  0.20849841  0.34412408
   0.18835336  0.95826610  0.61144112
   0.30554000  0.37389972  0.29954172
   0.43648608  0.79118967  0.65590623
   0.19317503  0.29916430  0.78885359
   0.06553090  0.36320925  0.16625153
   0.69414535  0.62652052  0.70040261
   0.31165308  0.54141698  0.38846757
   0.06631157  0.72167404  0.87590082
   0.93530207  0.63707594  0.83389800
   0.31811055  0.54952483  0.78895017
   0.30636817  0.20027474  0.21108773
   0.06565903  0.70972527  0.47767619
   0.55626367  0.20087715  0.21108485
   0.31165672  0.21312867  0.74465906
   0.06919668  0.37674266  0.70046712
   0.18522092  0.63735841  0.83380605
   0.06804920  0.04954837  0.78897375
   0.44013507  0.12479635  0.56687593
   0.93653907  0.29131696  0.65579873
   0.80619297  0.20125921  0.21111158
   0.93124929  0.95158538  0.21128049
   0.94014500  0.62500577  0.56681618
   0.80982585  0.38704232  0.83386827
   0.19429751  0.62652553  0.70038027
   0.81007978  0.88699939  0.83388586
   0.68656885  0.29101082  0.65589754
   0.31335949  0.20832391  0.61149633
   0.43648757  0.46287366  0.74461606
   0.43648940  0.79132450  0.38844852
   0.68631869  0.96283732  0.74465036
   0.80593959  0.70086606  0.21119755
   0.81339401  0.70833493  0.61150612
   0.43721120  0.78124199  0.12414730
   0.31170124  0.71266933  0.74460081
   0.31814986  0.04954162  0.78893402
   0.81153536  0.54181615  0.38842019
   0.68434926  0.29006424  0.52227996
   0.69322576  0.79918064  0.78885333
   0.18854219  0.78776317  0.25536316
   0.69014141  0.11300797  0.16633236
   0.69040695  0.95974810  0.47771915
   0.93848937  0.95883124  0.34412435
   0.80941366  0.03989252  0.52233295
   0.68432671  0.62506260  0.43305577
   0.43816741  0.45868217  0.34411678
   0.81184516  0.21301119  0.74458773
   0.43936541  0.97002549  0.87572170
   0.56527011  0.87471127  0.56681726
   0.80994524  0.02906560  0.12426375
   0.43045487  0.62351515  0.29955865
   0.81619302  0.72163086  0.87591558
   0.68836179  0.45824508  0.61145533
   0.55995355  0.38713216  0.83386710
   0.80582553  0.37313992  0.29960548
   0.18625341  0.29132469  0.38844032
   0.81811038  0.54948476  0.78897658
   0.18457641  0.79008156  0.52234377
   0.30579887  0.87364101  0.29962088
   0.18087804  0.95138460  0.21127333
   0.18680265  0.46279320  0.74464434
   0.43441099  0.28993948  0.52220622
   0.06330040  0.70847289  0.34410485
   0.18665248  0.79098846  0.65582575
   0.44319412  0.79911914  0.78881564
   0.68438758  0.12504614  0.43305870
   0.93446002  0.78960268  0.52232862
   0.69016241  0.61302761  0.16634797
   0.81275626  0.70836537  0.34408511
   0.93657623  0.46282914  0.74464146
   0.18817643  0.45846769  0.34404832
   0.56808420  0.54949305  0.78898210
   0.56584109  0.36320074  0.16606092
   0.56290982  0.70852038  0.34414856
   0.55564977  0.37344754  0.29958678
   0.18945285  0.47003340  0.87573257
   0.19006616  0.11200491  0.16619854
   0.44312356  0.29924614  0.78883424
   0.68824359  0.78721577  0.25544834
   0.93531353  0.13715376  0.83383237
   0.44050580  0.95971496  0.47768854
   0.56626550  0.72165102  0.87590003
   0.19033496  0.45983232  0.47770350
   0.93551604  0.28058251  0.12438673
   0.31154024  0.04158881  0.38842882
   0.06153445  0.04100555  0.65584936
   0.55985444  0.37506023  0.43305911
   0.68611739  0.46279071  0.74465722
   0.56181148  0.21314594  0.74460487
   0.94438290  0.12667821  0.70038788
   0.56150828  0.04097595  0.65585738
   0.55939645  0.54008398  0.52231737
   0.18044575  0.12357068  0.29960030
   0.43995082  0.11150103  0.16617581
   0.68021250  0.62349289  0.29965172
   0.93024428  0.12317521  0.29961562
   0.81522625  0.37486966  0.56690755
   0.05567588  0.87366744  0.29962296
   0.19021120  0.62489890  0.56690071
   0.94311199  0.79928551  0.78878470
   0.30996518  0.38711731  0.83386158
   0.93933533  0.47036025  0.87568740
   0.43533697  0.63723540  0.83384083
   0.06801374  0.54944701  0.78893206
   0.18940309  0.97002574  0.87572349
   0.93565542  0.78061367  0.12440070
   0.68653926  0.79167755  0.38845324
   0.93661671  0.79117132  0.65585788
   0.93978475  0.11297328  0.16627150
   0.43654826  0.29111774  0.65591136
   0.05685345  0.20093401  0.21115042
   0.68119610  0.95148177  0.21130584
   0.18061890  0.62370089  0.29953604
   0.81910582  0.87650704  0.70040389
   0.94421803  0.62668771  0.70042696
   0.19412418  0.12655083  0.70042605
   0.94053915  0.45958444  0.47762298
   0.81327232  0.20829407  0.61148860
   0.18535605  0.62504212  0.43309044
   0.43062396  0.12362671  0.29958015
   0.68034473  0.12318269  0.29957659
   0.56148504  0.54157152  0.38847721
   0.81283610  0.20809713  0.34416360
   0.43952405  0.46996369  0.87569792
   0.56002069  0.88715961  0.83387322
   0.31562071  0.20971321  0.47765793
   0.19030898  0.95974916  0.47770990
   0.05991743  0.88709654  0.83387896
   0.05944196  0.53987026  0.52227782
   0.94058050  0.95961428  0.47764235
   0.06344951  0.70819704  0.61150221
   0.55938479  0.04009605  0.52228723
   0.69298654  0.29920318  0.78883028
   0.81582753  0.36281069  0.16630902
   0.43476221  0.12488606  0.43305251
   0.06567271  0.20966248  0.47773914
   0.31156288  0.04104151  0.65586758
   0.43440843  0.78981463  0.52221956
   0.18542785  0.13742971  0.83385736
   0.18587094  0.28066617  0.12435633
   0.93821505  0.45887689  0.34412469
   0.56603504  0.86329239  0.16608240
   0.30620099  0.70041667  0.21115121
   0.93944236  0.61287828  0.16633720
   0.18839803  0.45830135  0.61148153
   0.06944162  0.87643689  0.70037057
   0.06156387  0.54108916  0.65588698
   0.30954808  0.52867708  0.12401382
   0.93637928  0.79154901  0.38850727
   0.94310248  0.29897379  0.78881373
   0.18646441  0.29105003  0.65588766
   0.93837088  0.95820503  0.61149534
   0.81170608  0.71268457  0.74466697
   0.68832300  0.28737199  0.25538822
   0.06187323  0.71292473  0.74459647
   0.68125626  0.45131344  0.21126626
   0.81552523  0.20957614  0.47774796