 288 288   0   0
  0.1280206E+02  0.9726678E-09  0.8423550E-09  0.4500000E-08  0.2500000E-15
  1.000000000000000E-004
  CAR 
 unknown system                          
      6.81188665     -6.01908352  301      4.29623061      1.00000000
     -6.019  0.0000E+00  0.0000E+00
     -5.976  0.0000E+00  0.0000E+00
     -5.934  0.0000E+00  0.0000E+00
     -5.891  0.0000E+00  0.0000E+00
     -5.848  0.0000E+00  0.0000E+00
     -5.805  0.0000E+00  0.0000E+00
     -5.762  0.0000E+00  0.0000E+00
     -5.720  0.0000E+00  0.0000E+00
     -5.677  0.0000E+00  0.0000E+00
     -5.634  0.0000E+00  0.0000E+00
     -5.591  0.0000E+00  0.0000E+00
     -5.549  0.0000E+00  0.0000E+00
     -5.506  0.0000E+00  0.0000E+00
     -5.463  0.0000E+00  0.0000E+00
     -5.420  0.0000E+00  0.0000E+00
     -5.378  0.1622E-15  0.6939E-17
     -5.335  0.4121E-14  0.1832E-15
     -5.292  0.8868E-13  0.3976E-14
     -5.249  0.1619E-11  0.7320E-13
     -5.206  0.2518E-10  0.1150E-11
     -5.164  0.3337E-09  0.1542E-10
     -5.121  0.3768E-08  0.1766E-09
     -5.078  0.3628E-07  0.1728E-08
     -5.035  0.2980E-06  0.1447E-07
     -4.993  0.2090E-05  0.1039E-06
     -4.950  0.1254E-04  0.6400E-06
     -4.907  0.6438E-04  0.3393E-05
     -4.864  0.2838E-03  0.1553E-04
     -4.822  0.1078E-02  0.6164E-04
     -4.779  0.3543E-02  0.2132E-03
     -4.736  0.1014E-01  0.6470E-03
     -4.693  0.2548E-01  0.1737E-02
     -4.650  0.5676E-01  0.4164E-02
     -4.608  0.1133E+00  0.9011E-02
     -4.565  0.2051E+00  0.1778E-01
     -4.522  0.3400E+00  0.3233E-01
     -4.479  0.5205E+00  0.5459E-01
     -4.437  0.7404E+00  0.8625E-01
     -4.394  0.9835E+00  0.1283E+00
     -4.351  0.1225E+01  0.1807E+00
     -4.308  0.1440E+01  0.2423E+00
     -4.266  0.1606E+01  0.3110E+00
     -4.223  0.1716E+01  0.3844E+00
     -4.180  0.1782E+01  0.4605E+00
     -4.137  0.1833E+01  0.5389E+00
     -4.094  0.1909E+01  0.6206E+00
     -4.052  0.2042E+01  0.7079E+00
     -4.009  0.2246E+01  0.8040E+00
     -3.966  0.2504E+01  0.9111E+00
     -3.923  0.2776E+01  0.1030E+01
     -3.881  0.3008E+01  0.1158E+01
     -3.838  0.3154E+01  0.1293E+01
     -3.795  0.3195E+01  0.1430E+01
     -3.752  0.3150E+01  0.1565E+01
     -3.710  0.3070E+01  0.1696E+01
     -3.667  0.3018E+01  0.1825E+01
     -3.624  0.3046E+01  0.1955E+01
     -3.581  0.3176E+01  0.2091E+01
     -3.538  0.3387E+01  0.2236E+01
     -3.496  0.3632E+01  0.2391E+01
     -3.453  0.3853E+01  0.2556E+01
     -3.410  0.4012E+01  0.2728E+01
     -3.367  0.4101E+01  0.2903E+01
     -3.325  0.4134E+01  0.3080E+01
     -3.282  0.4143E+01  0.3257E+01
     -3.239  0.4159E+01  0.3435E+01
     -3.196  0.4209E+01  0.3615E+01
     -3.154  0.4305E+01  0.3799E+01
     -3.111  0.4447E+01  0.3989E+01
     -3.068  0.4627E+01  0.4187E+01
     -3.025  0.4824E+01  0.4394E+01
     -2.982  0.5014E+01  0.4608E+01
     -2.940  0.5170E+01  0.4829E+01
     -2.897  0.5280E+01  0.5055E+01
     -2.854  0.5348E+01  0.5284E+01
     -2.811  0.5398E+01  0.5515E+01
     -2.769  0.5461E+01  0.5748E+01
     -2.726  0.5554E+01  0.5986E+01
     -2.683  0.5660E+01  0.6228E+01
     -2.640  0.5723E+01  0.6473E+01
     -2.597  0.5688E+01  0.6716E+01
     -2.555  0.5554E+01  0.6953E+01
     -2.512  0.5402E+01  0.7184E+01
     -2.469  0.5372E+01  0.7414E+01
     -2.426  0.5585E+01  0.7653E+01
     -2.384  0.6064E+01  0.7912E+01
     -2.341  0.6698E+01  0.8199E+01
     -2.298  0.7286E+01  0.8511E+01
     -2.255  0.7626E+01  0.8837E+01
     -2.213  0.7622E+01  0.9163E+01
     -2.170  0.7337E+01  0.9477E+01
     -2.127  0.6970E+01  0.9775E+01
     -2.084  0.6756E+01  0.1006E+02
     -2.041  0.6848E+01  0.1036E+02
     -1.999  0.7253E+01  0.1067E+02
     -1.956  0.7838E+01  0.1100E+02
     -1.913  0.8404E+01  0.1136E+02
     -1.870  0.8780E+01  0.1174E+02
     -1.828  0.8899E+01  0.1212E+02
     -1.785  0.8823E+01  0.1249E+02
     -1.742  0.8696E+01  0.1287E+02
     -1.699  0.8653E+01  0.1324E+02
     -1.657  0.8757E+01  0.1361E+02
     -1.614  0.8979E+01  0.1400E+02
     -1.571  0.9256E+01  0.1439E+02
     -1.528  0.9541E+01  0.1480E+02
     -1.485  0.9818E+01  0.1522E+02
     -1.443  0.1008E+02  0.1565E+02
     -1.400  0.1030E+02  0.1609E+02
     -1.357  0.1044E+02  0.1654E+02
     -1.314  0.1052E+02  0.1699E+02
     -1.272  0.1068E+02  0.1744E+02
     -1.229  0.1112E+02  0.1792E+02
     -1.186  0.1198E+02  0.1843E+02
     -1.143  0.1317E+02  0.1900E+02
     -1.101  0.1440E+02  0.1961E+02
     -1.058  0.1527E+02  0.2027E+02
     -1.015  0.1562E+02  0.2093E+02
     -0.972  0.1557E+02  0.2160E+02
     -0.929  0.1551E+02  0.2226E+02
     -0.887  0.1586E+02  0.2294E+02
     -0.844  0.1684E+02  0.2366E+02
     -0.801  0.1842E+02  0.2445E+02
     -0.758  0.2048E+02  0.2532E+02
     -0.716  0.2302E+02  0.2631E+02
     -0.673  0.2625E+02  0.2743E+02
     -0.630  0.3031E+02  0.2873E+02
     -0.587  0.3510E+02  0.3023E+02
     -0.545  0.4006E+02  0.3194E+02
     -0.502  0.4454E+02  0.3385E+02
     -0.459  0.4806E+02  0.3590E+02
     -0.416  0.5063E+02  0.3807E+02
     -0.373  0.5254E+02  0.4032E+02
     -0.331  0.5409E+02  0.4263E+02
     -0.288  0.5540E+02  0.4500E+02
     -0.245  0.5639E+02  0.4741E+02
     -0.202  0.5694E+02  0.4985E+02
     -0.160  0.5707E+02  0.5229E+02
     -0.117  0.5696E+02  0.5472E+02
     -0.074  0.5686E+02  0.5715E+02
     -0.031  0.5706E+02  0.5960E+02
      0.011  0.5780E+02  0.6207E+02
      0.054  0.5924E+02  0.6460E+02
      0.097  0.6143E+02  0.6723E+02
      0.140  0.6431E+02  0.6998E+02
      0.183  0.6772E+02  0.7288E+02
      0.225  0.7145E+02  0.7593E+02
      0.268  0.7520E+02  0.7915E+02
      0.311  0.7867E+02  0.8251E+02
      0.354  0.8159E+02  0.8600E+02
      0.396  0.8383E+02  0.8959E+02
      0.439  0.8544E+02  0.9324E+02
      0.482  0.8654E+02  0.9694E+02
      0.525  0.8717E+02  0.1007E+03
      0.567  0.8732E+02  0.1044E+03
      0.610  0.8699E+02  0.1081E+03
      0.653  0.8626E+02  0.1118E+03
      0.696  0.8518E+02  0.1155E+03
      0.739  0.8376E+02  0.1190E+03
      0.781  0.8197E+02  0.1225E+03
      0.824  0.7993E+02  0.1260E+03
      0.867  0.7797E+02  0.1293E+03
      0.910  0.7649E+02  0.1326E+03
      0.952  0.7576E+02  0.1358E+03
      0.995  0.7574E+02  0.1391E+03
      1.038  0.7609E+02  0.1423E+03
      1.081  0.7635E+02  0.1456E+03
      1.123  0.7621E+02  0.1488E+03
      1.166  0.7564E+02  0.1521E+03
      1.209  0.7482E+02  0.1553E+03
      1.252  0.7398E+02  0.1584E+03
      1.295  0.7324E+02  0.1616E+03
      1.337  0.7257E+02  0.1647E+03
      1.380  0.7178E+02  0.1677E+03
      1.423  0.7065E+02  0.1708E+03
      1.466  0.6913E+02  0.1737E+03
      1.508  0.6744E+02  0.1766E+03
      1.551  0.6611E+02  0.1794E+03
      1.594  0.6575E+02  0.1822E+03
      1.637  0.6667E+02  0.1851E+03
      1.679  0.6881E+02  0.1880E+03
      1.722  0.7173E+02  0.1911E+03
      1.765  0.7492E+02  0.1943E+03
      1.808  0.7804E+02  0.1976E+03
      1.851  0.8094E+02  0.2011E+03
      1.893  0.8356E+02  0.2047E+03
      1.936  0.8589E+02  0.2084E+03
      1.979  0.8795E+02  0.2121E+03
      2.022  0.8981E+02  0.2160E+03
      2.064  0.9150E+02  0.2199E+03
      2.107  0.9298E+02  0.2238E+03
      2.150  0.9419E+02  0.2279E+03
      2.193  0.9523E+02  0.2319E+03
      2.236  0.9643E+02  0.2361E+03
      2.278  0.9824E+02  0.2403E+03
      2.321  0.1010E+03  0.2446E+03
      2.364  0.1047E+03  0.2491E+03
      2.407  0.1091E+03  0.2537E+03
      2.449  0.1135E+03  0.2586E+03
      2.492  0.1174E+03  0.2636E+03
      2.535  0.1206E+03  0.2688E+03
      2.578  0.1231E+03  0.2740E+03
      2.620  0.1251E+03  0.2794E+03
      2.663  0.1270E+03  0.2848E+03
      2.706  0.1290E+03  0.2903E+03
      2.749  0.1312E+03  0.2960E+03
      2.792  0.1337E+03  0.3017E+03
      2.834  0.1366E+03  0.3075E+03
      2.877  0.1395E+03  0.3135E+03
      2.920  0.1418E+03  0.3195E+03
      2.963  0.1423E+03  0.3256E+03
      3.005  0.1402E+03  0.3316E+03
      3.048  0.1353E+03  0.3374E+03
      3.091  0.1279E+03  0.3429E+03
      3.134  0.1191E+03  0.3480E+03
      3.176  0.1100E+03  0.3527E+03
      3.219  0.1019E+03  0.3570E+03
      3.262  0.9546E+02  0.3611E+03
      3.305  0.9081E+02  0.3650E+03
      3.348  0.8776E+02  0.3688E+03
      3.390  0.8592E+02  0.3724E+03
      3.433  0.8487E+02  0.3761E+03
      3.476  0.8424E+02  0.3797E+03
      3.519  0.8369E+02  0.3833E+03
      3.561  0.8303E+02  0.3868E+03
      3.604  0.8243E+02  0.3903E+03
      3.647  0.8234E+02  0.3939E+03
      3.690  0.8333E+02  0.3974E+03
      3.732  0.8574E+02  0.4011E+03
      3.775  0.8944E+02  0.4049E+03
      3.818  0.9388E+02  0.4089E+03
      3.861  0.9834E+02  0.4131E+03
      3.904  0.1023E+03  0.4175E+03
      3.946  0.1054E+03  0.4220E+03
      3.989  0.1076E+03  0.4266E+03
      4.032  0.1087E+03  0.4313E+03
      4.075  0.1090E+03  0.4359E+03
      4.117  0.1084E+03  0.4406E+03
      4.160  0.1074E+03  0.4452E+03
      4.203  0.1061E+03  0.4497E+03
      4.246  0.1048E+03  0.4542E+03
      4.288  0.1035E+03  0.4586E+03
      4.331  0.1025E+03  0.4630E+03
      4.374  0.1017E+03  0.4673E+03
      4.417  0.1013E+03  0.4717E+03
      4.460  0.1011E+03  0.4760E+03
      4.502  0.1005E+03  0.4803E+03
      4.545  0.9950E+02  0.4845E+03
      4.588  0.9823E+02  0.4887E+03
      4.631  0.9718E+02  0.4929E+03
      4.673  0.9692E+02  0.4970E+03
      4.716  0.9775E+02  0.5012E+03
      4.759  0.9964E+02  0.5055E+03
      4.802  0.1022E+03  0.5099E+03
      4.844  0.1049E+03  0.5144E+03
      4.887  0.1073E+03  0.5189E+03
      4.930  0.1089E+03  0.5236E+03
      4.973  0.1092E+03  0.5283E+03
      5.016  0.1080E+03  0.5329E+03
      5.058  0.1044E+03  0.5374E+03
      5.101  0.9746E+02  0.5415E+03
      5.144  0.8653E+02  0.5452E+03
      5.187  0.7187E+02  0.5483E+03
      5.229  0.5504E+02  0.5506E+03
      5.272  0.3838E+02  0.5523E+03
      5.315  0.2414E+02  0.5533E+03
      5.358  0.1359E+02  0.5539E+03
      5.400  0.6809E+01  0.5542E+03
      5.443  0.3024E+01  0.5543E+03
      5.486  0.1187E+01  0.5544E+03
      5.529  0.4104E+00  0.5544E+03
      5.572  0.1249E+00  0.5544E+03
      5.614  0.3337E-01  0.5544E+03
      5.657  0.7827E-02  0.5544E+03
      5.700  0.1610E-02  0.5544E+03
      5.743  0.2902E-03  0.5544E+03
      5.785  0.4581E-04  0.5544E+03
      5.828  0.6324E-05  0.5544E+03
      5.871  0.7626E-06  0.5544E+03
      5.914  0.8019E-07  0.5544E+03
      5.956  0.7339E-08  0.5544E+03
      5.999  0.5832E-09  0.5544E+03
      6.042  0.4015E-10  0.5544E+03
      6.085  0.2389E-11  0.5544E+03
      6.128  0.1215E-12  0.5544E+03
      6.170  0.5062E-14  0.5544E+03
      6.213  0.1298E-15  0.5544E+03
      6.256  0.0000E+00  0.5544E+03
      6.299  0.0000E+00  0.5544E+03
      6.341  0.0000E+00  0.5544E+03
      6.384  0.0000E+00  0.5544E+03
      6.427  0.0000E+00  0.5544E+03
      6.470  0.0000E+00  0.5544E+03
      6.512  0.0000E+00  0.5544E+03
      6.555  0.0000E+00  0.5544E+03
      6.598  0.0000E+00  0.5544E+03
      6.641  0.0000E+00  0.5544E+03
      6.684  0.0000E+00  0.5544E+03
      6.726  0.0000E+00  0.5544E+03
      6.769  0.0000E+00  0.5544E+03
      6.812  0.0000E+00  0.5544E+03
