unknown system                          
           1
     9.726678    0.000000    0.000000
     0.000000    8.423550    0.000000
     0.000000    0.000000   45.000000
   Fe   Mn
 281   7
Direct configuration=     1
   0.05349627  0.70141007  0.21134869
   0.31816784  0.72383233  0.87613574
   0.68773510  0.95819975  0.61136737
   0.43792304  0.45819367  0.61147309
   0.44006345  0.28828507  0.25543222
   0.05875973  0.38841649  0.83339626
   0.30859542  0.88772748  0.83349213
   0.44008080  0.60981788  0.16626755
   0.06025959  0.21249962  0.74481752
   0.17844267  0.45125905  0.21143579
   0.56785273  0.21060184  0.47751814
   0.06655099  0.87503353  0.56687048
   0.56819422  0.22382648  0.87608047
   0.80894416  0.52799661  0.12392416
   0.42959765  0.95103748  0.21143052
   0.56651681  0.37496933  0.56685849
   0.81210984  0.04190696  0.38853699
   0.68167660  0.78897535  0.52249653
   0.44295519  0.46057539  0.47750797
   0.43406744  0.96234964  0.74451999
   0.44162265  0.62492982  0.56685688
   0.57161904  0.87607843  0.70043451
   0.31004281  0.02802650  0.12396787
   0.69033664  0.95926778  0.34420079
   0.68808835  0.78254036  0.12424646
   0.05250622  0.37375432  0.29969524
   0.68947493  0.46743414  0.87588829
   0.42881523  0.45136959  0.21143230
   0.80852449  0.37507537  0.43312590
   0.56293997  0.70817773  0.61149699
   0.55971152  0.54073886  0.65581801
   0.93343400  0.12498818  0.43311353
   0.56496417  0.53782141  0.25541483
   0.69025564  0.45922667  0.34417651
   0.19148719  0.61145752  0.16639979
   0.19499950  0.79925090  0.78874602
   0.44710226  0.12596282  0.70021548
   0.92762724  0.62355657  0.29967613
   0.31753024  0.22307025  0.87605890
   0.31653364  0.87471748  0.56683061
   0.81725282  0.22348645  0.87611700
   0.80966034  0.54088175  0.65579642
   0.55839665  0.52643446  0.12385113
   0.57005654  0.04944321  0.78887694
   0.18994362  0.28807378  0.25544168
   0.80854524  0.87498298  0.43307219
   0.57191967  0.37607939  0.70028021
   0.05918361  0.02777562  0.12410018
   0.30940238  0.54077897  0.65582670
   0.56524634  0.20936477  0.34410707
   0.18775305  0.95823547  0.61136246
   0.30271115  0.37393831  0.29974972
   0.43455856  0.79035507  0.65589415
   0.19595041  0.29822633  0.78866008
   0.06716967  0.36321277  0.16665906
   0.69687181  0.62620435  0.70036868
   0.31203724  0.54183751  0.38858767
   0.06775251  0.72287138  0.87611101
   0.93371330  0.63754307  0.83368110
   0.32006925  0.54951122  0.78881863
   0.30392975  0.20100825  0.21131707
   0.06795669  0.71066000  0.47745914
   0.55345769  0.20115137  0.21127890
   0.31026558  0.21161129  0.74458698
   0.07208874  0.37616053  0.70033654
   0.18324633  0.63753195  0.83351587
   0.07029129  0.04912294  0.78885390
   0.44150516  0.12493059  0.56693695
   0.93469418  0.29064818  0.65581140
   0.80379823  0.20114230  0.21126638
   0.92962205  0.95108251  0.21152195
   0.94153618  0.62493741  0.56685955
   0.80818597  0.38766977  0.83346747
   0.19715667  0.62584880  0.70017760
   0.80859692  0.88774848  0.83350224
   0.68484500  0.29067354  0.65589871
   0.31261018  0.20790899  0.61131968
   0.43499276  0.46262968  0.74469629
   0.43682762  0.79151463  0.38845896
   0.68497070  0.96260924  0.74455775
   0.80324739  0.70116862  0.21130899
   0.81311227  0.70834788  0.61150475
   0.43686505  0.78394679  0.12409319
   0.30988620  0.71179917  0.74457448
   0.32086870  0.04925715  0.78874208
   0.81162013  0.54144514  0.38839831
   0.68228156  0.28821891  0.52235400
   0.69582541  0.79903158  0.78877597
   0.19011818  0.78801980  0.25544359
   0.69117328  0.11174782  0.16661682
   0.69260147  0.96063337  0.47748873
   0.94039618  0.95944830  0.34413267
   0.80692787  0.03900660  0.52253202
   0.68344422  0.62499293  0.43311126
   0.44032375  0.45927575  0.34417400
   0.81088577  0.21138813  0.74458372
   0.43949831  0.96743621  0.87590593
   0.56664744  0.87481168  0.56680641
   0.81056856  0.02810664  0.12395455
   0.42763486  0.62382883  0.29969358
   0.81693749  0.72296630  0.87618582
   0.68771327  0.45793358  0.61133292
   0.55862050  0.38761762  0.83329209
   0.80276558  0.37358607  0.29964374
   0.18697730  0.29174470  0.38845835
   0.82050659  0.54927979  0.78885408
   0.18217521  0.78905334  0.52254979
   0.30268836  0.87399040  0.29974387
   0.17846765  0.95126526  0.21139850
   0.18481755  0.46234971  0.74480160
   0.43245676  0.28854394  0.52230740
   0.06505393  0.70924997  0.34402995
   0.18478373  0.79049718  0.65578398
   0.44563797  0.79880504  0.78870219
   0.68333123  0.12499425  0.43306315
   0.93207608  0.78845877  0.52237019
   0.69164973  0.61235326  0.16673124
   0.81538935  0.70928420  0.34408828
   0.93464575  0.46254289  0.74490772
   0.19031512  0.45933028  0.34418419
   0.57037836  0.54948546  0.78885788
   0.56643141  0.36286180  0.16649174
   0.56521623  0.70941715  0.34410925
   0.55261725  0.37384021  0.29973902
   0.18925232  0.46741631  0.87587159
   0.19154282  0.11192185  0.16655357
   0.44502590  0.29836832  0.78873710
   0.68992572  0.78809682  0.25545429
   0.93364567  0.13750891  0.83352845
   0.44280338  0.96077609  0.47746505
   0.56755972  0.72419838  0.87609520
   0.19275657  0.46083528  0.47746090
   0.93483993  0.28276984  0.12423537
   0.31214994  0.04188052  0.38858381
   0.05975814  0.04055783  0.65589458
   0.55844927  0.37493365  0.43310772
   0.68444969  0.46264395  0.74494187
   0.56038418  0.21235023  0.74462157
   0.94710124  0.12628088  0.70030013
   0.55965149  0.04085317  0.65577175
   0.55687420  0.53909482  0.52252171
   0.17776610  0.12387588  0.29970636
   0.44049210  0.11058610  0.16654294
   0.67765720  0.62375913  0.29960873
   0.92766660  0.12401490  0.29982322
   0.81655137  0.37505112  0.56691323
   0.05267184  0.87391823  0.29974648
   0.19163811  0.62488089  0.56688054
   0.94545173  0.79939543  0.78870855
   0.30838465  0.38752053  0.83348161
   0.93927584  0.46817852  0.87587784
   0.43372289  0.63791479  0.83350354
   0.06510157  0.20918370  0.34401681
   0.18953245  0.96734696  0.87601522
   0.93535759  0.78263866  0.12412776
   0.68693235  0.79154970  0.38850549
   0.93466254  0.79060639  0.65580878
   0.94067339  0.11086853  0.16663443
   0.43495731  0.29086945  0.65600781
   0.05397475  0.20121381  0.21134279
   0.67852850  0.95166072  0.21144143
   0.17776482  0.62384087  0.29961187
   0.82195576  0.87654802  0.70036539
   0.94704100  0.62631081  0.70038457
   0.19689084  0.12609904  0.70014876
   0.94293775  0.46068992  0.47744559
   0.81270690  0.20809519  0.61139387
   0.18335602  0.62496865  0.43313098
   0.42777168  0.12369246  0.29965186
   0.67780765  0.12370195  0.29966124
   0.56208073  0.54177026  0.38853944
   0.81502801  0.20923718  0.34403289
   0.43938103  0.46752651  0.87580408
   0.55858622  0.88752163  0.83330080
   0.31777014  0.21058337  0.47747079
   0.19276846  0.96058379  0.47750564
   0.05837915  0.88759194  0.83347230
   0.05682488  0.53905726  0.52247436
   0.94270384  0.96044035  0.47745636
   0.06297226  0.70816126  0.61150196
   0.55714741  0.03865622  0.52236137
   0.69580879  0.29869005  0.78868536
   0.81719427  0.36209090  0.16680505
   0.43342719  0.12500215  0.43309247
   0.06779465  0.21068969  0.47746191
   0.30972874  0.04069018  0.65582551
   0.43180880  0.78888142  0.52248991
   0.18355948  0.13767494  0.83351123
   0.18607501  0.28299660  0.12426776
   0.94026304  0.45935338  0.34418343
   0.56713675  0.86317384  0.16646733
   0.30333912  0.70079581  0.21132331
   0.94075994  0.61177548  0.16665033
   0.18763618  0.45806014  0.61135717
   0.07204469  0.87646532  0.70023102
   0.05967058  0.54057791  0.65586813
   0.30917323  0.52704521  0.12384133
   0.93678338  0.79150469  0.38851859
   0.94583241  0.29813827  0.78864134
   0.18465666  0.29055669  0.65582511
   0.93751179  0.95788716  0.61137239
   0.81103926  0.71130530  0.74457751
   0.68989670  0.28793555  0.25545229
   0.05990269  0.71195263  0.74485953
   0.67873234  0.45114752  0.21129299
   0.81804983  0.21088699  0.47761647
   0.56771168  0.71054322  0.47747608
   0.06713920  0.86335541  0.16657254
   0.93222813  0.28823014  0.52242973
   0.68461839  0.79049246  0.65581237
   0.05829774  0.87478425  0.43313002
   0.06784358  0.22278738  0.87605527
   0.80969663  0.04060024  0.65584116
   0.56030968  0.02811376  0.12405678
   0.30843367  0.37492593  0.43305426
   0.31660586  0.37485479  0.56686247
   0.31791013  0.71063722  0.47741986
   0.05713397  0.03839992  0.52246256
   0.32240079  0.87612841  0.70041303
   0.06496579  0.53748054  0.25531078
   0.68352193  0.13761585  0.83350250
   0.81453634  0.03748236  0.25540653
   0.18351894  0.12502315  0.43310666
   0.69747360  0.12644180  0.70031047
   0.18233792  0.28839889  0.52236868
   0.44004579  0.78805749  0.25544873
   0.81458120  0.53775522  0.25548899
   0.06284135  0.20810611  0.61136317
   0.18649723  0.79133382  0.38840116
   0.30704410  0.53862193  0.52245590
   0.82166530  0.37603391  0.70012088
   0.68697976  0.29174577  0.38850172
   0.19163555  0.12492802  0.56687800
   0.68971862  0.96825665  0.87606118
   0.69160880  0.12499810  0.56688632
   0.44026640  0.95930611  0.34416957
   0.18392186  0.96263080  0.74456086
   0.94013777  0.78797304  0.25545184
   0.55850819  0.87499323  0.43312306
   0.30839798  0.87508554  0.43310618
   0.80721235  0.53919099  0.52253443
   0.92871141  0.45149039  0.21139645
   0.31470972  0.53797590  0.25546737
   0.56234063  0.04197938  0.38863693
   0.93789676  0.45815881  0.61147299
   0.06205189  0.04180975  0.38853816
   0.06197832  0.54162663  0.38847012
   0.43687830  0.29155811  0.38849370
   0.69288375  0.46069651  0.47745784
   0.06666118  0.37497002  0.56688109
   0.55354806  0.70108705  0.21125577
   0.94020134  0.28797304  0.25545539
   0.81979989  0.04952162  0.78892164
   0.19028632  0.95927680  0.34417099
   0.55264444  0.87381602  0.29980094
   0.05833133  0.37503292  0.43310562
   0.31523710  0.70941121  0.34415773
   0.31519139  0.20939062  0.34411274
   0.94174536  0.12495467  0.56675014
   0.43794456  0.95843222  0.61143458
   0.56488091  0.03755548  0.25533864
   0.18670945  0.78324125  0.12429642
   0.06497284  0.03746761  0.25526024
   0.69162494  0.62496359  0.56687259
   0.05709526  0.52620187  0.12422294
   0.30706268  0.03857435  0.52232468
   0.68701170  0.28288613  0.12424601
   0.81774730  0.71075626  0.47747112
   0.43360106  0.13787038  0.83340104
   0.32251425  0.37620971  0.70020783
   0.68356016  0.63771225  0.83348570
   0.56036911  0.71154906  0.74460094
   0.93720998  0.29184568  0.38859524
   0.93965150  0.96813872  0.87611460
   0.56276824  0.20805582  0.61123818
   0.81659556  0.87495126  0.56687240
   0.80265002  0.87389823  0.29977616
   0.31487316  0.03775752  0.25519508
   0.43544381  0.28354405  0.12388206
   0.31305353  0.70838210  0.61149466
   0.43335431  0.62502037  0.43311710
   0.93240581  0.62535379  0.43330507
   0.31820651  0.86265876  0.16586737
   0.07158607  0.54912539  0.78862972
   0.81816906  0.86246636  0.16606243
   0.31810973  0.36302421  0.16577348
   0.93367350  0.96240570  0.74449930
   0.44748634  0.62651066  0.70024278
Direct configuration=     2
   0.05407215  0.70135656  0.21134429
   0.31786351  0.72328221  0.87607152
   0.68778541  0.95815506  0.61137401
   0.43793924  0.45813964  0.61145634
   0.43947773  0.28815097  0.25545623
   0.05906992  0.38815358  0.83347590
   0.30898012  0.88757021  0.83357008
   0.43988145  0.61022342  0.16624182
   0.06080778  0.21258288  0.74475961
   0.17898434  0.45132564  0.21142992
   0.56730117  0.21039424  0.47756527
   0.06618578  0.87496505  0.56686078
   0.56780970  0.22323024  0.87600690
   0.80913033  0.52845401  0.12403042
   0.43005242  0.95113904  0.21140873
   0.56616876  0.37491805  0.56683981
   0.81207839  0.04195885  0.38854077
   0.68227838  0.78919928  0.52244645
   0.44238070  0.46035900  0.47755759
   0.43469464  0.96232828  0.74450572
   0.44123672  0.62486367  0.56684874
   0.57102209  0.87618698  0.70039561
   0.31018044  0.02841465  0.12400828
   0.68986373  0.95917961  0.34422434
   0.68804458  0.78217964  0.12428561
   0.05322099  0.37373123  0.29970079
   0.68938469  0.46795911  0.87582326
   0.42938191  0.45143071  0.21141669
   0.80887864  0.37508875  0.43312826
   0.56295193  0.70814002  0.61149037
   0.56013973  0.54082794  0.65579728
   0.93378990  0.12502184  0.43311919
   0.56436148  0.53775410  0.25542309
   0.68975404  0.45911609  0.34417502
   0.19098767  0.61161987  0.16637490
   0.19462112  0.79923748  0.78873404
   0.44645499  0.12601274  0.70022853
   0.92830235  0.62354057  0.29969282
   0.31721139  0.22256886  0.87599161
   0.31614906  0.87470161  0.56681727
   0.81699101  0.22295353  0.87604610
   0.81010310  0.54095159  0.65577169
   0.55867765  0.52685260  0.12394457
   0.56968444  0.04939836  0.78886828
   0.18942903  0.28799593  0.25546197
   0.80888202  0.87507635  0.43307642
   0.57129083  0.37612855  0.70029758
   0.05945521  0.02802834  0.12416975
   0.30986832  0.54080647  0.65578970
   0.56477481  0.20923629  0.34413899
   0.18779706  0.95818242  0.61136797
   0.30337786  0.37389729  0.29975296
   0.43502538  0.79054375  0.65585981
   0.19543627  0.29821290  0.78866737
   0.06674108  0.36333521  0.16658568
   0.69628121  0.62621402  0.70034803
   0.31200000  0.54185118  0.38858092
   0.06740241  0.72240079  0.87606283
   0.93409634  0.63741395  0.83374421
   0.31976368  0.54951735  0.78882229
   0.30439356  0.20092464  0.21130400
   0.06738767  0.71043957  0.47752571
   0.55399733  0.20114881  0.21128263
   0.31080596  0.21181534  0.74455202
   0.07139666  0.37619809  0.70032469
   0.18368437  0.63743260  0.83357112
   0.06985999  0.04910498  0.78885681
   0.44116337  0.12485613  0.56691585
   0.93516214  0.29079623  0.65577382
   0.80426934  0.20109149  0.21126273
   0.93003934  0.95122366  0.21150919
   0.94117610  0.62490901  0.56684602
   0.80859670  0.38749273  0.83354306
   0.19639577  0.62595927  0.70019161
   0.80895431  0.88756005  0.83358711
   0.68532570  0.29077627  0.65586402
   0.31269467  0.20791559  0.61134350
   0.43547985  0.46258983  0.74464671
   0.43682957  0.79159813  0.38847811
   0.68541762  0.96257947  0.74455180
   0.80377696  0.70110793  0.21130452
   0.81308649  0.70824727  0.61148862
   0.43685040  0.78345395  0.12413160
   0.31039140  0.71195261  0.74455398
   0.32039322  0.04922051  0.78875291
   0.81169241  0.54155799  0.38842518
   0.68282552  0.28860967  0.52232013
   0.69536170  0.79907751  0.78878169
   0.18957563  0.78795718  0.25545688
   0.69079522  0.11190272  0.16656517
   0.69205406  0.96042008  0.47754495
   0.93991757  0.95937975  0.34415440
   0.80751038  0.03917591  0.52246775
   0.68374100  0.62501023  0.43311571
   0.43984805  0.45920377  0.34419118
   0.81127529  0.21165873  0.74455169
   0.43945678  0.96798868  0.87584107
   0.56626398  0.87476413  0.56679326
   0.81061835  0.02840520  0.12400799
   0.42833127  0.62377757  0.29971126
   0.81669231  0.72257344  0.87611687
   0.68780609  0.45788734  0.61133107
   0.55895196  0.38749597  0.83338684
   0.80341079  0.37359329  0.29965467
   0.18697419  0.29178134  0.38846621
   0.82000115  0.54928408  0.78886772
   0.18274833  0.78923975  0.52249746
   0.30337770  0.87395162  0.29973851
   0.17900083  0.95135004  0.21140077
   0.18546311  0.46241045  0.74473246
   0.43294590  0.28886500  0.52227441
   0.06462838  0.70915178  0.34406821
   0.18528772  0.79056157  0.65576053
   0.44513274  0.79885443  0.78869469
   0.68364562  0.12501730  0.43307836
   0.93262962  0.78874223  0.52233850
   0.69123504  0.61251840  0.16664870
   0.81491345  0.70917956  0.34412445
   0.93520615  0.46253504  0.74482056
   0.18986790  0.45923561  0.34419963
   0.56997973  0.54942046  0.78886431
   0.56611550  0.36308610  0.16640804
   0.56475654  0.70930711  0.34414233
   0.55331155  0.37380040  0.29974746
   0.18917665  0.46791861  0.87582379
   0.19111486  0.11211515  0.16651187
   0.44465181  0.29837986  0.78873288
   0.68939742  0.78802768  0.25547099
   0.93410211  0.13734731  0.83359552
   0.44222186  0.96051068  0.47752121
   0.56725759  0.72360169  0.87602984
   0.19217197  0.46058522  0.47751764
   0.93507010  0.28236321  0.12431281
   0.31209771  0.04190328  0.38857705
   0.06019100  0.04062101  0.65585908
   0.55881728  0.37492044  0.43311001
   0.68491908  0.46258513  0.74485952
   0.56087911  0.21244067  0.74458761
   0.94644591  0.12636807  0.70029553
   0.56012190  0.04090346  0.65575062
   0.55747430  0.53930057  0.52245769
   0.17843322  0.12379198  0.29970462
   0.44018135  0.11094316  0.16649276
   0.67833756  0.62370752  0.29963402
   0.92835959  0.12389720  0.29981060
   0.81617172  0.37501684  0.56690249
   0.05335399  0.87386446  0.29974436
   0.19124608  0.62483813  0.56687195
   0.94490641  0.79931548  0.78871986
   0.30881986  0.38737530  0.83355730
   0.93926751  0.46859896  0.87581667
   0.43414393  0.63778134  0.83356193
   0.06467988  0.20912668  0.34406582
   0.18942380  0.96787880  0.87593277
   0.93550105  0.78228215  0.12417062
   0.68692491  0.79161902  0.38851036
   0.93510673  0.79069931  0.65579311
   0.94033893  0.11116206  0.16658057
   0.43534404  0.29098213  0.65596445
   0.05447861  0.20119638  0.21133451
   0.67905593  0.95167478  0.21144943
   0.17841624  0.62378983  0.29963362
   0.82128033  0.87656324  0.70034362
   0.94639852  0.62636273  0.70037583
   0.19617719  0.12618163  0.70016348
   0.94238357  0.46043506  0.47751103
   0.81277246  0.20803215  0.61139835
   0.18376629  0.62500893  0.43313001
   0.42842902  0.12365325  0.29966648
   0.67843610  0.12366693  0.29967452
   0.56202350  0.54179250  0.38854279
   0.81459188  0.20915924  0.34408768
   0.43933201  0.46803866  0.87574281
   0.55896099  0.88737914  0.83341149
   0.31722297  0.21037290  0.47752637
   0.19221549  0.96035697  0.47755436
   0.05878968  0.88746619  0.83355315
   0.05744987  0.53925006  0.52242322
   0.94215267  0.96021687  0.47750691
   0.06297819  0.70809704  0.61148784
   0.55768351  0.03895423  0.52232534
   0.69530727  0.29864943  0.78868311
   0.81675442  0.36226787  0.16670565
   0.43378086  0.12500620  0.43309721
   0.06723706  0.21042320  0.47752059
   0.31018413  0.04079152  0.65579715
   0.43241487  0.78908371  0.52242988
   0.18401867  0.13753780  0.83357610
   0.18607421  0.28249863  0.12429568
   0.93981592  0.45927468  0.34419565
   0.56684339  0.86335494  0.16639878
   0.30389089  0.70075514  0.21130484
   0.94026863  0.61202178  0.16660072
   0.18769009  0.45800457  0.61135814
   0.07139501  0.87651695  0.70022173
   0.06011680  0.54065665  0.65584427
   0.30934558  0.52765251  0.12388237
   0.93677501  0.79158347  0.38852105
   0.94527687  0.29816972  0.78865114
   0.18508374  0.29067715  0.65579834
   0.93760050  0.95787715  0.61138758
   0.81142559  0.71156670  0.74457068
   0.68936685  0.28784936  0.25546644
   0.06050308  0.71209743  0.74478405
   0.67920442  0.45116522  0.21130179
   0.81744205  0.21057719  0.47765244
   0.56715758  0.71034387  0.47754171
   0.06667631  0.86351761  0.16649697
   0.93278971  0.28855750  0.52238966
   0.68503026  0.79060615  0.65578943
   0.05868115  0.87482683  0.43312766
   0.06752560  0.22228118  0.87600350
   0.81015044  0.04067548  0.65580833
   0.56041363  0.02830550  0.12412541
   0.30878864  0.37491489  0.43306487
   0.31623890  0.37481496  0.56684053
   0.31732771  0.71041340  0.47748582
   0.05769185  0.03870413  0.52240509
   0.32158529  0.87618310  0.70039460
   0.06439672  0.53748629  0.25534716
   0.68397515  0.13753600  0.83357076
   0.81404467  0.03741191  0.25544469
   0.18392929  0.12503631  0.43311232
   0.69680641  0.12645676  0.70029853
   0.18285874  0.28873337  0.52233580
   0.43944524  0.78792322  0.25547236
   0.81406891  0.53766484  0.25549880
   0.06287140  0.20806983  0.61136465
   0.18652512  0.79143861  0.38842759
   0.30761611  0.53888791  0.52240274
   0.82102889  0.37607408  0.70014191
   0.68694000  0.29178111  0.38850548
   0.19125417  0.12488635  0.56685727
   0.68960180  0.96868217  0.87596736
   0.69122068  0.12494557  0.56687036
   0.43981935  0.95923256  0.34419459
   0.18463423  0.96260443  0.74454442
   0.93952556  0.78785861  0.25548440
   0.55886388  0.87507862  0.43312611
   0.30874649  0.87513461  0.43311074
   0.80774420  0.53934221  0.52247560
   0.92924589  0.45149854  0.21140295
   0.31416375  0.53783889  0.25548518
   0.56223749  0.04197326  0.38862357
   0.93792193  0.45806637  0.61146655
   0.06201674  0.04185670  0.38854448
   0.06194951  0.54168297  0.38848335
   0.43688375  0.29161185  0.38849904
   0.69232501  0.46045819  0.47752567
   0.06630908  0.37492964  0.56686914
   0.55406188  0.70108143  0.21125222
   0.93960133  0.28785438  0.25547904
   0.81940502  0.04945557  0.78890942
   0.18982415  0.95920245  0.34419440
   0.55333406  0.87377652  0.29979455
   0.05873207  0.37506373  0.43310363
   0.31477979  0.70928826  0.34417973
   0.31473722  0.20924902  0.34414867
   0.94134151  0.12492095  0.56674691
   0.43794546  0.95840623  0.61142515
   0.56431235  0.03757107  0.25537278
   0.18679798  0.78276298  0.12432065
   0.06441079  0.03747895  0.25531532
   0.69125097  0.62490176  0.56686344
   0.05763957  0.52662998  0.12426612
   0.30762215  0.03889079  0.52229350
   0.68705048  0.28249498  0.12431825
   0.81717824  0.71051706  0.47753364
   0.43404852  0.13771414  0.83345331
   0.32174823  0.37620792  0.70020807
   0.68403851  0.63761259  0.83354585
   0.56084347  0.71169064  0.74458419
   0.93713277  0.29187158  0.38859084
   0.93957334  0.96852866  0.87602389
   0.56282485  0.20802887  0.61126273
   0.81622619  0.87489586  0.56685959
   0.80333777  0.87383258  0.29976882
   0.31430087  0.03766272  0.25526571
   0.43564657  0.28303219  0.12394760
   0.31304553  0.70829345  0.61147911
   0.43367404  0.62504793  0.43312000
   0.93290838  0.62530964  0.43328800
   0.31777376  0.86268693  0.16583580
   0.07103158  0.54910100  0.78863572
   0.81773279  0.86259356  0.16601281
   0.31764080  0.36306645  0.16575593
   0.93426576  0.96245606  0.74451228
   0.44685677  0.62645438  0.70024092
Direct configuration=     3
   0.05579982  0.70119604  0.21133109
   0.31695050  0.72163182  0.87587887
   0.68793635  0.95802101  0.61139395
   0.43798783  0.45797753  0.61140611
   0.43772058  0.28774865  0.25552825
   0.06000049  0.38736483  0.83371482
   0.31013421  0.88709841  0.83380394
   0.43928341  0.61144007  0.16616462
   0.06245236  0.21283265  0.74458587
   0.18060935  0.45152539  0.21141230
   0.56564649  0.20977143  0.47770667
   0.06509016  0.87475961  0.56683170
   0.56665614  0.22144154  0.87578619
   0.80968885  0.52982618  0.12434919
   0.43141673  0.95144372  0.21134335
   0.56512460  0.37476420  0.56678376
   0.81198405  0.04211451  0.38855211
   0.68408371  0.78987108  0.52229619
   0.44065723  0.45970981  0.47770645
   0.43657625  0.96226419  0.74446289
   0.44007892  0.62466521  0.56682433
   0.56923124  0.87651263  0.70027891
   0.31059334  0.02957908  0.12412951
   0.68844501  0.95891508  0.34429500
   0.68791327  0.78109751  0.12440306
   0.05536533  0.37366196  0.29971743
   0.68911395  0.46953403  0.87562818
   0.43108194  0.45161407  0.21136986
   0.80994110  0.37512890  0.43313534
   0.56298779  0.70802690  0.61147052
   0.56142437  0.54109516  0.65573509
   0.93485759  0.12512283  0.43313617
   0.56255341  0.53755217  0.25544785
   0.68824923  0.45878437  0.34417056
   0.18948913  0.61210690  0.16630025
   0.19348599  0.79919720  0.78869810
   0.44451317  0.12616250  0.70026767
   0.93032767  0.62349260  0.29974291
   0.31625483  0.22106466  0.87578976
   0.31499534  0.87465399  0.56677724
   0.81620555  0.22135476  0.87583342
   0.81143139  0.54116110  0.65569748
   0.55952068  0.52810704  0.12422487
   0.56856816  0.04926380  0.78884228
   0.18788528  0.28776235  0.25552282
   0.80989237  0.87535647  0.43308912
   0.56940432  0.37627604  0.70034969
   0.06027002  0.02878653  0.12437848
   0.31126615  0.54088897  0.65567869
   0.56336021  0.20885082  0.34423477
   0.18792909  0.95802329  0.61138451
   0.30537799  0.37377423  0.29976268
   0.43642582  0.79110979  0.65575680
   0.19389385  0.29817260  0.78868925
   0.06545532  0.36370252  0.16636553
   0.69450942  0.62624305  0.70028610
   0.31188828  0.54189216  0.38856069
   0.06635212  0.72098904  0.87591830
   0.93524547  0.63702661  0.83393354
   0.31884697  0.54953574  0.78883326
   0.30578497  0.20067381  0.21126479
   0.06568061  0.70977830  0.47772542
   0.55561624  0.20114111  0.21129382
   0.31242709  0.21242748  0.74444712
   0.06932042  0.37631079  0.70028912
   0.18499846  0.63713457  0.83373684
   0.06856609  0.04905111  0.78886555
   0.44013800  0.12463277  0.56685257
   0.93656601  0.29124038  0.65566108
   0.80568267  0.20093906  0.21125178
   0.93129122  0.95164710  0.21147090
   0.94009587  0.62482382  0.56680544
   0.80982889  0.38696158  0.83376983
   0.19411305  0.62629065  0.70023362
   0.81002648  0.88699476  0.83384173
   0.68676779  0.29108446  0.65575993
   0.31294817  0.20793539  0.61141498
   0.43694114  0.46247027  0.74449797
   0.43683543  0.79184863  0.38853554
   0.68675840  0.96249016  0.74453397
   0.80536569  0.70092585  0.21129109
   0.81300917  0.70794542  0.61144023
   0.43680645  0.78197541  0.12424683
   0.31190703  0.71241295  0.74449246
   0.31896681  0.04911059  0.78878542
   0.81190926  0.54189654  0.38850580
   0.68445741  0.28978195  0.52221854
   0.69397055  0.79921529  0.78879887
   0.18794799  0.78776929  0.25549676
   0.68966105  0.11236742  0.16641020
   0.69041183  0.95978022  0.47771359
   0.93848174  0.95917409  0.34421960
   0.80925788  0.03968385  0.52227493
   0.68463135  0.62506212  0.43312907
   0.43842094  0.45898781  0.34424270
   0.81244386  0.21247052  0.74445562
   0.43933218  0.96964609  0.87564651
   0.56511358  0.87462146  0.56675379
   0.81076773  0.02930087  0.12416830
   0.43042050  0.62362379  0.29976433
   0.81595675  0.72139488  0.87591002
   0.68808456  0.45774860  0.61132553
   0.55994632  0.38713103  0.83367108
   0.80534640  0.37361494  0.29968745
   0.18696488  0.29189128  0.38848980
   0.81848484  0.54929697  0.78890863
   0.18446768  0.78979898  0.52234047
   0.30544571  0.87383528  0.29972243
   0.18060037  0.95160439  0.21140760
   0.18739979  0.46259267  0.74452504
   0.43441334  0.28982818  0.52217545
   0.06335175  0.70885721  0.34418299
   0.18679969  0.79075473  0.65569020
   0.44361708  0.79900259  0.78867218
   0.68458880  0.12508645  0.43312398
   0.93429022  0.78959260  0.52224341
   0.68999097  0.61301384  0.16640108
   0.81348575  0.70886565  0.34423296
   0.93688735  0.46251149  0.74455908
   0.18852623  0.45895162  0.34424596
   0.56878385  0.54922544  0.78888360
   0.56516775  0.36375898  0.16615692
   0.56337748  0.70897696  0.34424158
   0.55539445  0.37368098  0.29977278
   0.18894963  0.46942549  0.87568039
   0.18983100  0.11269503  0.16638679
   0.44352955  0.29841446  0.78872021
   0.68781251  0.78782027  0.25552110
   0.93547144  0.13686253  0.83379671
   0.44047728  0.95971448  0.47768972
   0.56635119  0.72181160  0.87583375
   0.19041816  0.45983501  0.47768785
   0.93576060  0.28114333  0.12454512
   0.31194100  0.04197157  0.38855679
   0.06148958  0.04081055  0.65575257
   0.55992133  0.37488082  0.43311689
   0.68632725  0.46240867  0.74461247
   0.56236391  0.21271200  0.74448572
   0.94447991  0.12662966  0.70028172
   0.56153315  0.04105432  0.65568721
   0.55927462  0.53991780  0.52226564
   0.18043457  0.12354028  0.29969941
   0.43924911  0.11201433  0.16634222
   0.68037864  0.62355270  0.29970989
   0.93043856  0.12354410  0.29977275
   0.81503276  0.37491399  0.56687025
   0.05540044  0.87370316  0.29973800
   0.19007001  0.62470986  0.56684620
   0.94327045  0.79907562  0.78875379
   0.31012550  0.38693960  0.83378436
   0.93924252  0.46986028  0.87563316
   0.43540704  0.63738102  0.83373708
   0.06341481  0.20895560  0.34421284
   0.18909784  0.96947431  0.87568544
   0.93593142  0.78121262  0.12429918
   0.68690259  0.79182699  0.38852499
   0.93643927  0.79097807  0.65574610
   0.93933554  0.11204266  0.16641897
   0.43650424  0.29132016  0.65583437
   0.05599018  0.20114411  0.21130966
   0.68063821  0.95171695  0.21147341
   0.18037049  0.62363671  0.29969887
   0.81925403  0.87660892  0.70027830
   0.94447106  0.62651848  0.70034962
   0.19403625  0.12642937  0.70020765
   0.94072100  0.45967046  0.47770735
   0.81296912  0.20784302  0.61141177
   0.18499709  0.62512975  0.43312710
   0.43040104  0.12353563  0.29971032
   0.68032144  0.12356189  0.29971436
   0.56185184  0.54185921  0.38855286
   0.81328348  0.20892539  0.34425204
   0.43918494  0.46957514  0.87555902
   0.56008528  0.88695168  0.83374356
   0.31558146  0.20974151  0.47769311
   0.19055660  0.95967654  0.47770052
   0.06002127  0.88708894  0.83379569
   0.05932484  0.53982847  0.52226983
   0.94049917  0.95954642  0.47765856
   0.06299599  0.70790439  0.61144549
   0.55929181  0.03984825  0.52221724
   0.69380274  0.29852756  0.78867637
   0.81543486  0.36279879  0.16640743
   0.43484187  0.12501835  0.43311142
   0.06556429  0.20962375  0.47769662
   0.31155031  0.04109556  0.65571208
   0.43423310  0.78969058  0.52224977
   0.18539623  0.13712641  0.83377070
   0.18607179  0.28100475  0.12437946
   0.93847454  0.45903859  0.34423231
   0.56596329  0.86389824  0.16619312
   0.30554619  0.70063312  0.21124943
   0.93879468  0.61276066  0.16645190
   0.18785184  0.45783787  0.61136107
   0.06944599  0.87667183  0.70019384
   0.06145546  0.54089289  0.65577267
   0.30986265  0.52947442  0.12400547
   0.93674993  0.79181983  0.38852843
   0.94361028  0.29826408  0.78868055
   0.18636498  0.29103854  0.65571801
   0.93786662  0.95784713  0.61143315
   0.81258459  0.71235090  0.74455018
   0.68777728  0.28759081  0.25550889
   0.06230428  0.71253184  0.74455763
   0.68062065  0.45121831  0.21132821
   0.81561871  0.20964780  0.47776032