<?xml version="1.0" encoding="ISO-8859-1"?>
<modeling>
 <generator>
  <i name="program" type="string">vasp </i>
  <i name="version" type="string">5.4.4.18Apr17-6-g9f103f2a35  </i>
  <i name="subversion" type="string">(build Sep 27 2018 12:46:37) complex + VL-xray_ parallel </i>
  <i name="platform" type="string">LLNL_Quartz_ifc </i>
  <i name="date" type="string">2021 09 27 </i>
  <i name="time" type="string">00:35:16 </i>
 </generator>
 <incar>
  <i type="int" name="ISTART">     2</i>
  <i type="string" name="PREC">accurate</i>
  <i type="string" name="ALGO"> Fast</i>
  <i type="int" name="ICHARG">     2</i>
  <i type="int" name="INIWAV">     1</i>
  <i type="int" name="NELM">   100</i>
  <i type="int" name="NELMIN">     4</i>
  <i type="int" name="IBRION">     2</i>
  <i name="EDIFF">      0.00000100</i>
  <i type="int" name="NSW">     5</i>
  <i type="int" name="ISIF">     2</i>
  <i type="int" name="ISYM">     2</i>
  <i name="ENCUT">    450.00000000</i>
  <i name="POTIM">      0.25000000</i>
  <i type="string" name="LREAL"> Auto</i>
  <i type="int" name="ISMEAR">     0</i>
  <i name="SIGMA">      0.15000000</i>
  <i type="logical" name="LWAVE"> F  </i>
  <i type="logical" name="LCHARG"> F  </i>
  <i type="int" name="ICORELEVEL">     0</i>
  <i type="int" name="CLNT">     1</i>
  <i type="int" name="CLN">     1</i>
  <i type="int" name="INCAR     ">     0</i>
  <i name="CLZ">      0.00000000</i>
  <v type="int" name="KPOINT_BSE">    -1     0     0     0</v>
  <i type="int" name="NELM">   100</i>
 </incar>
 <structure name="primitive_cell" >
  <crystal>
   <varray name="basis" >
    <v>       9.72667804       0.00000000       0.00000000 </v>
    <v>       0.00000000       8.42355028       0.00000000 </v>
    <v>       0.00000000       0.00000000      45.00000000 </v>
   </varray>
   <i name="volume">   3686.99226691 </i>
   <varray name="rec_basis" >
    <v>       0.10281002       0.00000000       0.00000000 </v>
    <v>       0.00000000       0.11871479       0.00000000 </v>
    <v>       0.00000000       0.00000000       0.02222222 </v>
   </varray>
  </crystal>
  <varray name="positions" >
   <v>       0.06256237       0.03226808       0.12414751 </v>
   <v>       0.18319247       0.11358179       0.16630944 </v>
   <v>       0.05685090      -0.13491928       0.16655094 </v>
   <v>       0.18815377      -0.21271862       0.12407740 </v>
   <v>      -0.06898392       0.11436634       0.16666810 </v>
   <v>      -0.06641286      -0.21205246       0.12454324 </v>
   <v>      -0.18741203       0.03317712       0.12394505 </v>
   <v>       0.31304445       0.03151220       0.12379029 </v>
   <v>       0.18570422       0.28574229       0.12418373 </v>
   <v>      -0.06572717       0.28702138       0.12390783 </v>
   <v>       0.30606467      -0.13420553       0.16588342 </v>
   <v>       0.05545437       0.36615974       0.16645797 </v>
   <v>      -0.19286638      -0.13602642       0.16665787 </v>
   <v>       0.43232354       0.11341011       0.16622696 </v>
   <v>       0.30744015       0.36344834       0.16642237 </v>
   <v>      -0.05929368      -0.04473139       0.21106264 </v>
   <v>       0.18964318      -0.04489703       0.21112057 </v>
   <v>       0.43451521      -0.21232046       0.12389418 </v>
   <v>       0.06545826       0.20486691       0.21088267 </v>
   <v>       0.18359808      -0.38480056       0.16644756 </v>
   <v>       0.43405343       0.28503414       0.12388528 </v>
   <v>       0.06123291      -0.46948992       0.12399976 </v>
   <v>      -0.06715609      -0.38681238       0.16616308 </v>
   <v>      -0.19456474       0.36596609       0.16582281 </v>
   <v>      -0.31647516      -0.21174884       0.12428908 </v>
   <v>      -0.31774984       0.11499482       0.16678046 </v>
   <v>      -0.31438758       0.28708268       0.12384434 </v>
   <v>       0.06706337      -0.29442293       0.21112619 </v>
   <v>      -0.18474028       0.20433820       0.21105019 </v>
   <v>      -0.43999571       0.03317887       0.12379980 </v>
   <v>       0.31508367       0.20507202       0.21099147 </v>
   <v>      -0.18713549      -0.46951770       0.12385378 </v>
   <v>       0.31286032      -0.46801989       0.12394718 </v>
   <v>      -0.44467491      -0.13468069       0.16646991 </v>
   <v>      -0.18377090      -0.29464954       0.21131253 </v>
   <v>       0.43036821      -0.38499775       0.16624723 </v>
   <v>      -0.31154502      -0.04457995       0.21105722 </v>
   <v>       0.31440479      -0.29452744       0.21135486 </v>
   <v>       0.43937208      -0.04404602       0.21128912 </v>
   <v>       0.18974074       0.45529937       0.21089601 </v>
   <v>      -0.05912451       0.45529845       0.21145535 </v>
   <v>      -0.31770089      -0.38734933       0.16608114 </v>
   <v>      -0.44353641       0.36593519       0.16614633 </v>
   <v>       0.05894576       0.03866953       0.25575127 </v>
   <v>       0.18457988      -0.21132105       0.25550889 </v>
   <v>       0.30861156       0.03815679       0.25541821 </v>
   <v>      -0.43414369       0.20319125       0.21106981 </v>
   <v>      -0.06569870      -0.21088138       0.25564794 </v>
   <v>       0.18403279       0.28878189       0.25581140 </v>
   <v>      -0.18954425       0.03892251       0.25593048 </v>
   <v>      -0.43780414      -0.46955852       0.12440639 </v>
   <v>      -0.06496336       0.28808246       0.25582591 </v>
   <v>      -0.31149109       0.45633672       0.21146222 </v>
   <v>       0.43954195       0.45669392       0.21107587 </v>
   <v>      -0.43524685      -0.29419556       0.21098819 </v>
   <v>       0.43329184      -0.21153511       0.25566845 </v>
   <v>       0.06063994      -0.46128295       0.25572761 </v>
   <v>       0.43356837       0.29017828       0.25567128 </v>
   <v>      -0.31585287      -0.21081916       0.25581278 </v>
   <v>      -0.31484502       0.28870730       0.25569102 </v>
   <v>       0.30878431      -0.46148102       0.25513423 </v>
   <v>      -0.43998896       0.03868254       0.25546124 </v>
   <v>      -0.19040699      -0.46148411       0.25586091 </v>
   <v>       0.06897109      -0.12531489       0.30018986 </v>
   <v>      -0.05611770       0.12320524       0.29997829 </v>
   <v>       0.19399542       0.12440430       0.30022608 </v>
   <v>      -0.18078363      -0.12433111       0.30018203 </v>
   <v>       0.31829219      -0.12543456       0.30024540 </v>
   <v>       0.06847077       0.37475793       0.30022327 </v>
   <v>      -0.44218771      -0.46085926       0.25544419 </v>
   <v>      -0.05573923      -0.37541402       0.29995821 </v>
   <v>      -0.30453263       0.12250183       0.30016912 </v>
   <v>       0.19350290      -0.37547057       0.30034257 </v>
   <v>      -0.17994284       0.37404580       0.30018627 </v>
   <v>       0.44315200       0.12419143       0.30043265 </v>
   <v>       0.31841608       0.37379706       0.30024650 </v>
   <v>      -0.30594484      -0.37461101       0.30020333 </v>
   <v>      -0.43048361      -0.12601911       0.30047944 </v>
   <v>       0.44420838      -0.37486017       0.30044703 </v>
   <v>      -0.43159955       0.37408287       0.30033738 </v>
   <v>      -0.06572774      -0.04836543       0.34459140 </v>
   <v>       0.18441376      -0.04685482       0.34484915 </v>
   <v>       0.06010432       0.20286466       0.34477740 </v>
   <v>       0.05938778      -0.29777294       0.34465055 </v>
   <v>       0.30911613       0.20287176       0.34478350 </v>
   <v>      -0.19063743       0.20304380       0.34481735 </v>
   <v>       0.30909488      -0.29736695       0.34475917 </v>
   <v>       0.43358854      -0.04693291       0.34488335 </v>
   <v>      -0.19041971      -0.29672497       0.34476152 </v>
   <v>      -0.31653055      -0.04754885       0.34467252 </v>
   <v>      -0.06615566       0.45236765       0.34463418 </v>
   <v>       0.18418394       0.45246468       0.34495505 </v>
   <v>      -0.44034435       0.20350200       0.34490826 </v>
   <v>       0.43358210       0.45262291       0.34506072 </v>
   <v>      -0.31602790       0.45176887       0.34500900 </v>
   <v>       0.06583858       0.03766619      -0.12436015 </v>
   <v>      -0.44130662      -0.29703795       0.34479230 </v>
   <v>       0.18636713      -0.20445156      -0.12394709 </v>
   <v>      -0.06099815      -0.20603553      -0.12446136 </v>
   <v>       0.31414359       0.04167337      -0.12403118 </v>
   <v>       0.18930361       0.29130224      -0.12388068 </v>
   <v>      -0.18588985       0.03969449      -0.12452630 </v>
   <v>      -0.06344396       0.29256674      -0.12437520 </v>
   <v>       0.43791830      -0.20613831      -0.12386005 </v>
   <v>       0.06706461       0.03806754       0.38891611 </v>
   <v>       0.06327748      -0.45834326      -0.12426287 </v>
   <v>      -0.31322929      -0.20689428      -0.12442280 </v>
   <v>       0.43736709       0.29554415      -0.12368418 </v>
   <v>      -0.31376017       0.29752153      -0.12400092 </v>
   <v>      -0.05865016      -0.21216396       0.38889447 </v>
   <v>      -0.18276737       0.03889173       0.38893777 </v>
   <v>       0.19124562      -0.21209032       0.38892843 </v>
   <v>       0.31574179       0.03748352       0.38870973 </v>
   <v>       0.31538745      -0.46043415      -0.12394363 </v>
   <v>      -0.05941892       0.28673105       0.38889068 </v>
   <v>      -0.18638110      -0.45769284      -0.12435025 </v>
   <v>       0.19133927       0.28798358       0.38880697 </v>
   <v>      -0.43745790       0.04091456      -0.12408790 </v>
   <v>      -0.30887135      -0.21183612       0.38895955 </v>
   <v>       0.06756208      -0.46105452       0.38897129 </v>
   <v>      -0.30910045       0.28759260       0.38879946 </v>
   <v>       0.44137691      -0.21271390       0.38898511 </v>
   <v>       0.44132150       0.28776619       0.38889252 </v>
   <v>      -0.18440025      -0.46231533       0.38878042 </v>
   <v>      -0.43386639       0.03791014       0.38892729 </v>
   <v>       0.31637349      -0.46215241       0.38883375 </v>
   <v>      -0.43657717      -0.45858409      -0.12406261 </v>
   <v>       0.19006886      -0.03718532      -0.16609400 </v>
   <v>      -0.05840984      -0.03767058      -0.16632836 </v>
   <v>       0.06709926       0.21122272      -0.16603980 </v>
   <v>       0.06497591      -0.28643324      -0.16607642 </v>
   <v>       0.31570886       0.21143894      -0.16606095 </v>
   <v>      -0.18368592       0.21247068      -0.16639979 </v>
   <v>      -0.43421789      -0.46231584       0.38886655 </v>
   <v>      -0.18427465      -0.28756078      -0.16656278 </v>
   <v>      -0.30895560      -0.03890390      -0.16653580 </v>
   <v>       0.31770461      -0.28914357      -0.16662027 </v>
   <v>       0.44224596      -0.03806170      -0.16648540 </v>
   <v>      -0.05870742       0.46370413      -0.16646905 </v>
   <v>       0.19191410       0.46169916      -0.16643215 </v>
   <v>      -0.43413411       0.21248608      -0.16639714 </v>
   <v>       0.06211822      -0.12902103       0.43436456 </v>
   <v>       0.18730980       0.12050407       0.43432588 </v>
   <v>      -0.30940311       0.46240812      -0.16657439 </v>
   <v>      -0.06275293       0.12011302       0.43475849 </v>
   <v>       0.44156449       0.46223288      -0.16635204 </v>
   <v>      -0.43413241      -0.28932122      -0.16657543 </v>
   <v>       0.31222402      -0.12990129       0.43435258 </v>
   <v>      -0.18857057      -0.13000027       0.43440351 </v>
   <v>       0.06299528       0.37107372       0.43448750 </v>
   <v>       0.18695220      -0.38022106       0.43427433 </v>
   <v>      -0.06262488      -0.37940292       0.43441976 </v>
   <v>      -0.31235083       0.11961946       0.43432760 </v>
   <v>       0.43710163       0.12025804       0.43438318 </v>
   <v>       0.31141010       0.37095629       0.43436935 </v>
   <v>      -0.18856407       0.37110672       0.43438022 </v>
   <v>       0.43631677      -0.37941948       0.43432160 </v>
   <v>      -0.31189353      -0.37979123       0.43445019 </v>
   <v>      -0.43757976      -0.12964971       0.43432755 </v>
   <v>      -0.43764436       0.37064215       0.43438576 </v>
   <v>       0.05931292      -0.12781250      -0.21110179 </v>
   <v>       0.18480369       0.12277813      -0.21100236 </v>
   <v>      -0.06532191       0.12353676      -0.21104581 </v>
   <v>      -0.19061717      -0.12831887      -0.21101205 </v>
   <v>       0.31226854      -0.12907751      -0.21144938 </v>
   <v>       0.05995823       0.37378041      -0.21126979 </v>
   <v>       0.43670440       0.12251500      -0.21078366 </v>
   <v>      -0.06621085      -0.37691691      -0.21109704 </v>
   <v>       0.18540658      -0.37827820      -0.21123167 </v>
   <v>      -0.31532899       0.12258485      -0.21098777 </v>
   <v>       0.31140967       0.37350752      -0.21119250 </v>
   <v>      -0.18996592       0.37367868      -0.21117927 </v>
   <v>       0.43605429      -0.37807474      -0.21083556 </v>
   <v>      -0.31503339      -0.37785595      -0.21090331 </v>
   <v>      -0.43863295      -0.12846399      -0.21099508 </v>
   <v>       0.18722338      -0.04452569       0.47864036 </v>
   <v>      -0.06301846      -0.04490400       0.47865237 </v>
   <v>       0.06216880       0.20653857       0.47853703 </v>
   <v>      -0.43884832       0.37348826      -0.21095888 </v>
   <v>       0.06222420      -0.29530069       0.47851555 </v>
   <v>       0.31192543       0.20592226       0.47853765 </v>
   <v>      -0.18806631       0.20664657       0.47852035 </v>
   <v>      -0.18758470      -0.29525082       0.47849370 </v>
   <v>       0.31201258      -0.29507373       0.47854881 </v>
   <v>      -0.31234063      -0.04437829       0.47851555 </v>
   <v>       0.43728218      -0.04467068       0.47858106 </v>
   <v>       0.18701685       0.45519231       0.47859688 </v>
   <v>      -0.06309963       0.45465715       0.47862446 </v>
   <v>      -0.43714451       0.20568058       0.47857646 </v>
   <v>       0.43750524       0.45554947       0.47842225 </v>
   <v>      -0.31273061       0.45520418       0.47848962 </v>
   <v>      -0.43738710      -0.29503408       0.47847859 </v>
   <v>       0.06581143       0.04013615      -0.25549880 </v>
   <v>      -0.06001735      -0.21077522      -0.25532676 </v>
   <v>      -0.18542902       0.04093336      -0.25538944 </v>
   <v>       0.19038639      -0.21020861      -0.25549799 </v>
   <v>      -0.06037770       0.29032062      -0.25542759 </v>
   <v>       0.19096742       0.29006009      -0.25564505 </v>
   <v>       0.31555025       0.04111488      -0.25585125 </v>
   <v>      -0.30977112      -0.20975389      -0.25529544 </v>
   <v>       0.06484676      -0.45949563      -0.25539814 </v>
   <v>       0.44033615      -0.21028324      -0.25527983 </v>
   <v>      -0.30977494       0.29068387      -0.25553987 </v>
   <v>       0.44046781       0.29071311      -0.25563103 </v>
   <v>      -0.18506575      -0.45894896      -0.25545283 </v>
   <v>       0.31579061      -0.45892592      -0.25541956 </v>
   <v>      -0.43413898       0.04069927      -0.25546385 </v>
   <v>       0.06156798      -0.12928420      -0.47883090 </v>
   <v>       0.18649096       0.12152484      -0.47877674 </v>
   <v>      -0.06379646       0.12210238      -0.47878685 </v>
   <v>      -0.18822170      -0.12909023      -0.47880700 </v>
   <v>       0.31133748      -0.12863524      -0.47870859 </v>
   <v>       0.06108120       0.37239483      -0.47877156 </v>
   <v>      -0.43510562      -0.45849332      -0.25532324 </v>
   <v>       0.18658076      -0.37858330      -0.47877908 </v>
   <v>      -0.06367483      -0.37869472      -0.47869913 </v>
   <v>       0.43650249       0.12116973      -0.47882174 </v>
   <v>      -0.31327048       0.12176458      -0.47873558 </v>
   <v>       0.31059236       0.37177811      -0.47877626 </v>
   <v>      -0.18785582       0.37207104      -0.47871212 </v>
   <v>       0.43650384      -0.37786593      -0.47883849 </v>
   <v>      -0.31311918      -0.37842767      -0.47869349 </v>
   <v>      -0.43824863      -0.12845589      -0.47867618 </v>
   <v>      -0.43765521       0.37179945      -0.47871701 </v>
   <v>       0.18549966      -0.04206780      -0.29945238 </v>
   <v>      -0.06532485      -0.04181916      -0.29960642 </v>
   <v>       0.06004968       0.20812145      -0.29963191 </v>
   <v>       0.05968603      -0.29257826      -0.29950315 </v>
   <v>       0.31117848       0.20815734      -0.29964394 </v>
   <v>      -0.19005229       0.20838169      -0.29953983 </v>
   <v>       0.31077445      -0.29299544      -0.29942671 </v>
   <v>       0.43520586      -0.04190810      -0.29943325 </v>
   <v>      -0.19007766      -0.29345151      -0.29944718 </v>
   <v>      -0.31526308      -0.04226689      -0.29943221 </v>
   <v>       0.18468664       0.45839413      -0.29958541 </v>
   <v>      -0.06531651       0.45803421      -0.29957025 </v>
   <v>      -0.43996442       0.20798433      -0.29953180 </v>
   <v>       0.43539229       0.45770748      -0.29955570 </v>
   <v>      -0.31476240       0.45735543      -0.29947629 </v>
   <v>      -0.43970175      -0.29307008      -0.29945853 </v>
   <v>      -0.06267486      -0.04232894      -0.43498553 </v>
   <v>       0.18690046      -0.04240922      -0.43494825 </v>
   <v>       0.06263722       0.20774728      -0.43499654 </v>
   <v>       0.06202337      -0.29366311      -0.43496631 </v>
   <v>       0.31180797       0.20690221      -0.43501592 </v>
   <v>      -0.18826059       0.20841815      -0.43504225 </v>
   <v>      -0.18829447      -0.29324773      -0.43509998 </v>
   <v>       0.43713843      -0.04305196      -0.43515367 </v>
   <v>       0.31183319      -0.29241431      -0.43495365 </v>
   <v>      -0.31293583      -0.04303162      -0.43495881 </v>
   <v>       0.18719119       0.45693239      -0.43495978 </v>
   <v>      -0.06286616       0.45684467      -0.43493334 </v>
   <v>      -0.43776081       0.20728177      -0.43508987 </v>
   <v>      -0.31278135       0.45790790      -0.43522390 </v>
   <v>       0.43733563       0.45786756      -0.43506025 </v>
   <v>      -0.43819266      -0.29261779      -0.43498011 </v>
   <v>       0.06568896      -0.12572726      -0.34446613 </v>
   <v>       0.19084999       0.12566663      -0.34445520 </v>
   <v>      -0.05884920       0.12563736      -0.34457225 </v>
   <v>      -0.18371696      -0.12612934      -0.34440685 </v>
   <v>       0.31591570      -0.12600868      -0.34440338 </v>
   <v>       0.06598346       0.37464005      -0.34464437 </v>
   <v>      -0.05898307      -0.37618890      -0.34454194 </v>
   <v>      -0.30858456       0.12507584      -0.34438858 </v>
   <v>       0.19062687      -0.37597384      -0.34454263 </v>
   <v>      -0.18314006       0.37498478      -0.34443004 </v>
   <v>       0.44092735       0.12560311      -0.34444212 </v>
   <v>       0.31552347       0.37435748      -0.34455593 </v>
   <v>      -0.30879530      -0.37597226      -0.34439570 </v>
   <v>      -0.43405053      -0.12686808      -0.34450696 </v>
   <v>       0.44078552      -0.37627913      -0.34453203 </v>
   <v>      -0.43414702       0.37445781      -0.34447036 </v>
   <v>       0.05879998       0.03877696      -0.38926913 </v>
   <v>       0.18426541      -0.21249637      -0.38919057 </v>
   <v>       0.30910817       0.03860248      -0.38921374 </v>
   <v>      -0.19014542       0.03872859      -0.38932226 </v>
   <v>      -0.06569577      -0.21264263      -0.38913340 </v>
   <v>      -0.06544837       0.28867272      -0.38915706 </v>
   <v>       0.18426519       0.28897545      -0.38902051 </v>
   <v>       0.43418692      -0.21224164      -0.38929289 </v>
   <v>       0.05930868      -0.46229466      -0.38908891 </v>
   <v>      -0.31608475      -0.21248340      -0.38925152 </v>
   <v>       0.43344622       0.28879870      -0.38910906 </v>
   <v>      -0.31582270       0.28891179      -0.38929862 </v>
   <v>      -0.44104288       0.03839498      -0.38934883 </v>
   <v>       0.30852937      -0.46214764      -0.38915458 </v>
   <v>      -0.19050163      -0.46180317      -0.38907032 </v>
   <v>      -0.44111547      -0.46131590      -0.38910965 </v>
  </varray>
 </structure>
 <varray name="primitive_index" >
  <v type="int" >        1 </v>
  <v type="int" >      125 </v>
  <v type="int" >       60 </v>
  <v type="int" >       83 </v>
  <v type="int" >       26 </v>
  <v type="int" >       44 </v>
  <v type="int" >      202 </v>
  <v type="int" >      256 </v>
  <v type="int" >      111 </v>
  <v type="int" >      155 </v>
  <v type="int" >      277 </v>
  <v type="int" >       51 </v>
  <v type="int" >      102 </v>
  <v type="int" >      182 </v>
  <v type="int" >      108 </v>
  <v type="int" >      212 </v>
  <v type="int" >      146 </v>
  <v type="int" >      170 </v>
  <v type="int" >       50 </v>
  <v type="int" >       20 </v>
  <v type="int" >      117 </v>
  <v type="int" >      176 </v>
  <v type="int" >      280 </v>
  <v type="int" >      284 </v>
  <v type="int" >      163 </v>
  <v type="int" >      166 </v>
  <v type="int" >      145 </v>
  <v type="int" >      250 </v>
  <v type="int" >      167 </v>
  <v type="int" >      114 </v>
  <v type="int" >      249 </v>
  <v type="int" >      205 </v>
  <v type="int" >       91 </v>
  <v type="int" >      192 </v>
  <v type="int" >      213 </v>
  <v type="int" >      174 </v>
  <v type="int" >       92 </v>
  <v type="int" >      276 </v>
  <v type="int" >      229 </v>
  <v type="int" >      189 </v>
  <v type="int" >      175 </v>
  <v type="int" >       97 </v>
  <v type="int" >       30 </v>
  <v type="int" >      185 </v>
  <v type="int" >      200 </v>
  <v type="int" >      179 </v>
  <v type="int" >      103 </v>
  <v type="int" >       52 </v>
  <v type="int" >      112 </v>
  <v type="int" >       24 </v>
  <v type="int" >      283 </v>
  <v type="int" >      127 </v>
  <v type="int" >      261 </v>
  <v type="int" >      139 </v>
  <v type="int" >      288 </v>
  <v type="int" >      137 </v>
  <v type="int" >      168 </v>
  <v type="int" >      265 </v>
  <v type="int" >      118 </v>
  <v type="int" >       58 </v>
  <v type="int" >      275 </v>
  <v type="int" >      221 </v>
  <v type="int" >       81 </v>
  <v type="int" >      214 </v>
  <v type="int" >      135 </v>
  <v type="int" >      215 </v>
  <v type="int" >       72 </v>
  <v type="int" >       98 </v>
  <v type="int" >      226 </v>
  <v type="int" >       28 </v>
  <v type="int" >      178 </v>
  <v type="int" >      109 </v>
  <v type="int" >      263 </v>
  <v type="int" >      220 </v>
  <v type="int" >      159 </v>
  <v type="int" >      242 </v>
  <v type="int" >      130 </v>
  <v type="int" >      210 </v>
  <v type="int" >      101 </v>
  <v type="int" >      171 </v>
  <v type="int" >      194 </v>
  <v type="int" >      258 </v>
  <v type="int" >       47 </v>
  <v type="int" >      216 </v>
  <v type="int" >       86 </v>
  <v type="int" >      207 </v>
  <v type="int" >      208 </v>
  <v type="int" >      172 </v>
  <v type="int" >       73 </v>
  <v type="int" >       25 </v>
  <v type="int" >       12 </v>
  <v type="int" >      116 </v>
  <v type="int" >      219 </v>
  <v type="int" >      206 </v>
  <v type="int" >       48 </v>
  <v type="int" >      282 </v>
  <v type="int" >      164 </v>
  <v type="int" >      268 </v>
  <v type="int" >      281 </v>
  <v type="int" >      245 </v>
  <v type="int" >      120 </v>
  <v type="int" >       14 </v>
  <v type="int" >      104 </v>
  <v type="int" >      150 </v>
  <v type="int" >      124 </v>
  <v type="int" >      266 </v>
  <v type="int" >       29 </v>
  <v type="int" >      255 </v>
  <v type="int" >      191 </v>
  <v type="int" >      190 </v>
  <v type="int" >      279 </v>
  <v type="int" >      287 </v>
  <v type="int" >      165 </v>
  <v type="int" >       18 </v>
  <v type="int" >       13 </v>
  <v type="int" >      231 </v>
  <v type="int" >      248 </v>
  <v type="int" >      161 </v>
  <v type="int" >       45 </v>
  <v type="int" >      273 </v>
  <v type="int" >       84 </v>
  <v type="int" >      264 </v>
  <v type="int" >        4 </v>
  <v type="int" >      123 </v>
  <v type="int" >       16 </v>
  <v type="int" >       67 </v>
  <v type="int" >       64 </v>
  <v type="int" >        7 </v>
  <v type="int" >       17 </v>
  <v type="int" >      259 </v>
  <v type="int" >      134 </v>
  <v type="int" >       39 </v>
  <v type="int" >        6 </v>
  <v type="int" >      222 </v>
  <v type="int" >      253 </v>
  <v type="int" >       88 </v>
  <v type="int" >        5 </v>
  <v type="int" >      110 </v>
  <v type="int" >       36 </v>
  <v type="int" >      181 </v>
  <v type="int" >      143 </v>
  <v type="int" >      285 </v>
  <v type="int" >      160 </v>
  <v type="int" >       82 </v>
  <v type="int" >      158 </v>
  <v type="int" >       74 </v>
  <v type="int" >      241 </v>
  <v type="int" >       23 </v>
  <v type="int" >      235 </v>
  <v type="int" >      218 </v>
  <v type="int" >      238 </v>
  <v type="int" >      131 </v>
  <v type="int" >      257 </v>
  <v type="int" >      201 </v>
  <v type="int" >      113 </v>
  <v type="int" >       80 </v>
  <v type="int" >      278 </v>
  <v type="int" >      232 </v>
  <v type="int" >       69 </v>
  <v type="int" >      251 </v>
  <v type="int" >      197 </v>
  <v type="int" >        3 </v>
  <v type="int" >      149 </v>
  <v type="int" >       55 </v>
  <v type="int" >      224 </v>
  <v type="int" >      254 </v>
  <v type="int" >       49 </v>
  <v type="int" >      132 </v>
  <v type="int" >      272 </v>
  <v type="int" >      188 </v>
  <v type="int" >      138 </v>
  <v type="int" >       57 </v>
  <v type="int" >      184 </v>
  <v type="int" >       66 </v>
  <v type="int" >       33 </v>
  <v type="int" >       94 </v>
  <v type="int" >      236 </v>
  <v type="int" >      223 </v>
  <v type="int" >      106 </v>
  <v type="int" >      157 </v>
  <v type="int" >      230 </v>
  <v type="int" >       21 </v>
  <v type="int" >      234 </v>
  <v type="int" >       99 </v>
  <v type="int" >       75 </v>
  <v type="int" >      105 </v>
  <v type="int" >      244 </v>
  <v type="int" >      269 </v>
  <v type="int" >      237 </v>
  <v type="int" >      156 </v>
  <v type="int" >      199 </v>
  <v type="int" >      169 </v>
  <v type="int" >        9 </v>
  <v type="int" >       46 </v>
  <v type="int" >      151 </v>
  <v type="int" >      262 </v>
  <v type="int" >      187 </v>
  <v type="int" >       11 </v>
  <v type="int" >      239 </v>
  <v type="int" >       43 </v>
  <v type="int" >      211 </v>
  <v type="int" >       31 </v>
  <v type="int" >       19 </v>
  <v type="int" >       71 </v>
  <v type="int" >       87 </v>
  <v type="int" >      243 </v>
  <v type="int" >      267 </v>
  <v type="int" >       27 </v>
  <v type="int" >      140 </v>
  <v type="int" >      286 </v>
  <v type="int" >       10 </v>
  <v type="int" >      144 </v>
  <v type="int" >      107 </v>
  <v type="int" >      270 </v>
  <v type="int" >       68 </v>
  <v type="int" >      203 </v>
  <v type="int" >      119 </v>
  <v type="int" >       34 </v>
  <v type="int" >      183 </v>
  <v type="int" >      177 </v>
  <v type="int" >      252 </v>
  <v type="int" >      195 </v>
  <v type="int" >       77 </v>
  <v type="int" >      247 </v>
  <v type="int" >      173 </v>
  <v type="int" >      225 </v>
  <v type="int" >       37 </v>
  <v type="int" >      274 </v>
  <v type="int" >       63 </v>
  <v type="int" >      233 </v>
  <v type="int" >      154 </v>
  <v type="int" >       38 </v>
  <v type="int" >      141 </v>
  <v type="int" >       54 </v>
  <v type="int" >      246 </v>
  <v type="int" >      152 </v>
  <v type="int" >       53 </v>
  <v type="int" >      193 </v>
  <v type="int" >       76 </v>
  <v type="int" >      133 </v>
  <v type="int" >      129 </v>
  <v type="int" >      162 </v>
  <v type="int" >       62 </v>
  <v type="int" >       65 </v>
  <v type="int" >       93 </v>
  <v type="int" >      271 </v>
  <v type="int" >       32 </v>
  <v type="int" >       56 </v>
  <v type="int" >       90 </v>
  <v type="int" >       95 </v>
  <v type="int" >       59 </v>
  <v type="int" >       42 </v>
  <v type="int" >        8 </v>
  <v type="int" >      228 </v>
  <v type="int" >       70 </v>
  <v type="int" >      186 </v>
  <v type="int" >      196 </v>
  <v type="int" >      121 </v>
  <v type="int" >      122 </v>
  <v type="int" >       79 </v>
  <v type="int" >        2 </v>
  <v type="int" >      198 </v>
  <v type="int" >      240 </v>
  <v type="int" >      209 </v>
  <v type="int" >      153 </v>
  <v type="int" >       35 </v>
  <v type="int" >      204 </v>
  <v type="int" >       85 </v>
  <v type="int" >      227 </v>
  <v type="int" >       89 </v>
  <v type="int" >       40 </v>
  <v type="int" >       78 </v>
  <v type="int" >      142 </v>
  <v type="int" >       15 </v>
  <v type="int" >      148 </v>
  <v type="int" >      217 </v>
  <v type="int" >      136 </v>
  <v type="int" >      100 </v>
  <v type="int" >       61 </v>
  <v type="int" >       96 </v>
  <v type="int" >      126 </v>
  <v type="int" >      180 </v>
  <v type="int" >      115 </v>
  <v type="int" >      147 </v>
  <v type="int" >      260 </v>
  <v type="int" >       41 </v>
  <v type="int" >       22 </v>
  <v type="int" >      128 </v>
 </varray>
 <kpoints>
  <generation param="Gamma">
   <v type="int" name="divisions">       4        4        1 </v>
   <v name="usershift">      0.00000000       0.00000000       0.00000000 </v>
   <v name="genvec1">      0.25000000       0.00000000       0.00000000 </v>
   <v name="genvec2">      0.00000000       0.25000000       0.00000000 </v>
   <v name="genvec3">      0.00000000       0.00000000       1.00000000 </v>
   <v name="shift">      0.00000000       0.00000000       0.00000000 </v>
  </generation>
  <varray name="kpointlist" >
   <v>       0.00000000       0.00000000       0.00000000 </v>
   <v>       0.25000000       0.00000000       0.00000000 </v>
   <v>       0.50000000       0.00000000       0.00000000 </v>
   <v>       0.00000000       0.25000000       0.00000000 </v>
   <v>       0.25000000       0.25000000       0.00000000 </v>
   <v>       0.50000000       0.25000000       0.00000000 </v>
   <v>      -0.25000000       0.25000000       0.00000000 </v>
   <v>       0.00000000       0.50000000       0.00000000 </v>
   <v>       0.25000000       0.50000000       0.00000000 </v>
   <v>       0.50000000       0.50000000       0.00000000 </v>
  </varray>
  <varray name="weights" >
   <v>       0.06250000 </v>
   <v>       0.12500000 </v>
   <v>       0.06250000 </v>
   <v>       0.12500000 </v>
   <v>       0.12500000 </v>
   <v>       0.12500000 </v>
   <v>       0.12500000 </v>
   <v>       0.06250000 </v>
   <v>       0.12500000 </v>
   <v>       0.06250000 </v>
  </varray>
 </kpoints>
 <parameters>
  <separator name="general" >
   <i type="string" name="SYSTEM">unknown system</i>
   <i type="logical" name="LCOMPAT"> F  </i>
  </separator>
  <separator name="electronic" >
   <i type="string" name="PREC">accura</i>
   <i name="ENMAX">    450.00000000</i>
   <i name="ENAUG">    838.43500000</i>
   <i name="EDIFF">      0.00000100</i>
   <i type="int" name="IALGO">    68</i>
   <i type="int" name="IWAVPR">    11</i>
   <i type="int" name="NBANDS">  1386</i>
   <i name="NELECT">   2290.00000000</i>
   <i type="int" name="TURBO">     0</i>
   <i type="int" name="IRESTART">     0</i>
   <i type="int" name="NREBOOT">     0</i>
   <i type="int" name="NMIN">     0</i>
   <i name="EREF">      0.00000000</i>
   <separator name="electronic smearing" >
    <i type="int" name="ISMEAR">     0</i>
    <i name="SIGMA">      0.15000000</i>
    <i name="KSPACING">      0.50000000</i>
    <i type="logical" name="KGAMMA"> T  </i>
   </separator>
   <separator name="electronic projectors" >
    <i type="logical" name="LREAL"> T  </i>
    <v name="ROPT">     -0.00025000     -0.00025000</v>
    <i type="int" name="LMAXPAW">  -100</i>
    <i type="int" name="LMAXMIX">     2</i>
    <i type="logical" name="NLSPLINE"> F  </i>
   </separator>
   <separator name="electronic startup" >
    <i type="int" name="ISTART">     0</i>
    <i type="int" name="ICHARG">     2</i>
    <i type="int" name="INIWAV">     1</i>
   </separator>
   <separator name="electronic spin" >
    <i type="int" name="ISPIN">     1</i>
    <i type="logical" name="LNONCOLLINEAR"> F  </i>
    <v name="MAGMOM">      1.00000000      1.00000000      1.00000000      1.00000000      1.00000000      1.00000000      1.00000000      1.00000000      1.00000000      1.00000000      1.00000000      1.00000000      1.00000000      1.00000000      1.00000000      1.00000000      1.00000000      1.00000000      1.00000000      1.00000000
      1.00000000      1.00000000      1.00000000      1.00000000      1.00000000      1.00000000      1.00000000      1.00000000      1.00000000      1.00000000      1.00000000      1.00000000      1.00000000      1.00000000      1.00000000      1.00000000      1.00000000      1.00000000      1.00000000      1.00000000
      1.00000000      1.00000000      1.00000000      1.00000000      1.00000000      1.00000000      1.00000000      1.00000000      1.00000000      1.00000000      1.00000000      1.00000000      1.00000000      1.00000000      1.00000000      1.00000000      1.00000000      1.00000000      1.00000000      1.00000000
      1.00000000      1.00000000      1.00000000      1.00000000      1.00000000      1.00000000      1.00000000      1.00000000      1.00000000      1.00000000      1.00000000      1.00000000      1.00000000      1.00000000      1.00000000      1.00000000      1.00000000      1.00000000      1.00000000      1.00000000
      1.00000000      1.00000000      1.00000000      1.00000000      1.00000000      1.00000000      1.00000000      1.00000000      1.00000000      1.00000000      1.00000000      1.00000000      1.00000000      1.00000000      1.00000000      1.00000000      1.00000000      1.00000000      1.00000000      1.00000000
      1.00000000      1.00000000      1.00000000      1.00000000      1.00000000      1.00000000      1.00000000      1.00000000      1.00000000      1.00000000      1.00000000      1.00000000      1.00000000      1.00000000      1.00000000      1.00000000      1.00000000      1.00000000      1.00000000      1.00000000
      1.00000000      1.00000000      1.00000000      1.00000000      1.00000000      1.00000000      1.00000000      1.00000000      1.00000000      1.00000000      1.00000000      1.00000000      1.00000000      1.00000000      1.00000000      1.00000000      1.00000000      1.00000000      1.00000000      1.00000000
      1.00000000      1.00000000      1.00000000      1.00000000      1.00000000      1.00000000      1.00000000      1.00000000      1.00000000      1.00000000      1.00000000      1.00000000      1.00000000      1.00000000      1.00000000      1.00000000      1.00000000      1.00000000      1.00000000      1.00000000
      1.00000000      1.00000000      1.00000000      1.00000000      1.00000000      1.00000000      1.00000000      1.00000000      1.00000000      1.00000000      1.00000000      1.00000000      1.00000000      1.00000000      1.00000000      1.00000000      1.00000000      1.00000000      1.00000000      1.00000000
      1.00000000      1.00000000      1.00000000      1.00000000      1.00000000      1.00000000      1.00000000      1.00000000      1.00000000      1.00000000      1.00000000      1.00000000      1.00000000      1.00000000      1.00000000      1.00000000      1.00000000      1.00000000      1.00000000      1.00000000
      1.00000000      1.00000000      1.00000000      1.00000000      1.00000000      1.00000000      1.00000000      1.00000000      1.00000000      1.00000000      1.00000000      1.00000000      1.00000000      1.00000000      1.00000000      1.00000000      1.00000000      1.00000000      1.00000000      1.00000000
      1.00000000      1.00000000      1.00000000      1.00000000      1.00000000      1.00000000      1.00000000      1.00000000      1.00000000      1.00000000      1.00000000      1.00000000      1.00000000      1.00000000      1.00000000      1.00000000      1.00000000      1.00000000      1.00000000      1.00000000
      1.00000000      1.00000000      1.00000000      1.00000000      1.00000000      1.00000000      1.00000000      1.00000000      1.00000000      1.00000000      1.00000000      1.00000000      1.00000000      1.00000000      1.00000000      1.00000000      1.00000000      1.00000000      1.00000000      1.00000000
      1.00000000      1.00000000      1.00000000      1.00000000      1.00000000      1.00000000      1.00000000      1.00000000      1.00000000      1.00000000      1.00000000      1.00000000      1.00000000      1.00000000      1.00000000      1.00000000      1.00000000      1.00000000      1.00000000      1.00000000
      1.00000000      1.00000000      1.00000000      1.00000000      1.00000000      1.00000000      1.00000000      1.00000000</v>
    <i name="NUPDOWN">     -1.00000000</i>
    <i type="logical" name="LSORBIT"> F  </i>
    <v name="SAXIS">      0.00000000      0.00000000      1.00000000</v>
    <i type="logical" name="LSPIRAL"> F  </i>
    <v name="QSPIRAL">      0.00000000      0.00000000      0.00000000</v>
    <i type="logical" name="LZEROZ"> F  </i>
   </separator>
   <separator name="electronic exchange-correlation" >
    <i type="logical" name="LASPH"> F  </i>
    <i type="logical" name="LMETAGGA"> F  </i>
   </separator>
   <separator name="electronic convergence" >
    <i type="int" name="NELM">   100</i>
    <i type="int" name="NELMDL">     0</i>
    <i type="int" name="NELMIN">     4</i>
    <i name="ENINI">    450.00000000</i>
    <separator name="electronic convergence detail" >
     <i type="logical" name="LDIAG"> T  </i>
     <i type="logical" name="LSUBROT"> F  </i>
     <i name="WEIMIN">      0.00100000</i>
     <i name="EBREAK">      0.00000000</i>
     <i name="DEPER">      0.30000000</i>
     <i type="int" name="NRMM">     4</i>
     <i name="TIME">      0.40000000</i>
    </separator>
   </separator>
   <separator name="electronic mixer" >
    <i name="AMIX">      0.40000000</i>
    <i name="BMIX">      1.00000000</i>
    <i name="AMIN">      0.10000000</i>
    <i name="AMIX_MAG">      1.60000000</i>
    <i name="BMIX_MAG">      1.00000000</i>
    <separator name="electronic mixer details" >
     <i type="int" name="IMIX">     4</i>
     <i type="logical" name="MIXFIRST"> F  </i>
     <i type="int" name="MAXMIX">   -45</i>
     <i name="WC">    100.00000000</i>
     <i type="int" name="INIMIX">     1</i>
     <i type="int" name="MIXPRE">     1</i>
     <i type="int" name="MREMOVE">     5</i>
    </separator>
   </separator>
   <separator name="electronic dipolcorrection" >
    <i type="logical" name="LDIPOL"> F  </i>
    <i type="logical" name="LMONO"> F  </i>
    <i type="int" name="IDIPOL">     0</i>
    <i name="EPSILON">      1.00000000</i>
    <v name="DIPOL">   -100.00000000   -100.00000000   -100.00000000</v>
    <i name="EFIELD">      0.00000000</i>
   </separator>
  </separator>
  <separator name="grids" >
   <i type="int" name="NGX">    70</i>
   <i type="int" name="NGY">    60</i>
   <i type="int" name="NGZ">   320</i>
   <i type="int" name="NGXF">   140</i>
   <i type="int" name="NGYF">   120</i>
   <i type="int" name="NGZF">   640</i>
   <i type="logical" name="ADDGRID"> F  </i>
  </separator>
  <separator name="ionic" >
   <i type="int" name="NSW">     5</i>
   <i type="int" name="IBRION">     2</i>
   <i type="int" name="MDALGO">     0</i>
   <i type="int" name="ISIF">     2</i>
   <i name="PSTRESS">      0.00000000</i>
   <i name="EDIFFG">      0.00001000</i>
   <i type="int" name="NFREE">     1</i>
   <i name="POTIM">      0.25000000</i>
   <i name="SMASS">     -3.00000000</i>
   <i name="SCALEE">      1.00000000</i>
  </separator>
  <separator name="ionic md" >
   <i name="TEBEG">      0.00010000</i>
   <i name="TEEND">      0.00010000</i>
   <i type="int" name="NBLOCK">     1</i>
   <i type="int" name="KBLOCK">     5</i>
   <i type="int" name="NPACO">   256</i>
   <i name="APACO">     16.00000000</i>
  </separator>
  <separator name="symmetry" >
   <i type="int" name="ISYM">     2</i>
   <i name="SYMPREC">      0.00001000</i>
  </separator>
  <separator name="dos" >
   <i type="int" name="LORBIT">     0</i>
   <v name="RWIGS">     -1.00000000     -1.00000000</v>
   <i type="int" name="NEDOS">   301</i>
   <i name="EMIN">     10.00000000</i>
   <i name="EMAX">    -10.00000000</i>
   <i name="EFERMI">      0.00000000</i>
  </separator>
  <separator name="writing" >
   <i type="int" name="NWRITE">     2</i>
   <i type="logical" name="LWAVE"> F  </i>
   <i type="logical" name="LDOWNSAMPLE"> F  </i>
   <i type="logical" name="LCHARG"> F  </i>
   <i type="logical" name="LPARD"> F  </i>
   <i type="logical" name="LVTOT"> F  </i>
   <i type="logical" name="LVHAR"> F  </i>
   <i type="logical" name="LELF"> F  </i>
   <i type="logical" name="LOPTICS"> F  </i>
   <v name="STM">      0.00000000      0.00000000      0.00000000      0.00000000      0.00000000      0.00000000      0.00000000</v>
  </separator>
  <separator name="performance" >
   <i type="int" name="NPAR">    14</i>
   <i type="int" name="NSIM">     4</i>
   <i type="int" name="NBLK">    -1</i>
   <i type="logical" name="LPLANE"> T  </i>
   <i type="logical" name="LSCALAPACK"> T  </i>
   <i type="logical" name="LSCAAWARE"> T  </i>
   <i type="logical" name="LSCALU"> F  </i>
   <i type="logical" name="LASYNC"> F  </i>
   <i type="logical" name="LORBITALREAL"> F  </i>
  </separator>
  <separator name="miscellaneous" >
   <i type="int" name="IDIOT">     3</i>
   <i type="int" name="ISPECIAL">     0</i>
   <i type="logical" name="LMUSIC"> F  </i>
   <v name="POMASS">     55.84700000     54.93800000</v>
   <v name="DARWINR">      0.00000000      0.00000000</v>
   <v name="DARWINV">      1.00000000      1.00000000</v>
   <i type="logical" name="LCORR"> T  </i>
  </separator>
  <i type="logical" name="GGA_COMPAT"> T  </i>
  <i type="logical" name="LBERRY"> F  </i>
  <i type="int" name="ICORELEVEL">     0</i>
  <i type="logical" name="LDAU"> F  </i>
  <i type="int" name="I_CONSTRAINED_M">     0</i>
  <separator name="electronic exchange-correlation" >
   <i type="string" name="GGA">--</i>
   <i type="int" name="VOSKOWN">     0</i>
   <i type="logical" name="LHFCALC"> F  </i>
   <i type="string" name="PRECFOCK"></i>
   <i type="logical" name="LSYMGRAD"> F  </i>
   <i type="logical" name="LHFONE"> F  </i>
   <i type="logical" name="LRHFCALC"> F  </i>
   <i type="logical" name="LTHOMAS"> F  </i>
   <i type="logical" name="LMODELHF"> F  </i>
   <i name="ENCUT4O">     -1.00000000</i>
   <i type="int" name="EXXOEP">     0</i>
   <i type="int" name="FOURORBIT">     0</i>
   <i name="AEXX">      0.00000000</i>
   <i name="HFALPHA">      0.00000000</i>
   <i name="MCALPHA">      0.00000000</i>
   <i name="ALDAX">      1.00000000</i>
   <i name="AGGAX">      1.00000000</i>
   <i name="ALDAC">      1.00000000</i>
   <i name="AGGAC">      1.00000000</i>
   <i type="int" name="NKREDX">     1</i>
   <i type="int" name="NKREDY">     1</i>
   <i type="int" name="NKREDZ">     1</i>
   <i type="logical" name="SHIFTRED"> F  </i>
   <i type="logical" name="ODDONLY"> F  </i>
   <i type="logical" name="EVENONLY"> F  </i>
   <i type="int" name="LMAXFOCK">     0</i>
   <i type="int" name="NMAXFOCKAE">     0</i>
   <i type="logical" name="LFOCKAEDFT"> F  </i>
   <i name="HFSCREEN">      0.00000000</i>
   <i name="HFSCREENC">      0.00000000</i>
   <i type="int" name="NBANDSGWLOW">     0</i>
  </separator>
  <separator name="vdW DFT" >
   <i type="logical" name="LUSE_VDW"> F  </i>
   <i name="Zab_VDW">     -0.84910000</i>
   <i name="PARAM1">      0.12340000</i>
   <i name="PARAM2">      1.00000000</i>
   <i name="PARAM3">      0.00000000</i>
  </separator>
  <separator name="model GW" >
   <i type="int" name="MODEL_GW">     0</i>
   <i name="MODEL_EPS0">      7.68123389</i>
   <i name="MODEL_ALPHA">      1.00000000</i>
  </separator>
  <separator name="linear response parameters" >
   <i type="logical" name="LEPSILON"> F  </i>
   <i type="logical" name="LRPA"> F  </i>
   <i type="logical" name="LNABLA"> F  </i>
   <i type="logical" name="LVEL"> F  </i>
   <i type="int" name="KINTER">     0</i>
   <i name="CSHIFT">      0.10000000</i>
   <i name="OMEGAMAX">     -1.00000000</i>
   <i name="DEG_THRESHOLD">      0.00200000</i>
   <i name="RTIME">     -0.10000000</i>
   <i name="WPLASMAI">      0.00000000</i>
   <v name="DFIELD">      0.00000000      0.00000000      0.00000000</v>
   <v name="WPLASMA">      0.00000000      0.00000000      0.00000000      0.00000000      0.00000000      0.00000000      0.00000000      0.00000000      0.00000000</v>
  </separator>
  <separator name="orbital magnetization" >
   <i type="logical" name="NUCIND"> F  </i>
   <v name="MAGPOS">      0.00000000      0.00000000      0.00000000</v>
   <i type="logical" name="LNICSALL"> T  </i>
   <i type="logical" name="ORBITALMAG"> F  </i>
   <i type="logical" name="LMAGBLOCH"> F  </i>
   <i type="logical" name="LCHIMAG"> F  </i>
   <i type="logical" name="LGAUGE"> T  </i>
   <i type="int" name="MAGATOM">     0</i>
   <v name="MAGDIPOL">      0.00000000      0.00000000      0.00000000</v>
   <v name="AVECCONST">      0.00000000      0.00000000      0.00000000</v>
  </separator>
  <separator name="response functions" >
   <i type="logical" name="LADDER"> F  </i>
   <i type="logical" name="LRPAFORCE"> F  </i>
   <i type="logical" name="LFXC"> F  </i>
   <i type="logical" name="LHARTREE"> T  </i>
   <i type="int" name="IBSE">     0</i>
   <v type="int" name="KPOINT">    -1     0     0     0</v>
   <i type="logical" name="LTCTE"> F  </i>
   <i type="logical" name="LTETE"> F  </i>
   <i type="logical" name="LTRIPLET"> F  </i>
   <i type="logical" name="LFXCEPS"> F  </i>
   <i type="logical" name="LFXHEG"> F  </i>
   <i type="int" name="NATURALO">     2</i>
   <i type="logical" name="L2ORDER"> F  </i>
   <i type="logical" name="LMP2LT"> F  </i>
   <i type="logical" name="LUSEW"> F  </i>
   <i name="ENCUTGW">     -2.00000000</i>
   <i name="ENCUTGWSOFT">     -2.00000000</i>
   <i name="ENCUTLF">     -1.00000000</i>
   <i type="int" name="LMAXMP2">    -1</i>
   <i name="SCISSOR">      0.00000000</i>
   <i type="int" name="NOMEGA">     0</i>
   <i type="int" name="NOMEGAR">     0</i>
   <i type="int" name="NBANDSGW">    -1</i>
   <i type="int" name="NBANDSO">    -1</i>
   <i type="int" name="NBANDSV">    -1</i>
   <i type="int" name="NELM">   100</i>
   <i type="int" name="NELMHF">     1</i>
   <i type="int" name="DIM">     3</i>
   <i type="int" name="ANTIRES">     0</i>
   <i name="OMEGAMAX">    -30.00000000</i>
   <i name="OMEGAMIN">    -30.00000000</i>
   <i name="OMEGATL">   -200.00000000</i>
   <i type="int" name="OMEGAGRID">   140</i>
   <i name="CSHIFT">     -0.10000000</i>
   <i type="logical" name="SELFENERGY"> F  </i>
   <i type="logical" name="LSPECTRAL"> F  </i>
   <i type="logical" name="LSPECTRALGW"> F  </i>
   <i type="logical" name="LSINGLES"> F  </i>
   <i type="logical" name="LFERMIGW"> F  </i>
   <i type="logical" name="ODDONLYGW"> F  </i>
   <i type="logical" name="EVENONLYGW"> F  </i>
   <i type="int" name="NKREDLFX">     1</i>
   <i type="int" name="NKREDLFY">     1</i>
   <i type="int" name="NKREDLFZ">     1</i>
   <i type="int" name="MAXMEM">  2800</i>
   <i type="int" name="TELESCOPE">     0</i>
   <i type="int" name="TAUPAR">     1</i>
   <i type="int" name="OMEGAPAR">    -1</i>
   <i name="LAMBDA">      1.00000000</i>
  </separator>
  <separator name="External order field" >
   <i name="OFIELD_KAPPA">      0.00000000</i>
   <v name="OFIELD_K">      0.00000000      0.00000000      0.00000000</v>
   <i name="OFIELD_Q6_NEAR">      0.00000000</i>
   <i name="OFIELD_Q6_FAR">      0.00000000</i>
   <i name="OFIELD_A">      0.00000000</i>
  </separator>
 </parameters>
 <atominfo>
  <atoms>     288 </atoms>
  <types>       2 </types>
  <array name="atoms" >
   <dimension dim="1">ion</dimension>
   <field type="string">element</field>
   <field type="int">atomtype</field>
   <set>
    <rc><c>Fe</c><c>   1</c></rc>
    <rc><c>Fe</c><c>   1</c></rc>
    <rc><c>Fe</c><c>   1</c></rc>
    <rc><c>Fe</c><c>   1</c></rc>
    <rc><c>Fe</c><c>   1</c></rc>
    <rc><c>Fe</c><c>   1</c></rc>
    <rc><c>Fe</c><c>   1</c></rc>
    <rc><c>Fe</c><c>   1</c></rc>
    <rc><c>Fe</c><c>   1</c></rc>
    <rc><c>Fe</c><c>   1</c></rc>
    <rc><c>Fe</c><c>   1</c></rc>
    <rc><c>Fe</c><c>   1</c></rc>
    <rc><c>Fe</c><c>   1</c></rc>
    <rc><c>Fe</c><c>   1</c></rc>
    <rc><c>Fe</c><c>   1</c></rc>
    <rc><c>Fe</c><c>   1</c></rc>
    <rc><c>Fe</c><c>   1</c></rc>
    <rc><c>Fe</c><c>   1</c></rc>
    <rc><c>Fe</c><c>   1</c></rc>
    <rc><c>Fe</c><c>   1</c></rc>
    <rc><c>Fe</c><c>   1</c></rc>
    <rc><c>Fe</c><c>   1</c></rc>
    <rc><c>Fe</c><c>   1</c></rc>
    <rc><c>Fe</c><c>   1</c></rc>
    <rc><c>Fe</c><c>   1</c></rc>
    <rc><c>Fe</c><c>   1</c></rc>
    <rc><c>Fe</c><c>   1</c></rc>
    <rc><c>Fe</c><c>   1</c></rc>
    <rc><c>Fe</c><c>   1</c></rc>
    <rc><c>Fe</c><c>   1</c></rc>
    <rc><c>Fe</c><c>   1</c></rc>
    <rc><c>Fe</c><c>   1</c></rc>
    <rc><c>Fe</c><c>   1</c></rc>
    <rc><c>Fe</c><c>   1</c></rc>
    <rc><c>Fe</c><c>   1</c></rc>
    <rc><c>Fe</c><c>   1</c></rc>
    <rc><c>Fe</c><c>   1</c></rc>
    <rc><c>Fe</c><c>   1</c></rc>
    <rc><c>Fe</c><c>   1</c></rc>
    <rc><c>Fe</c><c>   1</c></rc>
    <rc><c>Fe</c><c>   1</c></rc>
    <rc><c>Fe</c><c>   1</c></rc>
    <rc><c>Fe</c><c>   1</c></rc>
    <rc><c>Fe</c><c>   1</c></rc>
    <rc><c>Fe</c><c>   1</c></rc>
    <rc><c>Fe</c><c>   1</c></rc>
    <rc><c>Fe</c><c>   1</c></rc>
    <rc><c>Fe</c><c>   1</c></rc>
    <rc><c>Fe</c><c>   1</c></rc>
    <rc><c>Fe</c><c>   1</c></rc>
    <rc><c>Fe</c><c>   1</c></rc>
    <rc><c>Fe</c><c>   1</c></rc>
    <rc><c>Fe</c><c>   1</c></rc>
    <rc><c>Fe</c><c>   1</c></rc>
    <rc><c>Fe</c><c>   1</c></rc>
    <rc><c>Fe</c><c>   1</c></rc>
    <rc><c>Fe</c><c>   1</c></rc>
    <rc><c>Fe</c><c>   1</c></rc>
    <rc><c>Fe</c><c>   1</c></rc>
    <rc><c>Fe</c><c>   1</c></rc>
    <rc><c>Fe</c><c>   1</c></rc>
    <rc><c>Fe</c><c>   1</c></rc>
    <rc><c>Fe</c><c>   1</c></rc>
    <rc><c>Fe</c><c>   1</c></rc>
    <rc><c>Fe</c><c>   1</c></rc>
    <rc><c>Fe</c><c>   1</c></rc>
    <rc><c>Fe</c><c>   1</c></rc>
    <rc><c>Fe</c><c>   1</c></rc>
    <rc><c>Fe</c><c>   1</c></rc>
    <rc><c>Fe</c><c>   1</c></rc>
    <rc><c>Fe</c><c>   1</c></rc>
    <rc><c>Fe</c><c>   1</c></rc>
    <rc><c>Fe</c><c>   1</c></rc>
    <rc><c>Fe</c><c>   1</c></rc>
    <rc><c>Fe</c><c>   1</c></rc>
    <rc><c>Fe</c><c>   1</c></rc>
    <rc><c>Fe</c><c>   1</c></rc>
    <rc><c>Fe</c><c>   1</c></rc>
    <rc><c>Fe</c><c>   1</c></rc>
    <rc><c>Fe</c><c>   1</c></rc>
    <rc><c>Fe</c><c>   1</c></rc>
    <rc><c>Fe</c><c>   1</c></rc>
    <rc><c>Fe</c><c>   1</c></rc>
    <rc><c>Fe</c><c>   1</c></rc>
    <rc><c>Fe</c><c>   1</c></rc>
    <rc><c>Fe</c><c>   1</c></rc>
    <rc><c>Fe</c><c>   1</c></rc>
    <rc><c>Fe</c><c>   1</c></rc>
    <rc><c>Fe</c><c>   1</c></rc>
    <rc><c>Fe</c><c>   1</c></rc>
    <rc><c>Fe</c><c>   1</c></rc>
    <rc><c>Fe</c><c>   1</c></rc>
    <rc><c>Fe</c><c>   1</c></rc>
    <rc><c>Fe</c><c>   1</c></rc>
    <rc><c>Fe</c><c>   1</c></rc>
    <rc><c>Fe</c><c>   1</c></rc>
    <rc><c>Fe</c><c>   1</c></rc>
    <rc><c>Fe</c><c>   1</c></rc>
    <rc><c>Fe</c><c>   1</c></rc>
    <rc><c>Fe</c><c>   1</c></rc>
    <rc><c>Fe</c><c>   1</c></rc>
    <rc><c>Fe</c><c>   1</c></rc>
    <rc><c>Fe</c><c>   1</c></rc>
    <rc><c>Fe</c><c>   1</c></rc>
    <rc><c>Fe</c><c>   1</c></rc>
    <rc><c>Fe</c><c>   1</c></rc>
    <rc><c>Fe</c><c>   1</c></rc>
    <rc><c>Fe</c><c>   1</c></rc>
    <rc><c>Fe</c><c>   1</c></rc>
    <rc><c>Fe</c><c>   1</c></rc>
    <rc><c>Fe</c><c>   1</c></rc>
    <rc><c>Fe</c><c>   1</c></rc>
    <rc><c>Fe</c><c>   1</c></rc>
    <rc><c>Fe</c><c>   1</c></rc>
    <rc><c>Fe</c><c>   1</c></rc>
    <rc><c>Fe</c><c>   1</c></rc>
    <rc><c>Fe</c><c>   1</c></rc>
    <rc><c>Fe</c><c>   1</c></rc>
    <rc><c>Fe</c><c>   1</c></rc>
    <rc><c>Fe</c><c>   1</c></rc>
    <rc><c>Fe</c><c>   1</c></rc>
    <rc><c>Fe</c><c>   1</c></rc>
    <rc><c>Fe</c><c>   1</c></rc>
    <rc><c>Fe</c><c>   1</c></rc>
    <rc><c>Fe</c><c>   1</c></rc>
    <rc><c>Fe</c><c>   1</c></rc>
    <rc><c>Fe</c><c>   1</c></rc>
    <rc><c>Fe</c><c>   1</c></rc>
    <rc><c>Fe</c><c>   1</c></rc>
    <rc><c>Fe</c><c>   1</c></rc>
    <rc><c>Fe</c><c>   1</c></rc>
    <rc><c>Fe</c><c>   1</c></rc>
    <rc><c>Fe</c><c>   1</c></rc>
    <rc><c>Fe</c><c>   1</c></rc>
    <rc><c>Fe</c><c>   1</c></rc>
    <rc><c>Fe</c><c>   1</c></rc>
    <rc><c>Fe</c><c>   1</c></rc>
    <rc><c>Fe</c><c>   1</c></rc>
    <rc><c>Fe</c><c>   1</c></rc>
    <rc><c>Fe</c><c>   1</c></rc>
    <rc><c>Fe</c><c>   1</c></rc>
    <rc><c>Fe</c><c>   1</c></rc>
    <rc><c>Fe</c><c>   1</c></rc>
    <rc><c>Fe</c><c>   1</c></rc>
    <rc><c>Fe</c><c>   1</c></rc>
    <rc><c>Fe</c><c>   1</c></rc>
    <rc><c>Fe</c><c>   1</c></rc>
    <rc><c>Fe</c><c>   1</c></rc>
    <rc><c>Fe</c><c>   1</c></rc>
    <rc><c>Fe</c><c>   1</c></rc>
    <rc><c>Fe</c><c>   1</c></rc>
    <rc><c>Fe</c><c>   1</c></rc>
    <rc><c>Fe</c><c>   1</c></rc>
    <rc><c>Fe</c><c>   1</c></rc>
    <rc><c>Fe</c><c>   1</c></rc>
    <rc><c>Fe</c><c>   1</c></rc>
    <rc><c>Fe</c><c>   1</c></rc>
    <rc><c>Fe</c><c>   1</c></rc>
    <rc><c>Fe</c><c>   1</c></rc>
    <rc><c>Fe</c><c>   1</c></rc>
    <rc><c>Fe</c><c>   1</c></rc>
    <rc><c>Fe</c><c>   1</c></rc>
    <rc><c>Fe</c><c>   1</c></rc>
    <rc><c>Fe</c><c>   1</c></rc>
    <rc><c>Fe</c><c>   1</c></rc>
    <rc><c>Fe</c><c>   1</c></rc>
    <rc><c>Fe</c><c>   1</c></rc>
    <rc><c>Fe</c><c>   1</c></rc>
    <rc><c>Fe</c><c>   1</c></rc>
    <rc><c>Fe</c><c>   1</c></rc>
    <rc><c>Fe</c><c>   1</c></rc>
    <rc><c>Fe</c><c>   1</c></rc>
    <rc><c>Fe</c><c>   1</c></rc>
    <rc><c>Fe</c><c>   1</c></rc>
    <rc><c>Fe</c><c>   1</c></rc>
    <rc><c>Fe</c><c>   1</c></rc>
    <rc><c>Fe</c><c>   1</c></rc>
    <rc><c>Fe</c><c>   1</c></rc>
    <rc><c>Fe</c><c>   1</c></rc>
    <rc><c>Fe</c><c>   1</c></rc>
    <rc><c>Fe</c><c>   1</c></rc>
    <rc><c>Fe</c><c>   1</c></rc>
    <rc><c>Fe</c><c>   1</c></rc>
    <rc><c>Fe</c><c>   1</c></rc>
    <rc><c>Fe</c><c>   1</c></rc>
    <rc><c>Fe</c><c>   1</c></rc>
    <rc><c>Fe</c><c>   1</c></rc>
    <rc><c>Fe</c><c>   1</c></rc>
    <rc><c>Fe</c><c>   1</c></rc>
    <rc><c>Fe</c><c>   1</c></rc>
    <rc><c>Fe</c><c>   1</c></rc>
    <rc><c>Fe</c><c>   1</c></rc>
    <rc><c>Fe</c><c>   1</c></rc>
    <rc><c>Fe</c><c>   1</c></rc>
    <rc><c>Fe</c><c>   1</c></rc>
    <rc><c>Fe</c><c>   1</c></rc>
    <rc><c>Fe</c><c>   1</c></rc>
    <rc><c>Fe</c><c>   1</c></rc>
    <rc><c>Fe</c><c>   1</c></rc>
    <rc><c>Fe</c><c>   1</c></rc>
    <rc><c>Fe</c><c>   1</c></rc>
    <rc><c>Fe</c><c>   1</c></rc>
    <rc><c>Fe</c><c>   1</c></rc>
    <rc><c>Fe</c><c>   1</c></rc>
    <rc><c>Fe</c><c>   1</c></rc>
    <rc><c>Fe</c><c>   1</c></rc>
    <rc><c>Fe</c><c>   1</c></rc>
    <rc><c>Fe</c><c>   1</c></rc>
    <rc><c>Fe</c><c>   1</c></rc>
    <rc><c>Fe</c><c>   1</c></rc>
    <rc><c>Fe</c><c>   1</c></rc>
    <rc><c>Fe</c><c>   1</c></rc>
    <rc><c>Fe</c><c>   1</c></rc>
    <rc><c>Fe</c><c>   1</c></rc>
    <rc><c>Fe</c><c>   1</c></rc>
    <rc><c>Fe</c><c>   1</c></rc>
    <rc><c>Fe</c><c>   1</c></rc>
    <rc><c>Fe</c><c>   1</c></rc>
    <rc><c>Fe</c><c>   1</c></rc>
    <rc><c>Fe</c><c>   1</c></rc>
    <rc><c>Fe</c><c>   1</c></rc>
    <rc><c>Fe</c><c>   1</c></rc>
    <rc><c>Fe</c><c>   1</c></rc>
    <rc><c>Fe</c><c>   1</c></rc>
    <rc><c>Fe</c><c>   1</c></rc>
    <rc><c>Fe</c><c>   1</c></rc>
    <rc><c>Fe</c><c>   1</c></rc>
    <rc><c>Fe</c><c>   1</c></rc>
    <rc><c>Fe</c><c>   1</c></rc>
    <rc><c>Fe</c><c>   1</c></rc>
    <rc><c>Fe</c><c>   1</c></rc>
    <rc><c>Fe</c><c>   1</c></rc>
    <rc><c>Fe</c><c>   1</c></rc>
    <rc><c>Fe</c><c>   1</c></rc>
    <rc><c>Fe</c><c>   1</c></rc>
    <rc><c>Fe</c><c>   1</c></rc>
    <rc><c>Fe</c><c>   1</c></rc>
    <rc><c>Fe</c><c>   1</c></rc>
    <rc><c>Fe</c><c>   1</c></rc>
    <rc><c>Fe</c><c>   1</c></rc>
    <rc><c>Fe</c><c>   1</c></rc>
    <rc><c>Fe</c><c>   1</c></rc>
    <rc><c>Fe</c><c>   1</c></rc>
    <rc><c>Fe</c><c>   1</c></rc>
    <rc><c>Fe</c><c>   1</c></rc>
    <rc><c>Fe</c><c>   1</c></rc>
    <rc><c>Fe</c><c>   1</c></rc>
    <rc><c>Fe</c><c>   1</c></rc>
    <rc><c>Fe</c><c>   1</c></rc>
    <rc><c>Fe</c><c>   1</c></rc>
    <rc><c>Fe</c><c>   1</c></rc>
    <rc><c>Fe</c><c>   1</c></rc>
    <rc><c>Fe</c><c>   1</c></rc>
    <rc><c>Fe</c><c>   1</c></rc>
    <rc><c>Fe</c><c>   1</c></rc>
    <rc><c>Fe</c><c>   1</c></rc>
    <rc><c>Fe</c><c>   1</c></rc>
    <rc><c>Fe</c><c>   1</c></rc>
    <rc><c>Fe</c><c>   1</c></rc>
    <rc><c>Fe</c><c>   1</c></rc>
    <rc><c>Fe</c><c>   1</c></rc>
    <rc><c>Fe</c><c>   1</c></rc>
    <rc><c>Fe</c><c>   1</c></rc>
    <rc><c>Fe</c><c>   1</c></rc>
    <rc><c>Fe</c><c>   1</c></rc>
    <rc><c>Fe</c><c>   1</c></rc>
    <rc><c>Fe</c><c>   1</c></rc>
    <rc><c>Fe</c><c>   1</c></rc>
    <rc><c>Fe</c><c>   1</c></rc>
    <rc><c>Fe</c><c>   1</c></rc>
    <rc><c>Fe</c><c>   1</c></rc>
    <rc><c>Fe</c><c>   1</c></rc>
    <rc><c>Fe</c><c>   1</c></rc>
    <rc><c>Fe</c><c>   1</c></rc>
    <rc><c>Mn</c><c>   2</c></rc>
    <rc><c>Mn</c><c>   2</c></rc>
    <rc><c>Mn</c><c>   2</c></rc>
    <rc><c>Mn</c><c>   2</c></rc>
    <rc><c>Mn</c><c>   2</c></rc>
    <rc><c>Mn</c><c>   2</c></rc>
    <rc><c>Mn</c><c>   2</c></rc>
    <rc><c>Mn</c><c>   2</c></rc>
    <rc><c>Mn</c><c>   2</c></rc>
    <rc><c>Mn</c><c>   2</c></rc>
    <rc><c>Mn</c><c>   2</c></rc>
    <rc><c>Mn</c><c>   2</c></rc>
    <rc><c>Mn</c><c>   2</c></rc>
    <rc><c>Mn</c><c>   2</c></rc>
   </set>
  </array>
  <array name="atomtypes" >
   <dimension dim="1">type</dimension>
   <field type="int">atomspertype</field>
   <field type="string">element</field>
   <field>mass</field>
   <field>valence</field>
   <field type="string">pseudopotential</field>
   <set>
    <rc><c> 274</c><c>Fe</c><c>     55.84700000</c><c>      8.00000000</c><c>  PAW_PBE Fe_GW 31Mar2010               </c></rc>
    <rc><c>  14</c><c>Mn</c><c>     54.93800000</c><c>      7.00000000</c><c>  PAW_PBE Mn_GW 31Mar2010               </c></rc>
   </set>
  </array>
 </atominfo>
 <structure name="initialpos" >
  <crystal>
   <varray name="basis" >
    <v>       9.72667804       0.00000000       0.00000000 </v>
    <v>       0.00000000       8.42355028       0.00000000 </v>
    <v>       0.00000000       0.00000000      45.00000000 </v>
   </varray>
   <i name="volume">   3686.99226691 </i>
   <varray name="rec_basis" >
    <v>       0.10281002       0.00000000       0.00000000 </v>
    <v>       0.00000000       0.11871479       0.00000000 </v>
    <v>       0.00000000       0.00000000       0.02222222 </v>
   </varray>
  </crystal>
  <varray name="positions" >
   <v>       0.06256237       0.03226808       0.12414751 </v>
   <v>       0.31591570       0.87399132       0.65559662 </v>
   <v>       0.18480369       0.12277813       0.78899764 </v>
   <v>       0.44132150       0.28776619       0.38889252 </v>
   <v>       0.31770461       0.71085643       0.83337973 </v>
   <v>       0.81631408       0.21247068       0.83360021 </v>
   <v>       0.19006886       0.96281468       0.83390600 </v>
   <v>       0.56223919       0.20728177       0.56491013 </v>
   <v>       0.06581143       0.04013615       0.74450120 </v>
   <v>       0.81177830       0.87090977       0.52119300 </v>
   <v>       0.19096742       0.29006009       0.74435495 </v>
   <v>       0.93384434       0.45236765       0.34463418 </v>
   <v>       0.94058108       0.28673105       0.38889068 </v>
   <v>       0.81411015       0.03969449       0.87547370 </v>
   <v>       0.18426541       0.78750363       0.61080943 </v>
   <v>       0.56613361       0.03791014       0.38892729 </v>
   <v>       0.94159016       0.96232942       0.83367164 </v>
   <v>       0.31538745       0.53956585       0.87605637 </v>
   <v>       0.69022506       0.29068387       0.74446013 </v>
   <v>       0.18359808       0.61519944       0.16644756 </v>
   <v>       0.81193369       0.20664657       0.47852035 </v>
   <v>       0.80949837       0.53819683       0.61092968 </v>
   <v>       0.31222402       0.87009871       0.43435258 </v>
   <v>       0.81045575       0.03892251       0.25593048 </v>
   <v>       0.68346945       0.95245115       0.34467252 </v>
   <v>       0.93101608       0.11436634       0.16666810 </v>
   <v>       0.06156798       0.87071580       0.52116910 </v>
   <v>       0.55781229       0.53914074       0.25544419 </v>
   <v>       0.68677071       0.79310572       0.87557720 </v>
   <v>       0.55646359       0.36593519       0.16614633 </v>
   <v>       0.44033615       0.78971676       0.74472017 </v>
   <v>       0.81170553       0.70675227       0.56490002 </v>
   <v>       0.56136705       0.87153601       0.78900492 </v>
   <v>       0.68672952       0.12176458       0.52126442 </v>
   <v>       0.81685994       0.37498478       0.65556996 </v>
   <v>       0.94129258       0.46370413       0.83353095 </v>
   <v>       0.06004968       0.20812145       0.70036809 </v>
   <v>       0.43520586       0.95809190       0.70056675 </v>
   <v>       0.31570886       0.21143894       0.83393905 </v>
   <v>       0.44078552       0.62372087       0.65546797 </v>
   <v>       0.30852937       0.53785236       0.61084542 </v>
   <v>       0.93713384       0.45684467       0.56506666 </v>
   <v>       0.69022888       0.79024611       0.74470456 </v>
   <v>       0.93358714       0.78794754       0.12454324 </v>
   <v>       0.69112865       0.78816388       0.38895955 </v>
   <v>       0.93998265       0.78922478       0.74467324 </v>
   <v>       0.06010432       0.20286466       0.34477740 </v>
   <v>       0.68397210       0.45176887       0.34500900 </v>
   <v>       0.43670440       0.12251500       0.78921634 </v>
   <v>       0.06545826       0.20486691       0.21088267 </v>
   <v>       0.05545437       0.36615974       0.16645797 </v>
   <v>       0.93430130       0.78911862       0.25564794 </v>
   <v>       0.56003558       0.20798433       0.70046820 </v>
   <v>       0.68473692       0.95773311       0.70056779 </v>
   <v>       0.80938283       0.87168113       0.78898795 </v>
   <v>       0.43713843       0.95694804       0.56484633 </v>
   <v>       0.81003408       0.37367868       0.78882073 </v>
   <v>       0.68515498       0.28870730       0.25569102 </v>
   <v>       0.18719119       0.45693239       0.56504022 </v>
   <v>       0.05685090       0.86508072       0.16655094 </v>
   <v>       0.18426519       0.28897545       0.61097949 </v>
   <v>       0.06263722       0.20774728       0.56500346 </v>
   <v>       0.31117848       0.20815734       0.70035606 </v>
   <v>       0.56342283       0.54141591       0.87593739 </v>
   <v>       0.06202337       0.70633689       0.56503369 </v>
   <v>       0.68496661       0.62214405       0.78909669 </v>
   <v>       0.31637349       0.53784759       0.38883375 </v>
   <v>       0.18658076       0.62141670       0.52122092 </v>
   <v>       0.56242024       0.87035029       0.43432755 </v>
   <v>       0.43733563       0.45786756       0.56493975 </v>
   <v>       0.44046781       0.29071311       0.74436897 </v>
   <v>       0.81921637       0.87566889       0.30018203 </v>
   <v>       0.80958029       0.70327503       0.34476152 </v>
   <v>       0.44156449       0.46223288       0.83364796 </v>
   <v>       0.68765937       0.95562171       0.47851555 </v>
   <v>       0.68523760       0.45735543       0.70052371 </v>
   <v>       0.56175137       0.87154411       0.52132382 </v>
   <v>       0.56585298       0.37445781       0.65552964 </v>
   <v>       0.81628304       0.87387066       0.65559315 </v>
   <v>       0.81143593       0.37110672       0.43438022 </v>
   <v>       0.80959301       0.53851589       0.25586091 </v>
   <v>       0.69059689       0.46240812       0.83342561 </v>
   <v>       0.18815377       0.78728138       0.12407740 </v>
   <v>       0.69089955       0.28759260       0.38879946 </v>
   <v>       0.31552347       0.37435748       0.65544407 </v>
   <v>       0.30911613       0.20287176       0.34478350 </v>
   <v>       0.81493425       0.54105104       0.74454717 </v>
   <v>       0.69104440       0.96109610       0.83346420 </v>
   <v>       0.56594947       0.87313192       0.65549304 </v>
   <v>       0.31183319       0.70758569       0.56504635 </v>
   <v>       0.31286032       0.53198011       0.12394718 </v>
   <v>       0.68845498       0.95542005       0.21105722 </v>
   <v>       0.31180797       0.20690221       0.56498408 </v>
   <v>       0.18722338       0.95547431       0.47864036 </v>
   <v>       0.68706417       0.95696838       0.56504119 </v>
   <v>       0.43418692       0.78775836       0.61070711 </v>
   <v>       0.68229911       0.61265067       0.16608114 </v>
   <v>       0.31829219       0.87456544       0.30024540 </v>
   <v>       0.31201258       0.70492627       0.47854881 </v>
   <v>       0.93455163       0.28867272       0.61084294 </v>
   <v>       0.44420838       0.62513983       0.30044703 </v>
   <v>       0.80713362       0.86397358       0.16665787 </v>
   <v>       0.56585631       0.20319125       0.21106981 </v>
   <v>       0.93655604       0.29256674       0.87562480 </v>
   <v>       0.43728218       0.95532932       0.47858106 </v>
   <v>       0.56115168       0.37348826       0.78904112 </v>
   <v>       0.06108120       0.37239483       0.52122844 </v>
   <v>       0.30744015       0.36344834       0.16642237 </v>
   <v>       0.69546737       0.12250183       0.30016912 </v>
   <v>       0.44224596       0.96193830       0.83351460 </v>
   <v>       0.18570422       0.28574229       0.12418373 </v>
   <v>       0.18403279       0.28878189       0.25581140 </v>
   <v>       0.31141010       0.37095629       0.43436935 </v>
   <v>       0.56000429       0.03317887       0.12379980 </v>
   <v>       0.43344622       0.28879870       0.61089094 </v>
   <v>       0.18418394       0.45246468       0.34495505 </v>
   <v>       0.43405343       0.28503414       0.12388528 </v>
   <v>       0.68414713       0.78918084       0.25581278 </v>
   <v>       0.43650249       0.12116973       0.52117826 </v>
   <v>       0.18930361       0.29130224       0.87611932 </v>
   <v>       0.19084999       0.12566663       0.65554480 </v>
   <v>       0.94115080       0.12563736       0.65542775 </v>
   <v>       0.81559975       0.53768467       0.38878042 </v>
   <v>       0.06706461       0.03806754       0.38891611 </v>
   <v>       0.18319247       0.11358179       0.16630944 </v>
   <v>       0.05930868       0.53770534       0.61091109 </v>
   <v>       0.93503664       0.28808246       0.25582591 </v>
   <v>       0.55888453       0.53868410       0.61089035 </v>
   <v>       0.93732514       0.95767106       0.56501447 </v>
   <v>       0.69405516       0.62538899       0.30020333 </v>
   <v>       0.93737512       0.62059708       0.43441976 </v>
   <v>       0.93378915       0.62308309       0.78890296 </v>
   <v>       0.56029825       0.70692992       0.70054147 </v>
   <v>       0.06497591       0.71356676       0.83392358 </v>
   <v>       0.94388230       0.12320524       0.29997829 </v>
   <v>       0.93430423       0.78735737       0.61086660 </v>
   <v>       0.43329184       0.78846489       0.25566845 </v>
   <v>       0.31140967       0.37350752       0.78880750 </v>
   <v>       0.43954195       0.45669392       0.21107587 </v>
   <v>       0.18649096       0.12152484       0.52122326 </v>
   <v>       0.80992234       0.70654849       0.70055282 </v>
   <v>       0.05879998       0.03877696       0.61073087 </v>
   <v>       0.56586589       0.21248608       0.83360286 </v>
   <v>       0.31133748       0.87136476       0.52129141 </v>
   <v>       0.68561242       0.28708268       0.12384434 </v>
   <v>       0.18964318       0.95510297       0.21112057 </v>
   <v>       0.68417730       0.28891179       0.61070138 </v>
   <v>       0.30910817       0.03860248       0.61078626 </v>
   <v>       0.93467809       0.12353676       0.78895419 </v>
   <v>       0.43791830       0.79386169       0.87613995 </v>
   <v>       0.81457098       0.04093336       0.74461056 </v>
   <v>       0.93468349       0.45803421       0.70042975 </v>
   <v>       0.19062687       0.62402616       0.65545737 </v>
   <v>       0.31077445       0.70700456       0.70057329 </v>
   <v>       0.93427283       0.28702138       0.12390783 </v>
   <v>       0.43750524       0.45554947       0.47842225 </v>
   <v>       0.06222420       0.70469931       0.47851555 </v>
   <v>       0.93724707       0.12011302       0.43475849 </v>
   <v>       0.44315200       0.12419143       0.30043265 </v>
   <v>       0.18730980       0.12050407       0.43432588 </v>
   <v>       0.56254210       0.04091456       0.87591210 </v>
   <v>       0.18690046       0.95759078       0.56505175 </v>
   <v>       0.68352484       0.78825116       0.12428908 </v>
   <v>       0.55869338       0.70296205       0.34479230 </v>
   <v>       0.31574179       0.03748352       0.38870973 </v>
   <v>       0.68225016       0.11499482       0.16678046 </v>
   <v>       0.81525972       0.20433820       0.21105019 </v>
   <v>       0.06063994       0.53871705       0.25572761 </v>
   <v>       0.56261290       0.70496592       0.47847859 </v>
   <v>       0.43451521       0.78767954       0.12389418 </v>
   <v>       0.56840045       0.37408287       0.30033738 </v>
   <v>       0.43358854       0.95306709       0.34488335 </v>
   <v>       0.18549966       0.95793220       0.70054762 </v>
   <v>       0.43036821       0.61500225       0.16624723 </v>
   <v>       0.94087549       0.45529845       0.21145535 </v>
   <v>       0.06123291       0.53051008       0.12399976 </v>
   <v>       0.81214418       0.37207104       0.52128788 </v>
   <v>       0.94426077       0.62458598       0.29995821 </v>
   <v>       0.30861156       0.03815679       0.25541821 </v>
   <v>       0.68391525       0.78751660       0.61074848 </v>
   <v>       0.19191410       0.46169916       0.83356785 </v>
   <v>       0.43232354       0.11341011       0.16622696 </v>
   <v>       0.31059236       0.37177811       0.52122374 </v>
   <v>       0.43605429       0.62192526       0.78916444 </v>
   <v>       0.05894576       0.03866953       0.25575127 </v>
   <v>       0.56180734       0.70738221       0.56501989 </v>
   <v>       0.93962230       0.29032062       0.74457241 </v>
   <v>       0.68467101       0.12258485       0.78901223 </v>
   <v>       0.18974074       0.45529937       0.21089601 </v>
   <v>       0.94134984       0.78783604       0.38889447 </v>
   <v>       0.68623983       0.29752153       0.87599908 </v>
   <v>       0.55532509       0.86531931       0.16646991 </v>
   <v>       0.43539229       0.45770748       0.70044430 </v>
   <v>       0.93427226       0.95163457       0.34459140 </v>
   <v>       0.68688082       0.62157233       0.52130651 </v>
   <v>       0.06568896       0.87427274       0.65553387 </v>
   <v>       0.05931292       0.87218750       0.78889821 </v>
   <v>       0.06598346       0.37464005       0.65535563 </v>
   <v>       0.68726939       0.45520418       0.47848962 </v>
   <v>       0.18457988       0.78867895       0.25550889 </v>
   <v>       0.43710163       0.12025804       0.43438318 </v>
   <v>       0.81258797       0.03317712       0.12394505 </v>
   <v>       0.93632517       0.62130528       0.52130087 </v>
   <v>       0.44092735       0.12560311       0.65555788 </v>
   <v>       0.81286451       0.53048230       0.12385378 </v>
   <v>       0.43358210       0.45262291       0.34506072 </v>
   <v>       0.80936257       0.20304380       0.34481735 </v>
   <v>       0.30909488       0.70263305       0.34475917 </v>
   <v>       0.69141544       0.12507584       0.65561142 </v>
   <v>       0.56951639       0.87398089       0.30047944 </v>
   <v>       0.06484676       0.54050437       0.74460186 </v>
   <v>       0.94070632       0.95526861       0.21106264 </v>
   <v>       0.81622910       0.70535046       0.21131253 </v>
   <v>       0.06897109       0.87468511       0.30018986 </v>
   <v>       0.19399542       0.12440430       0.30022608 </v>
   <v>       0.05938778       0.70222706       0.34465055 </v>
   <v>       0.80985458       0.03872859       0.61067774 </v>
   <v>       0.06299528       0.37107372       0.43448750 </v>
   <v>       0.55965565       0.20350200       0.34490826 </v>
   <v>       0.82005716       0.37404580       0.30018627 </v>
   <v>       0.56001104       0.03868254       0.25546124 </v>
   <v>       0.56578211       0.53768416       0.38886655 </v>
   <v>       0.06216880       0.20653857       0.47853703 </v>
   <v>       0.31226854       0.87092249       0.78855062 </v>
   <v>       0.93467515       0.95818084       0.70039358 </v>
   <v>       0.06847077       0.37475793       0.30022327 </v>
   <v>       0.69120470       0.62402774       0.65560430 </v>
   <v>       0.68721865       0.45790790       0.56477610 </v>
   <v>       0.43937208       0.95595398       0.21128912 </v>
   <v>       0.31192543       0.20592226       0.47853765 </v>
   <v>       0.81361890       0.54230716       0.87564975 </v>
   <v>       0.68810647       0.62020877       0.43445019 </v>
   <v>       0.80994771       0.20838169       0.70046017 </v>
   <v>       0.81241530       0.70474918       0.47849370 </v>
   <v>       0.81142943       0.86999973       0.43440351 </v>
   <v>       0.93698154       0.95509600       0.47865237 </v>
   <v>       0.56285549       0.20568058       0.47857646 </v>
   <v>       0.18695220       0.61977894       0.43427433 </v>
   <v>       0.31555025       0.04111488       0.74414875 </v>
   <v>       0.94101693       0.62381110       0.65545806 </v>
   <v>       0.56586759       0.71067878       0.83342457 </v>
   <v>       0.31841608       0.37379706       0.30024650 </v>
   <v>       0.31579061       0.54107408       0.74458044 </v>
   <v>       0.18701685       0.45519231       0.47859688 </v>
   <v>       0.31414359       0.04167337       0.87596882 </v>
   <v>       0.18468664       0.45839413       0.70041459 </v>
   <v>       0.56234479       0.37179945       0.52128299 </v>
   <v>       0.19133927       0.28798358       0.38880697 </v>
   <v>       0.31508367       0.20507202       0.21099147 </v>
   <v>       0.06706337       0.70557707       0.21112619 </v>
   <v>       0.56235564       0.37064215       0.43438576 </v>
   <v>       0.43650384       0.62213407       0.52116151 </v>
   <v>       0.81572535       0.71243922       0.83343722 </v>
   <v>       0.05995823       0.37378041       0.78873021 </v>
   <v>       0.43736709       0.29554415       0.87631582 </v>
   <v>       0.31304445       0.03151220       0.12379029 </v>
   <v>       0.68764917       0.11961946       0.43432760 </v>
   <v>       0.18441376       0.95314518       0.34484915 </v>
   <v>       0.06709926       0.21122272       0.83396020 </v>
   <v>       0.55895712       0.03839498       0.61065117 </v>
   <v>       0.68850891       0.45633672       0.21146222 </v>
   <v>       0.19038639       0.78979139       0.74450201 </v>
   <v>       0.19350290       0.62452943       0.30034257 </v>
   <v>       0.44137691       0.78728610       0.38898511 </v>
   <v>       0.43356837       0.29017828       0.25567128 </v>
   <v>       0.06327748       0.54165674       0.87573713 </v>
   <v>       0.56586102       0.04069927       0.74453615 </v>
   <v>       0.18636713       0.79554844       0.87605291 </v>
   <v>       0.93690037       0.45465715       0.47862446 </v>
   <v>       0.56489438       0.54150668       0.74467676 </v>
   <v>       0.81173941       0.20841815       0.56495775 </v>
   <v>       0.18540658       0.62172180       0.78876833 </v>
   <v>       0.06756208       0.53894548       0.38897129 </v>
   <v>       0.05968603       0.70742174       0.70049685 </v>
   <v>       0.30878431       0.53851898       0.25513423 </v>
   <v>       0.31440479       0.70547256       0.21135486 </v>
   <v>       0.30606467       0.86579447       0.16588342 </v>
   <v>       0.43631677       0.62058052       0.43432160 </v>
   <v>       0.81723263       0.03889173       0.38893777 </v>
   <v>       0.93284391       0.61318762       0.16616308 </v>
   <v>       0.93900185       0.79396447       0.87553864 </v>
   <v>       0.06583858       0.03766619       0.87563985 </v>
   <v>       0.56219586       0.53044148       0.12440639 </v>
   <v>       0.80543526       0.36596609       0.16582281 </v>
   <v>       0.06211822       0.87097897       0.43436456 </v>
   <v>       0.93620354       0.12210238       0.52121315 </v>
   <v>       0.19124562       0.78790968       0.38892843 </v>
   <v>       0.56475315       0.70580444       0.21098819 </v>
  </varray>
 </structure>
 <calculation>
  <scstep>
   <time name="dav">   54.61   54.62</time>
   <time name="total">   54.75   54.80</time>
   <energy>
    <i name="alphaZ">  16293.21160653 </i>
    <i name="ewald"> 723807.19203742 </i>
    <i name="hartreedc">-914321.27568473 </i>
    <i name="XCdc">  -6512.68994226 </i>
    <i name="pawpsdc"> 162273.92519768 </i>
    <i name="pawaedc">-159623.75899949 </i>
    <i name="eentropy">     -1.06044410 </i>
    <i name="bandstr">  38488.04840805 </i>
    <i name="atom"> 168671.76673737 </i>
    <i name="e_fr_energy">  29075.35891647 </i>
    <i name="e_wo_entrp">  29076.41936057 </i>
    <i name="e_0_energy">  29075.88913852 </i>
   </energy>
  </scstep>
  <scstep>
   <time name="dav">   53.97   54.01</time>
   <time name="total">   53.98   54.02</time>
   <energy>
    <i name="e_fr_energy">   1187.57757950 </i>
    <i name="e_wo_entrp">   1189.07646008 </i>
    <i name="e_0_energy">   1188.32701979 </i>
   </energy>
  </scstep>
  <scstep>
   <time name="dav">   70.78   70.82</time>
   <time name="total">   70.78   70.83</time>
   <energy>
    <i name="e_fr_energy">  -1950.47135155 </i>
    <i name="e_wo_entrp">  -1946.92338268 </i>
    <i name="e_0_energy">  -1948.69736712 </i>
   </energy>
  </scstep>
  <scstep>
   <time name="dav">   89.01   89.06</time>
   <time name="total">   89.01   89.07</time>
   <energy>
    <i name="e_fr_energy">  -2619.57672185 </i>
    <i name="e_wo_entrp">  -2616.03135920 </i>
    <i name="e_0_energy">  -2617.80404052 </i>
   </energy>
  </scstep>
  <scstep>
   <time name="dav">   85.19   85.23</time>
   <time name="total">   87.24   87.29</time>
   <energy>
    <i name="e_fr_energy">  -2739.05364950 </i>
    <i name="e_wo_entrp">  -2735.38102954 </i>
    <i name="e_0_energy">  -2737.21733952 </i>
   </energy>
  </scstep>
  <scstep>
   <time name="diag">    8.30    8.31</time>
   <time name="diis">   37.15   37.15</time>
   <time name="orth">    2.29    2.29</time>
   <time name="total">   49.88   49.92</time>
   <energy>
    <i name="e_fr_energy">  -5577.58713827 </i>
    <i name="e_wo_entrp">  -5574.88969789 </i>
    <i name="e_0_energy">  -5576.23841808 </i>
   </energy>
  </scstep>
  <scstep>
   <time name="diag">    8.29    8.29</time>
   <time name="diis">   22.97   22.97</time>
   <time name="orth">    2.29    2.29</time>
   <time name="total">   35.74   35.79</time>
[...]
       <r>     5.8631     0.0000  2772.0000 </r>
       <r>     5.9058     0.0000  2772.0000 </r>
       <r>     5.9486     0.0000  2772.0000 </r>
       <r>     5.9914     0.0000  2772.0000 </r>
       <r>     6.0341     0.0000  2772.0000 </r>
       <r>     6.0769     0.0000  2772.0000 </r>
       <r>     6.1196     0.0000  2772.0000 </r>
       <r>     6.1624     0.0000  2772.0000 </r>
       <r>     6.2051     0.0000  2772.0000 </r>
       <r>     6.2479     0.0000  2772.0000 </r>
       <r>     6.2907     0.0000  2772.0000 </r>
       <r>     6.3334     0.0000  2772.0000 </r>
       <r>     6.3762     0.0000  2772.0000 </r>
       <r>     6.4189     0.0000  2772.0000 </r>
       <r>     6.4617     0.0000  2772.0000 </r>
       <r>     6.5044     0.0000  2772.0000 </r>
       <r>     6.5472     0.0000  2772.0000 </r>
       <r>     6.5900     0.0000  2772.0000 </r>
       <r>     6.6327     0.0000  2772.0000 </r>
       <r>     6.6755     0.0000  2772.0000 </r>
       <r>     6.7182     0.0000  2772.0000 </r>
       <r>     6.7610     0.0000  2772.0000 </r>
       <r>     6.8037     0.0000  2772.0000 </r>
      </set>
     </set>
    </array>
   </total>
  </dos>
 </calculation>
 <structure name="finalpos" >
  <crystal>
   <varray name="basis" >
    <v>       9.72667804       0.00000000       0.00000000 </v>
    <v>       0.00000000       8.42355028       0.00000000 </v>
    <v>       0.00000000       0.00000000      45.00000000 </v>
   </varray>
   <i name="volume">   3686.99226691 </i>
   <varray name="rec_basis" >
    <v>       0.10281002       0.00000000       0.00000000 </v>
    <v>       0.00000000       0.11871479       0.00000000 </v>
    <v>       0.00000000       0.00000000       0.02222222 </v>
   </varray>
  </crystal>
  <varray name="positions" >
   <v>       0.06174787       0.03290998       0.12406024 </v>
   <v>       0.31469617       0.87407079       0.65523251 </v>
   <v>       0.18642374       0.12354646       0.78886859 </v>
   <v>       0.44040944       0.28795372       0.38955674 </v>
   <v>       0.31532790       0.71070562       0.83340447 </v>
   <v>       0.81602894       0.21181366       0.83369108 </v>
   <v>       0.18948803       0.96155407       0.83359143 </v>
   <v>       0.56198612       0.20673954       0.56563337 </v>
   <v>       0.06515517       0.04084437       0.74453449 </v>
   <v>       0.81114602       0.87216911       0.52148176 </v>
   <v>       0.19010496       0.29017062       0.74450813 </v>
   <v>       0.93521689       0.45306015       0.34513650 </v>
   <v>       0.94036048       0.28753110       0.38952590 </v>
   <v>       0.81297627       0.04230842       0.87541988 </v>
   <v>       0.18524023       0.78870252       0.61074263 </v>
   <v>       0.56518166       0.03763662       0.38955426 </v>
   <v>       0.94147963       0.96103146       0.83368531 </v>
   <v>       0.31417464       0.54079487       0.87573374 </v>
   <v>       0.68907163       0.29048701       0.74450737 </v>
   <v>       0.18380525       0.61574523       0.16593667 </v>
   <v>       0.81205918       0.20491052       0.47834977 </v>
   <v>       0.81014506       0.53836416       0.61075173 </v>
   <v>       0.31227532       0.87047576       0.43452509 </v>
   <v>       0.81147641       0.03909340       0.25537806 </v>
   <v>       0.68544877       0.95353052       0.34514075 </v>
   <v>       0.93233695       0.11569015       0.16626968 </v>
   <v>       0.06224727       0.87198010       0.52141892 </v>
   <v>       0.55967070       0.53836829       0.25530517 </v>
   <v>       0.68768399       0.79334668       0.87555057 </v>
   <v>       0.55734464       0.36672704       0.16573484 </v>
   <v>       0.43889874       0.79098497       0.74465108 </v>
   <v>       0.81211782       0.70685453       0.56560538 </v>
   <v>       0.56065362       0.87357746       0.78884366 </v>
   <v>       0.68666187       0.12170921       0.52142535 </v>
   <v>       0.81471592       0.37360770       0.65523349 </v>
   <v>       0.94116464       0.46198788       0.83369639 </v>
   <v>       0.06122067       0.20745707       0.70020846 </v>
   <v>       0.43554161       0.95780260       0.70019619 </v>
   <v>       0.31475871       0.21094511       0.83367033 </v>
   <v>       0.43923979       0.62387621       0.65514782 </v>
   <v>       0.30983918       0.53845626       0.61079878 </v>
   <v>       0.93728960       0.45637695       0.56574513 </v>
   <v>       0.68957556       0.79091285       0.74454373 </v>
   <v>       0.93443866       0.78549960       0.12415522 </v>
   <v>       0.69074900       0.78769270       0.38956061 </v>
   <v>       0.93994553       0.79080602       0.74446661 </v>
   <v>       0.06039283       0.20367021       0.34520793 </v>
   <v>       0.68579595       0.45275468       0.34520448 </v>
   <v>       0.43572809       0.12363525       0.78891847 </v>
   <v>       0.06394573       0.20460021       0.21115989 </v>
   <v>       0.05629151       0.36655403       0.16603488 </v>
   <v>       0.93589824       0.78845043       0.25526763 </v>
   <v>       0.56087471       0.20767307       0.70020935 </v>
   <v>       0.68601222       0.95781908       0.70022842 </v>
   <v>       0.81123054       0.87350567       0.78885796 </v>
   <v>       0.43682897       0.95681461       0.56559150 </v>
   <v>       0.81115362       0.37309541       0.78882851 </v>
   <v>       0.68572651       0.28919106       0.25546479 </v>
   <v>       0.18688490       0.45657608       0.56567019 </v>
   <v>       0.05786871       0.86613535       0.16617518 </v>
   <v>       0.18553780       0.28882847       0.61086644 </v>
   <v>       0.06197666       0.20686290       0.56564437 </v>
   <v>       0.31104583       0.20798069       0.70015835 </v>
   <v>       0.56448799       0.54167020       0.87574419 </v>
   <v>       0.06190538       0.70638076       0.56564945 </v>
   <v>       0.68572317       0.62243836       0.78889310 </v>
   <v>       0.31508511       0.53759025       0.38959772 </v>
   <v>       0.18742665       0.62190721       0.52150865 </v>
   <v>       0.56224390       0.87039400       0.43440975 </v>
   <v>       0.43659861       0.45677686       0.56554721 </v>
   <v>       0.43938570       0.29069883       0.74453306 </v>
   <v>       0.81781796       0.87429474       0.30009114 </v>
   <v>       0.81066739       0.70340147       0.34527944 </v>
   <v>       0.44036208       0.46056331       0.83369168 </v>
   <v>       0.68732441       0.95485926       0.47836844 </v>
   <v>       0.68569404       0.45686023       0.70028690 </v>
   <v>       0.56181591       0.87192876       0.52132188 </v>
   <v>       0.56443549       0.37354705       0.65514171 </v>
   <v>       0.81487590       0.87459960       0.65521775 </v>
   <v>       0.81231770       0.37092218       0.43423659 </v>
   <v>       0.81061784       0.53776039       0.25545906 </v>
   <v>       0.69067635       0.46084994       0.83362666 </v>
   <v>       0.18596710       0.78521143       0.12397785 </v>
   <v>       0.69068747       0.28790856       0.38939838 </v>
   <v>       0.31478035       0.37404812       0.65514981 </v>
   <v>       0.31062375       0.20385485       0.34519937 </v>
   <v>       0.81437006       0.54000105       0.74446209 </v>
   <v>       0.69090790       0.96111246       0.83366631 </v>
   <v>       0.56436732       0.87415176       0.65509622 </v>
   <v>       0.31147698       0.70678346       0.56562201 </v>
   <v>       0.31117356       0.53322561       0.12385418 </v>
   <v>       0.68936415       0.95560471       0.21137244 </v>
   <v>       0.31167756       0.20667945       0.56565266 </v>
   <v>       0.18725670       0.95507189       0.47825897 </v>
   <v>       0.68741323       0.95684474       0.56569750 </v>
   <v>       0.43470205       0.78879181       0.61073663 </v>
   <v>       0.68269275       0.61426605       0.16586476 </v>
   <v>       0.31643192       0.87312906       0.29999686 </v>
   <v>       0.31227698       0.70529627       0.47824903 </v>
   <v>       0.93518929       0.28853903       0.61067209 </v>
   <v>       0.44207171       0.62334855       0.30012995 </v>
   <v>       0.80785628       0.86537334       0.16625204 </v>
   <v>       0.56488429       0.20403287       0.21147647 </v>
   <v>       0.93634024       0.29330815       0.87555842 </v>
   <v>       0.43712469       0.95452391       0.47834951 </v>
   <v>       0.56091196       0.37240360       0.78887066 </v>
   <v>       0.06193126       0.37247523       0.52151655 </v>
   <v>       0.30758460       0.36520466       0.16591233 </v>
   <v>       0.69319539       0.12378478       0.30018531 </v>
   <v>       0.44082337       0.96119008       0.83355862 </v>
   <v>       0.18520353       0.28425224       0.12408585 </v>
   <v>       0.18525967       0.28876257       0.25539708 </v>
   <v>       0.31191374       0.37107550       0.43442775 </v>
   <v>       0.56065817       0.03475265       0.12384734 </v>
   <v>       0.43475105       0.28875866       0.61083939 </v>
   <v>       0.18537267       0.45360350       0.34526288 </v>
   <v>       0.43379180       0.28380634       0.12387842 </v>
   <v>       0.68554385       0.78825398       0.25546504 </v>
   <v>       0.43656354       0.12255895       0.52134925 </v>
   <v>       0.18875681       0.29232197       0.87582892 </v>
   <v>       0.19014005       0.12436225       0.65526396 </v>
   <v>       0.94002877       0.12442396       0.65517462 </v>
   <v>       0.81561934       0.53793149       0.38946283 </v>
   <v>       0.06562329       0.03855397       0.38965522 </v>
   <v>       0.18382716       0.11476814       0.16606140 </v>
   <v>       0.06044778       0.53835155       0.61071314 </v>
   <v>       0.93599129       0.28868631       0.25542654 </v>
   <v>       0.55961612       0.53855508       0.61081514 </v>
   <v>       0.93713262       0.95698404       0.56562745 </v>
   <v>       0.69237658       0.62339246       0.30013883 </v>
   <v>       0.93771284       0.62092652       0.43430790 </v>
   <v>       0.93626248       0.62345679       0.78895596 </v>
   <v>       0.56059637       0.70690617       0.70014362 </v>
   <v>       0.06488807       0.71240637       0.83382322 </v>
   <v>       0.94235739       0.12377202       0.29997164 </v>
   <v>       0.93534699       0.78860918       0.61072363 </v>
   <v>       0.43499522       0.78817826       0.25558511 </v>
   <v>       0.31124080       0.37239963       0.78878270 </v>
   <v>       0.43892237       0.45475525       0.21141174 </v>
   <v>       0.18687069       0.12203039       0.52143656 </v>
   <v>       0.81142141       0.70737294       0.70025546 </v>
   <v>       0.06005376       0.03908830       0.61066521 </v>
   <v>       0.56559712       0.21157791       0.83368366 </v>
   <v>       0.31181576       0.87162477       0.52141897 </v>
   <v>       0.68568554       0.28423166       0.12369686 </v>
   <v>       0.18818266       0.95601503       0.21136557 </v>
   <v>       0.68471865       0.28867781       0.61078338 </v>
   <v>       0.31004979       0.03895134       0.61079026 </v>
   <v>       0.93651360       0.12425311       0.78886424 </v>
   <v>       0.43811165       0.79285517       0.87576493 </v>
   <v>       0.81453119       0.04139108       0.74451030 </v>
   <v>       0.93629245       0.45738850       0.70026554 </v>
   <v>       0.19018571       0.62439036       0.65526724 </v>
   <v>       0.31049536       0.70712781       0.70016326 </v>
   <v>       0.93453959       0.28488333       0.12393266 </v>
   <v>       0.43696998       0.45517232       0.47832259 </v>
   <v>       0.06239560       0.70483905       0.47817712 </v>
   <v>       0.93771730       0.12034072       0.43471073 </v>
   <v>       0.44219833       0.12413437       0.30016149 </v>
   <v>       0.18679010       0.12043928       0.43428916 </v>
   <v>       0.56416821       0.04254299       0.87573110 </v>
   <v>       0.18644505       0.95691233       0.56570591 </v>
   <v>       0.68501980       0.78628656       0.12424223 </v>
   <v>       0.56077409       0.70316034       0.34523152 </v>
   <v>       0.31501923       0.03763550       0.38957582 </v>
   <v>       0.68362541       0.11612859       0.16611401 </v>
   <v>       0.81528273       0.20475295       0.21125881 </v>
   <v>       0.06098393       0.53843991       0.25527990 </v>
   <v>       0.56196473       0.70534669       0.47832052 </v>
   <v>       0.43406385       0.78571281       0.12374777 </v>
   <v>       0.56713738       0.37354300       0.30005352 </v>
   <v>       0.43536212       0.95358161       0.34529286 </v>
   <v>       0.18580546       0.95760568       0.70021804 </v>
   <v>       0.43204962       0.61527306       0.16578246 </v>
   <v>       0.93953511       0.45397824       0.21158976 </v>
   <v>       0.06090011       0.53230068       0.12388422 </v>
   <v>       0.81164352       0.37236156       0.52144512 </v>
   <v>       0.94288130       0.62363974       0.29985353 </v>
   <v>       0.30995594       0.03807677       0.25515435 </v>
   <v>       0.68483273       0.78885369       0.61066817 </v>
   <v>       0.19050446       0.46145176       0.83350146 </v>
   <v>       0.43279510       0.11465330       0.16597666 </v>
   <v>       0.31201792       0.37241066       0.52143485 </v>
   <v>       0.43519874       0.62245077       0.78897472 </v>
   <v>       0.06030882       0.03848439       0.25529167 </v>
   <v>       0.56172892       0.70705297       0.56559730 </v>
   <v>       0.93958342       0.29008710       0.74452331 </v>
   <v>       0.68550698       0.12396612       0.78886613 </v>
   <v>       0.18750501       0.45428039       0.21124647 </v>
   <v>       0.94003627       0.78750015       0.38961779 </v>
   <v>       0.68794352       0.29567771       0.87584414 </v>
   <v>       0.55635631       0.86609191       0.16584309 </v>
   <v>       0.43558752       0.45718201       0.70020836 </v>
   <v>       0.93617054       0.95270720       0.34509092 </v>
   <v>       0.68594613       0.62226927       0.52134002 </v>
   <v>       0.06529465       0.87440454       0.65528965 </v>
   <v>       0.06185429       0.87358924       0.78885745 </v>
   <v>       0.06540269       0.37388848       0.65520559 </v>
   <v>       0.68709879       0.45509192       0.47829990 </v>
   <v>       0.18500908       0.78841192       0.25545080 </v>
   <v>       0.43681230       0.12055573       0.43449476 </v>
   <v>       0.81172965       0.03459565       0.12398581 </v>
   <v>       0.93689976       0.62189523       0.52146786 </v>
   <v>       0.43983606       0.12452738       0.65515355 </v>
   <v>       0.81304027       0.53277077       0.12355730 </v>
   <v>       0.43565255       0.45364728       0.34521708 </v>
   <v>       0.81074855       0.20344073       0.34511387 </v>
   <v>       0.31087696       0.70286272       0.34508880 </v>
   <v>       0.68955481       0.12445167       0.65518689 </v>
   <v>       0.56728685       0.87310215       0.30022382 </v>
   <v>       0.06476360       0.54001987       0.74450600 </v>
   <v>       0.93974459       0.95531889       0.21130370 </v>
   <v>       0.81541229       0.70436923       0.21156700 </v>
   <v>       0.06730906       0.87360266       0.30004402 </v>
   <v>       0.19190474       0.12412398       0.29996483 </v>
   <v>       0.06036066       0.70302030       0.34504502 </v>
   <v>       0.81028479       0.03919088       0.61065075 </v>
   <v>       0.06244359       0.37075438       0.43429425 </v>
   <v>       0.56156856       0.20375429       0.34518961 </v>
   <v>       0.81759150       0.37328626       0.30003970 </v>
   <v>       0.56061956       0.03891044       0.25520956 </v>
   <v>       0.56530813       0.53785731       0.38949960 </v>
   <v>       0.06253826       0.20468892       0.47829111 </v>
   <v>       0.31137764       0.87304697       0.78860217 </v>
   <v>       0.93637654       0.95789306       0.70020802 </v>
   <v>       0.06705402       0.37434420       0.30001097 </v>
   <v>       0.68934901       0.62395324       0.65521051 </v>
   <v>       0.68712215       0.45677711       0.56554256 </v>
   <v>       0.43814205       0.95672988       0.21157927 </v>
   <v>       0.31224595       0.20479461       0.47830863 </v>
   <v>       0.81443906       0.54200359       0.87556490 </v>
   <v>       0.68803000       0.62064857       0.43435068 </v>
   <v>       0.81115425       0.20751609       0.70025005 </v>
   <v>       0.81241260       0.70513658       0.47825358 </v>
   <v>       0.81227257       0.87049412       0.43439277 </v>
   <v>       0.93740132       0.95480452       0.47832332 </v>
   <v>       0.56205656       0.20460268       0.47840003 </v>
   <v>       0.18699300       0.62044108       0.43441316 </v>
   <v>       0.31431252       0.04161237       0.74451113 </v>
   <v>       0.94036558       0.62423071       0.65518939 </v>
   <v>       0.56510664       0.71042341       0.83361371 </v>
   <v>       0.31705114       0.37399921       0.30003501 </v>
   <v>       0.31430663       0.53985177       0.74458914 </v>
   <v>       0.18736144       0.45532058       0.47828462 </v>
   <v>       0.31505134       0.04314370       0.87563682 </v>
   <v>       0.18592018       0.45786514       0.70020934 </v>
   <v>       0.56133059       0.37248885       0.52139025 </v>
   <v>       0.18954270       0.28788141       0.38961335 </v>
   <v>       0.31385205       0.20479485       0.21128393 </v>
   <v>       0.06495031       0.70436475       0.21149495 </v>
   <v>       0.56207823       0.37095081       0.43445546 </v>
   <v>       0.43660954       0.62222932       0.52127479 </v>
   <v>       0.81633818       0.71163727       0.83363801 </v>
   <v>       0.06197156       0.37347232       0.78880675 </v>
   <v>       0.43841959       0.29445593       0.87594673 </v>
   <v>       0.31167621       0.03300603       0.12369196 </v>
   <v>       0.68804073       0.12031658       0.43442756 </v>
   <v>       0.18514596       0.95351796       0.34515408 </v>
   <v>       0.06560332       0.21104876       0.83368502 </v>
   <v>       0.55987086       0.03901731       0.61072188 </v>
   <v>       0.68947149       0.45513895       0.21164487 </v>
   <v>       0.18944141       0.79078737       0.74448274 </v>
   <v>       0.19186804       0.62359100       0.30004610 </v>
   <v>       0.44082328       0.78761944       0.38966825 </v>
   <v>       0.43500995       0.28974694       0.25539167 </v>
   <v>       0.06298433       0.54149865       0.87548187 </v>
   <v>       0.56431823       0.04181721       0.74458357 </v>
   <v>       0.18721842       0.79325545       0.87566470 </v>
   <v>       0.93731491       0.45498915       0.47818343 </v>
   <v>       0.56421809       0.53994073       0.74454043 </v>
   <v>       0.81202296       0.20696850       0.56568156 </v>
   <v>       0.18666373       0.62287783       0.78885780 </v>
   <v>       0.06575600       0.53820946       0.38965783 </v>
   <v>       0.06132398       0.70794331       0.70018235 </v>
   <v>       0.30982249       0.53796534       0.25508893 </v>
   <v>       0.31274768       0.70497049       0.21157963 </v>
   <v>       0.30650658       0.86699999       0.16546610 </v>
   <v>       0.43624080       0.62095958       0.43445897 </v>
   <v>       0.81698132       0.03814747       0.38959066 </v>
   <v>       0.93387291       0.61389964       0.16586632 </v>
   <v>       0.93835142       0.79214662       0.87517482 </v>
   <v>       0.06465116       0.04035959       0.87526507 </v>
   <v>       0.56156479       0.53220791       0.12397834 </v>
   <v>       0.80690847       0.36543862       0.16568402 </v>
   <v>       0.06169298       0.87141955       0.43445407 </v>
   <v>       0.93677408       0.12220344       0.52141405 </v>
   <v>       0.19044908       0.78759811       0.38964662 </v>
   <v>       0.56574865       0.70453296       0.21153656 </v>
  </varray>
 </structure>
</modeling>
