       N       E                     dE             d eps       ncg     rms          rms(c)
DAV:   1     0.303279632558E+05    0.30328E+05   -0.91513E+05 13790   0.214E+03
DAV:   2     0.156106128284E+04   -0.28767E+05   -0.28190E+05 13700   0.619E+02
DAV:   3    -0.188412017875E+04   -0.34452E+04   -0.30074E+04 19130   0.300E+02
DAV:   4    -0.261162313044E+04   -0.72750E+03   -0.66399E+03 25180   0.105E+02
DAV:   5    -0.274454996680E+04   -0.13293E+03   -0.12447E+03 23960   0.429E+01    0.208E+02
RMM:   6    -0.729301996672E+04   -0.45485E+04   -0.18375E+04 24063   0.299E+02    0.918E+02
RMM:   7    -0.885608483293E+04   -0.15631E+04   -0.13474E+04 24628   0.167E+02    0.785E+02
RMM:   8    -0.556137689317E+04    0.32947E+04   -0.17723E+04 19519   0.388E+02    0.126E+03
RMM:   9    -0.729182626308E+04   -0.17304E+04   -0.12058E+04 22472   0.249E+02    0.113E+03
RMM:  10    -0.670763221878E+04    0.58419E+03   -0.54607E+03 22998   0.211E+02    0.736E+02
RMM:  11    -0.147810809684E+05   -0.80734E+04   -0.20333E+04 17669   0.414E+02    0.110E+03
RMM:  12    -0.113355334465E+05    0.34455E+04   -0.85262E+03 21071   0.191E+02    0.774E+02
RMM:  13    -0.693159032260E+04    0.44039E+04   -0.53502E+03 23668   0.154E+02    0.547E+02
RMM:  14    -0.665251094377E+04    0.27908E+03   -0.55623E+03 22764   0.137E+02    0.517E+02
RMM:  15    -0.631234490226E+04    0.34017E+03   -0.27963E+03 16571   0.128E+02    0.442E+02
RMM:  16    -0.261012601177E+04    0.37022E+04   -0.62088E+03 17606   0.230E+02    0.336E+02
RMM:  17    -0.242069664277E+04    0.18943E+03   -0.41458E+03 25104   0.833E+01    0.246E+02
RMM:  18    -0.282737834066E+04   -0.40668E+03   -0.24236E+03 23874   0.863E+01    0.272E+02
RMM:  19    -0.291312036913E+04   -0.85742E+02   -0.16781E+03 23284   0.674E+01    0.257E+02
RMM:  20    -0.285599295652E+04    0.57127E+02   -0.12047E+03 23727   0.565E+01    0.233E+02
RMM:  21    -0.283590723448E+04    0.20086E+02   -0.10388E+03 24348   0.500E+01    0.190E+02
RMM:  22    -0.278851827565E+04    0.47389E+02   -0.94121E+02 25338   0.351E+01    0.167E+02
RMM:  23    -0.276653363486E+04    0.21985E+02   -0.59569E+02 22932   0.307E+01    0.142E+02
RMM:  24    -0.274791643878E+04    0.18617E+02   -0.61228E+02 24597   0.304E+01    0.156E+02
RMM:  25    -0.270338920504E+04    0.44527E+02   -0.61319E+02 21333   0.284E+01    0.180E+02
RMM:  26    -0.260896320362E+04    0.94426E+02   -0.66035E+02 22818   0.167E+01    0.165E+02
RMM:  27    -0.258547221918E+04    0.23491E+02   -0.39189E+02 22991   0.113E+01    0.164E+02
RMM:  28    -0.255885659405E+04    0.26616E+02   -0.30258E+02 22626   0.936E+00    0.158E+02
RMM:  29    -0.253449150038E+04    0.24365E+02   -0.22677E+02 21989   0.765E+00    0.157E+02
RMM:  30    -0.256706945533E+04   -0.32578E+02   -0.20385E+02 23510   0.468E+00    0.167E+02
RMM:  31    -0.252123614742E+04    0.45833E+02   -0.89059E+01 18447   0.521E+00    0.166E+02
RMM:  32    -0.246042106185E+04    0.60815E+02   -0.42576E+01 16207   0.841E+00    0.157E+02
RMM:  33    -0.243011354464E+04    0.30308E+02   -0.46577E+01 21422   0.411E+00    0.136E+02
RMM:  34    -0.242257239759E+04    0.75411E+01   -0.21829E+01 21510   0.232E+00    0.131E+02
RMM:  35    -0.240598251504E+04    0.16590E+02   -0.10316E+01 16891   0.317E+00    0.120E+02
RMM:  36    -0.239415076747E+04    0.11832E+02   -0.63005E+00 15548   0.344E+00    0.111E+02
RMM:  37    -0.240062572308E+04   -0.64750E+01   -0.52255E+00 16203   0.294E+00    0.117E+02
RMM:  38    -0.240846444015E+04   -0.78387E+01   -0.33470E+00 16174   0.254E+00    0.123E+02
RMM:  39    -0.240803896285E+04    0.42548E+00   -0.30648E+00 16248   0.260E+00    0.125E+02
RMM:  40    -0.238297788962E+04    0.25061E+02   -0.55186E+00 14934   0.428E+00    0.110E+02
RMM:  41    -0.234536371175E+04    0.37614E+02   -0.15922E+01 16857   0.521E+00    0.734E+01
RMM:  42    -0.233754779815E+04    0.78159E+01   -0.20996E+01 20801   0.385E+00    0.630E+01
RMM:  43    -0.233711955773E+04    0.42824E+00   -0.75039E+00 18238   0.262E+00    0.615E+01
RMM:  44    -0.233965436057E+04   -0.25348E+01   -0.36951E+00 15658   0.292E+00    0.642E+01
RMM:  45    -0.234333537114E+04   -0.36810E+01   -0.35899E+00 17296   0.256E+00    0.684E+01
RMM:  46    -0.234564840124E+04   -0.23130E+01   -0.14753E+00 15094   0.203E+00    0.715E+01
RMM:  47    -0.234305340056E+04    0.25950E+01   -0.25756E+00 14932   0.289E+00    0.695E+01
RMM:  48    -0.233828487776E+04    0.47685E+01   -0.35081E+00 15937   0.290E+00    0.654E+01
RMM:  49    -0.233666337962E+04    0.16215E+01   -0.35433E+00 19283   0.199E+00    0.641E+01
RMM:  50    -0.233793491743E+04   -0.12715E+01   -0.25007E+00 17421   0.187E+00    0.666E+01
RMM:  51    -0.270952467533E+04   -0.37159E+03   -0.33607E+02 15810   0.308E+01    0.213E+02
RMM:  52    -0.277558389592E+04   -0.66059E+02   -0.51753E+02 21644   0.187E+01    0.231E+02
RMM:  53    -0.295425988077E+04   -0.17868E+03   -0.44610E+02 22516   0.125E+01    0.259E+02
RMM:  54    -0.298120271047E+04   -0.26943E+02   -0.28923E+02 23387   0.732E+00    0.272E+02
RMM:  55    -0.295541198779E+04    0.25791E+02   -0.16225E+02 17831   0.668E+00    0.278E+02
RMM:  56    -0.268612355578E+04    0.26929E+03   -0.22541E+02 19527   0.172E+01    0.249E+02
RMM:  57    -0.270484502945E+04   -0.18721E+02   -0.19150E+02 22315   0.467E+00    0.256E+02
RMM:  58    -0.274340890100E+04   -0.38564E+02   -0.70884E+01 18341   0.621E+00    0.268E+02
RMM:  59    -0.273503314352E+04    0.83758E+01   -0.45476E+01 22285   0.252E+00    0.272E+02
RMM:  60    -0.273881164802E+04   -0.37785E+01   -0.19190E+01 20707   0.150E+00    0.275E+02
RMM:  61    -0.288842654537E+04   -0.14961E+03   -0.13252E+02 16126   0.164E+01    0.282E+02
RMM:  62    -0.297703198875E+04   -0.88605E+02   -0.10665E+02 15172   0.171E+01    0.305E+02
RMM:  63    -0.299493189476E+04   -0.17900E+02   -0.14532E+02 21786   0.641E+00    0.313E+02
RMM:  64    -0.298459100299E+04    0.10341E+02   -0.52722E+01 17819   0.495E+00    0.316E+02
RMM:  65    -0.298053925566E+04    0.40517E+01   -0.33391E+01 20225   0.403E+00    0.319E+02
RMM:  66    -0.266214973478E+04    0.31839E+03   -0.25929E+02 16803   0.219E+01    0.254E+02
RMM:  67    -0.260605193273E+04    0.56098E+02   -0.16198E+02 16958   0.183E+01    0.230E+02
RMM:  68    -0.261277771142E+04   -0.67258E+01   -0.13593E+02 20529   0.970E+00    0.235E+02
RMM:  69    -0.258704941311E+04    0.25728E+02   -0.52375E+01 17263   0.795E+00    0.225E+02
RMM:  70    -0.254387936877E+04    0.43170E+02   -0.42003E+01 17946   0.749E+00    0.206E+02
RMM:  71    -0.251553462821E+04    0.28345E+02   -0.12446E+02 14235   0.211E+01    0.206E+02
RMM:  72    -0.244060019250E+04    0.74934E+02   -0.10305E+02 14163   0.202E+01    0.166E+02
RMM:  73    -0.245615385631E+04   -0.15554E+02   -0.17137E+02 15052   0.223E+01    0.163E+02
RMM:  74    -0.250236117778E+04   -0.46207E+02   -0.27191E+02 19398   0.180E+01    0.177E+02
RMM:  75    -0.247067917989E+04    0.31682E+02   -0.17936E+02 18425   0.159E+01    0.153E+02
RMM:  76    -0.253418878740E+04   -0.63510E+02   -0.33544E+02 15306   0.310E+01    0.175E+02
RMM:  77    -0.241924171204E+04    0.11495E+03   -0.11946E+02 13700   0.267E+01    0.134E+02
RMM:  78    -0.238943511184E+04    0.29807E+02   -0.75719E+01 16006   0.130E+01    0.116E+02
RMM:  79    -0.237441127211E+04    0.15024E+02   -0.46494E+01 16323   0.922E+00    0.103E+02
RMM:  80    -0.237359826640E+04    0.81301E+00   -0.37685E+01 15231   0.102E+01    0.101E+02
RMM:  81    -0.241508471412E+04   -0.41486E+02   -0.18435E+02 14878   0.238E+01    0.124E+02
RMM:  82    -0.234862704080E+04    0.66458E+02   -0.68573E+01 13700   0.202E+01    0.760E+01
RMM:  83    -0.234754297842E+04    0.10841E+01   -0.51790E+01 16256   0.102E+01    0.738E+01
RMM:  84    -0.235049307715E+04   -0.29501E+01   -0.43661E+01 19934   0.687E+00    0.732E+01
RMM:  85    -0.235202060877E+04   -0.15275E+01   -0.18924E+01 17359   0.513E+00    0.745E+01
RMM:  86    -0.262436256500E+04   -0.27234E+03   -0.26822E+02 14402   0.305E+01    0.208E+02
RMM:  87    -0.244693267625E+04    0.17743E+03   -0.14030E+02 13800   0.266E+01    0.137E+02
RMM:  88    -0.244181142697E+04    0.51212E+01   -0.89064E+01 13826   0.204E+01    0.136E+02
RMM:  89    -0.244080887164E+04    0.10026E+01   -0.56916E+01 14562   0.140E+01    0.139E+02
RMM:  90    -0.244348983366E+04   -0.26810E+01   -0.59560E+01 18649   0.779E+00    0.143E+02
RMM:  91    -0.247652663431E+04   -0.33037E+02   -0.68081E+01 15081   0.135E+01    0.159E+02
RMM:  92    -0.246390886454E+04    0.12618E+02   -0.19620E+01 13987   0.943E+00    0.155E+02
RMM:  93    -0.246028006813E+04    0.36288E+01   -0.20090E+01 17806   0.495E+00    0.154E+02
RMM:  94    -0.245288223566E+04    0.73978E+01   -0.10923E+01 18958   0.378E+00    0.153E+02
RMM:  95    -0.243667914090E+04    0.16203E+02   -0.53367E+00 14141   0.452E+00    0.143E+02
RMM:  96    -0.264138858722E+04   -0.20471E+03   -0.12488E+02 15884   0.169E+01    0.206E+02
RMM:  97    -0.255022100575E+04    0.91168E+02   -0.65592E+01 15857   0.130E+01    0.183E+02
RMM:  98    -0.247985414501E+04    0.70367E+02   -0.27350E+01 13998   0.104E+01    0.161E+02
RMM:  99    -0.242288434694E+04    0.56970E+02   -0.13591E+01 13900   0.770E+00    0.135E+02
RMM: 100    -0.239200338300E+04    0.30881E+02   -0.17575E+01 14738   0.731E+00    0.116E+02
RMM: 101    -0.268772571685E+04   -0.29572E+03   -0.31866E+02 14366   0.345E+01    0.224E+02
RMM: 102    -0.252153900740E+04    0.16619E+03   -0.11799E+02 13711   0.253E+01    0.179E+02
RMM: 103    -0.242482111209E+04    0.96718E+02   -0.54875E+01 13715   0.165E+01    0.137E+02
RMM: 104    -0.237317272947E+04    0.51648E+02   -0.62322E+01 13736   0.170E+01    0.940E+01
RMM: 105    -0.236332073262E+04    0.98520E+01   -0.81157E+01 13714   0.188E+01    0.826E+01
RMM: 106    -0.239984275807E+04   -0.36522E+02   -0.12188E+02 13737   0.240E+01    0.108E+02
RMM: 107    -0.235285747141E+04    0.46985E+02   -0.58165E+01 13700   0.188E+01    0.676E+01
RMM: 108    -0.234305273956E+04    0.98047E+01   -0.28743E+01 14091   0.114E+01    0.572E+01
RMM: 109    -0.234366492858E+04   -0.61219E+00   -0.28745E+01 14687   0.945E+00    0.568E+01
RMM: 110    -0.233895561731E+04    0.47093E+01   -0.13349E+01 13828   0.790E+00    0.489E+01
RMM: 111    -0.249388872712E+04   -0.15493E+03   -0.10503E+02 15977   0.158E+01    0.152E+02
RMM: 112    -0.239573383995E+04    0.98155E+02   -0.32058E+01 13703   0.127E+01    0.105E+02
RMM: 113    -0.236869247192E+04    0.27041E+02   -0.17966E+01 14004   0.921E+00    0.844E+01
RMM: 114    -0.235215907668E+04    0.16533E+02   -0.14262E+01 13825   0.779E+00    0.635E+01
RMM: 115    -0.234972966715E+04    0.24294E+01   -0.15580E+01 13700   0.886E+00    0.617E+01
RMM: 116    -0.240484359487E+04   -0.55114E+02   -0.72738E+01 13761   0.182E+01    0.108E+02
RMM: 117    -0.234409068547E+04    0.60753E+02   -0.29989E+01 13700   0.146E+01    0.487E+01
RMM: 118    -0.233681415092E+04    0.72765E+01   -0.81326E+00 14189   0.593E+00    0.377E+01
RMM: 119    -0.233792244992E+04   -0.11083E+01   -0.83644E+00 15393   0.454E+00    0.393E+01
RMM: 120    -0.233728385534E+04    0.63859E+00   -0.47816E+00 15188   0.364E+00    0.381E+01
RMM: 121    -0.235571530583E+04   -0.18431E+02   -0.38225E+01 13748   0.127E+01    0.653E+01
RMM: 122    -0.233689981705E+04    0.18815E+02   -0.15916E+01 13700   0.111E+01    0.348E+01
RMM: 123    -0.233177031633E+04    0.51295E+01   -0.38053E+00 13734   0.438E+00    0.197E+01
RMM: 124    -0.233250370014E+04   -0.73338E+00   -0.37588E+00 14535   0.356E+00    0.235E+01
RMM: 125    -0.233307055372E+04   -0.56685E+00   -0.19692E+00 14573   0.259E+00    0.252E+01
RMM: 126    -0.233862451251E+04   -0.55540E+01   -0.65134E+00 15095   0.413E+00    0.395E+01
RMM: 127    -0.233354730730E+04    0.50772E+01   -0.16938E+00 13705   0.326E+00    0.263E+01
RMM: 128    -0.233286841996E+04    0.67889E+00   -0.10647E+00 16184   0.147E+00    0.239E+01
RMM: 129    -0.233255467812E+04    0.31374E+00   -0.77878E-01 14732   0.162E+00    0.224E+01
RMM: 130    -0.233176887483E+04    0.78580E+00   -0.83391E-01 13855   0.200E+00    0.183E+01
RMM: 131    -0.233362382180E+04   -0.18549E+01   -0.52524E+00 13778   0.481E+00    0.253E+01
RMM: 132    -0.233118018882E+04    0.24436E+01   -0.23185E+00 13700   0.415E+00    0.147E+01
RMM: 133    -0.233077272565E+04    0.40746E+00   -0.77482E-01 13967   0.186E+00    0.118E+01
RMM: 134    -0.233064009826E+04    0.13263E+00   -0.59440E-01 13933   0.168E+00    0.108E+01
RMM: 135    -0.233044845337E+04    0.19164E+00   -0.52908E-01 14656   0.131E+00    0.867E+00
RMM: 136    -0.233246892833E+04   -0.20205E+01   -0.37026E+00 13841   0.398E+00    0.205E+01
RMM: 137    -0.233087061195E+04    0.15983E+01   -0.15435E+00 13700   0.352E+00    0.119E+01
RMM: 138    -0.233033293255E+04    0.53768E+00   -0.38889E-01 14036   0.131E+00    0.662E+00
RMM: 139    -0.233028128998E+04    0.51643E-01   -0.42121E-01 14815   0.114E+00    0.571E+00
RMM: 140    -0.233023343399E+04    0.47856E-01   -0.23222E-01 14147   0.100E+00    0.482E+00
RMM: 141    -0.233153440706E+04   -0.13010E+01   -0.15225E+00 13996   0.249E+00    0.158E+01
RMM: 142    -0.233032010024E+04    0.12143E+01   -0.54475E-01 13700   0.210E+00    0.566E+00
RMM: 143    -0.233031413412E+04    0.59661E-02   -0.15530E-01 13977   0.860E-01    0.589E+00
RMM: 144    -0.233024010208E+04    0.74032E-01   -0.16066E-01 15596   0.603E-01    0.448E+00
RMM: 145    -0.233021286374E+04    0.27238E-01   -0.69386E-02 14464   0.521E-01    0.381E+00
RMM: 146    -0.233026976126E+04   -0.56898E-01   -0.15100E-01 14162   0.770E-01    0.499E+00
RMM: 147    -0.233020012374E+04    0.69638E-01   -0.83501E-02 13712   0.729E-01    0.341E+00
RMM: 148    -0.233016222755E+04    0.37896E-01   -0.56154E-02 14999   0.408E-01    0.216E+00
RMM: 149    -0.233015664784E+04    0.55797E-02   -0.44399E-02 15502   0.332E-01    0.186E+00
RMM: 150    -0.233015546027E+04    0.11876E-02   -0.28942E-02 15794   0.258E-01    0.173E+00
RMM: 151    -0.233016237709E+04   -0.69168E-02   -0.37034E-02 14251   0.389E-01    0.199E+00
RMM: 152    -0.233015126934E+04    0.11108E-01   -0.18146E-02 13792   0.333E-01    0.145E+00
RMM: 153    -0.233014705213E+04    0.42172E-02   -0.13515E-02 15655   0.179E-01    0.108E+00
RMM: 154    -0.233014700539E+04    0.46741E-04   -0.94769E-03 15307   0.161E-01    0.107E+00
RMM: 155    -0.233014465726E+04    0.23481E-02   -0.78445E-03 16483   0.122E-01    0.744E-01
RMM: 156    -0.233014982105E+04   -0.51638E-02   -0.11318E-02 14465   0.206E-01    0.120E+00
RMM: 157    -0.233014418885E+04    0.56322E-02   -0.39899E-03 13795   0.164E-01    0.646E-01
RMM: 158    -0.233014340116E+04    0.78770E-03   -0.31575E-03 16435   0.742E-02    0.511E-01
RMM: 159    -0.233014314250E+04    0.25866E-03   -0.21082E-03 15985   0.669E-02    0.441E-01
RMM: 160    -0.233014278616E+04    0.35634E-03   -0.16800E-03 17784   0.469E-02    0.337E-01
RMM: 161    -0.233014279415E+04   -0.79939E-05   -0.15575E-03 15494   0.624E-02    0.313E-01
RMM: 162    -0.233014251884E+04    0.27531E-03   -0.56217E-04 14201   0.540E-02    0.220E-01
RMM: 163    -0.233014242775E+04    0.91085E-04   -0.47049E-04 16317   0.271E-02    0.160E-01
RMM: 164    -0.233014244949E+04   -0.21739E-04   -0.28014E-04 15719   0.212E-02    0.159E-01
RMM: 165    -0.233014239941E+04    0.50084E-04   -0.21643E-04 15209   0.222E-02    0.103E-01
RMM: 166    -0.233014253318E+04   -0.13377E-03   -0.22070E-04 14107   0.312E-02    0.184E-01
RMM: 167    -0.233014238686E+04    0.14631E-03   -0.10650E-04 13420   0.247E-02    0.750E-02
RMM: 168    -0.233014238077E+04    0.60953E-05   -0.86829E-05 11208   0.130E-02
   1 F= -.23301424E+04 E0= -.23273772E+04  d E =-.233014E+04
       N       E                     dE             d eps       ncg     rms          rms(c)
DAV:   1    -0.233014262623E+04   -0.23936E-03   -0.58002E-02 15220   0.256E-01    0.596E-02
RMM:   2    -0.233017877845E+04   -0.36152E-01   -0.36132E-03 14650   0.108E-01    0.261E+00
RMM:   3    -0.233014782587E+04    0.30953E-01   -0.18704E-03 17311   0.620E-02    0.848E-01
RMM:   4    -0.233015019071E+04   -0.23648E-02   -0.10869E-03 13812   0.661E-02    0.117E+00
RMM:   5    -0.233014508743E+04    0.51033E-02   -0.81159E-04 13809   0.582E-02    0.618E-01
RMM:   6    -0.233014394846E+04    0.11390E-02   -0.11644E-03 14934   0.564E-02    0.480E-01
RMM:   7    -0.233014563574E+04   -0.16873E-02   -0.22746E-03 16852   0.653E-02    0.701E-01
RMM:   8    -0.233014335728E+04    0.22785E-02   -0.86012E-04 13719   0.612E-02    0.328E-01
RMM:   9    -0.233014294635E+04    0.41093E-03   -0.35904E-04 13743   0.421E-02    0.204E-01
RMM:  10    -0.233014282792E+04    0.11843E-03   -0.21317E-04 14696   0.231E-02    0.150E-01
RMM:  11    -0.233014280287E+04    0.25047E-04   -0.18570E-04 14963   0.174E-02    0.121E-01
RMM:  12    -0.233014274706E+04    0.55807E-04   -0.66231E-05 11063   0.157E-02    0.605E-02
RMM:  13    -0.233014273739E+04    0.96774E-05   -0.26191E-05  8348   0.124E-02
   2 F= -.23301427E+04 E0= -.23273774E+04  d E =-.356618E-03
       N       E                     dE             d eps       ncg     rms          rms(c)
DAV:   1    -0.233014289376E+04   -0.14669E-03   -0.52283E-01 14580   0.764E-01    0.130E-01
RMM:   2    -0.233018434158E+04   -0.41448E-01   -0.12414E-02 14185   0.224E-01    0.282E+00
RMM:   3    -0.233015871573E+04    0.25626E-01   -0.62263E-03 18012   0.107E-01    0.153E+00
RMM:   4    -0.233017267089E+04   -0.13955E-01   -0.24982E-03 13862   0.101E-01    0.228E+00
RMM:   5    -0.233014662200E+04    0.26049E-01   -0.12892E-03 14089   0.701E-02    0.699E-01
RMM:   6    -0.233014641553E+04    0.20647E-03   -0.17915E-03 14478   0.759E-02    0.760E-01
RMM:   7    -0.233015128086E+04   -0.48653E-02   -0.59866E-03 15764   0.112E-01    0.118E+00
RMM:   8    -0.233014561488E+04    0.56660E-02   -0.21158E-03 13827   0.948E-02    0.580E-01
RMM:   9    -0.233014402963E+04    0.15852E-02   -0.89387E-04 13718   0.675E-02    0.344E-01
RMM:  10    -0.233014374913E+04    0.28049E-03   -0.69870E-04 15444   0.399E-02    0.244E-01
RMM:  11    -0.233014365066E+04    0.98472E-04   -0.59051E-04 17000   0.325E-02    0.204E-01
RMM:  12    -0.233014348599E+04    0.16467E-03   -0.22089E-04 13913   0.300E-02    0.113E-01
RMM:  13    -0.233014345813E+04    0.27859E-04   -0.12668E-04 13281   0.208E-02    0.923E-02
RMM:  14    -0.233014345544E+04    0.26965E-05   -0.11348E-04 13043   0.161E-02    0.837E-02
RMM:  15    -0.233014343660E+04    0.18835E-04   -0.45675E-05  9988   0.142E-02    0.535E-02
RMM:  16    -0.233014342403E+04    0.12576E-04   -0.19672E-05  7713   0.111E-02    0.223E-02
RMM:  17    -0.233014342464E+04   -0.61176E-06   -0.11570E-05  7610   0.685E-03
   3 F= -.23301434E+04 E0= -.23273778E+04  d E =-.104387E-02
       N       E                     dE             d eps       ncg     rms          rms(c)
DAV:   1    -0.233014148031E+04    0.19437E-02   -0.20918E+00 14160   0.153E+00    0.244E-01
RMM:   2    -0.233018616732E+04   -0.44687E-01   -0.40562E-02 13829   0.422E-01    0.286E+00
RMM:   3    -0.233022174696E+04   -0.35580E-01   -0.20995E-02 19575   0.169E-01    0.366E+00
RMM:   4    -0.233020704941E+04    0.14698E-01   -0.57969E-03 13805   0.162E-01    0.341E+00
RMM:   5    -0.233015326873E+04    0.53781E-01   -0.43227E-03 14496   0.122E-01    0.118E+00
RMM:   6    -0.233015430413E+04   -0.10354E-02   -0.53657E-03 14130   0.135E-01    0.142E+00
RMM:   7    -0.233017039455E+04   -0.16090E-01   -0.18873E-02 16415   0.190E-01    0.218E+00
RMM:   8    -0.233014925860E+04    0.21136E-01   -0.77687E-03 14439   0.167E-01    0.941E-01
RMM:   9    -0.233014543011E+04    0.38285E-02   -0.34909E-03 13715   0.138E-01    0.617E-01
RMM:  10    -0.233014450581E+04    0.92430E-03   -0.24534E-03 16406   0.699E-02    0.432E-01
RMM:  11    -0.233014450363E+04    0.21826E-05   -0.21519E-03 16958   0.613E-02    0.434E-01
RMM:  12    -0.233014387550E+04    0.62813E-03   -0.96047E-04 14385   0.566E-02    0.259E-01
RMM:  13    -0.233014362594E+04    0.24956E-03   -0.45230E-04 14163   0.438E-02    0.177E-01
RMM:  14    -0.233014363444E+04   -0.84931E-05   -0.55487E-04 17089   0.292E-02    0.168E-01
RMM:  15    -0.233014356398E+04    0.70459E-04   -0.24211E-04 14738   0.254E-02    0.116E-01
RMM:  16    -0.233014349938E+04    0.64596E-04   -0.93330E-05 12523   0.199E-02    0.406E-02
RMM:  17    -0.233014349846E+04    0.92504E-06   -0.64407E-05 11129   0.106E-02
   4 F= -.23301435E+04 E0= -.23273774E+04  d E =-.111769E-02
       N       E                     dE             d eps       ncg     rms          rms(c)
DAV:   1    -0.233014403385E+04   -0.53446E-03   -0.20390E-01 14360   0.477E-01    0.977E-02
RMM:   2    -0.233016029209E+04   -0.16258E-01   -0.76788E-03 14620   0.165E-01    0.176E+00
RMM:   3    -0.233016384697E+04   -0.35549E-02   -0.48674E-03 19477   0.771E-02    0.187E+00
RMM:   4    -0.233015729188E+04    0.65551E-02   -0.17363E-03 13757   0.863E-02    0.153E+00
RMM:   5    -0.233014788744E+04    0.94044E-02   -0.14459E-03 14828   0.635E-02    0.733E-01
RMM:   6    -0.233014540123E+04    0.24862E-02   -0.12185E-03 13791   0.700E-02    0.458E-01
RMM:   7    -0.233014975198E+04   -0.43508E-02   -0.37841E-03 18591   0.732E-02    0.102E+00
RMM:   8    -0.233014572100E+04    0.40310E-02   -0.16736E-03 14297   0.747E-02    0.489E-01
RMM:   9    -0.233014460637E+04    0.11146E-02   -0.75916E-04 13709   0.618E-02    0.262E-01
RMM:  10    -0.233014438295E+04    0.22343E-03   -0.46167E-04 15078   0.338E-02    0.174E-01
RMM:  11    -0.233014435065E+04    0.32295E-04   -0.44331E-04 17812   0.244E-02    0.150E-01
RMM:  12    -0.233014429488E+04    0.55773E-04   -0.22175E-04 14414   0.264E-02    0.105E-01
RMM:  13    -0.233014424691E+04    0.47972E-04   -0.86918E-05 12542   0.207E-02    0.617E-02
RMM:  14    -0.233014423718E+04    0.97246E-05   -0.40315E-05  9780   0.110E-02
   5 F= -.23301442E+04 E0= -.23273783E+04  d E =-.738726E-03
       N       E                     dE             d eps       ncg     rms          rms(c)
DAV:   1    -0.233014418093E+04    0.65981E-04   -0.43871E-01 14060   0.699E-01    0.130E-01
RMM:   2    -0.233016547269E+04   -0.21292E-01   -0.12739E-02 14482   0.213E-01    0.197E+00
RMM:   3    -0.233019238543E+04   -0.26913E-01   -0.67260E-03 19236   0.961E-02    0.296E+00
RMM:   4    -0.233014938529E+04    0.43000E-01   -0.24820E-03 13725   0.107E-01    0.719E-01
RMM:   5    -0.233015705206E+04   -0.76668E-02   -0.20695E-03 14404   0.815E-02    0.153E+00
RMM:   6    -0.233014756191E+04    0.94901E-02   -0.18003E-03 14913   0.747E-02    0.720E-01
RMM:   7    -0.233015500577E+04   -0.74439E-02   -0.56989E-03 17238   0.974E-02    0.139E+00
RMM:   8    -0.233014713589E+04    0.78699E-02   -0.26494E-03 13982   0.987E-02    0.632E-01
RMM:   9    -0.233014502475E+04    0.21111E-02   -0.10943E-03 13707   0.803E-02    0.260E-01
RMM:  10    -0.233014504102E+04   -0.16277E-04   -0.85294E-04 15523   0.433E-02    0.281E-01
RMM:  11    -0.233014496673E+04    0.74289E-04   -0.72082E-04 16554   0.380E-02    0.242E-01
RMM:  12    -0.233014476580E+04    0.20094E-03   -0.30272E-04 13833   0.350E-02    0.150E-01
RMM:  13    -0.233014465877E+04    0.10703E-03   -0.12907E-04 13298   0.244E-02    0.659E-02
RMM:  14    -0.233014466018E+04   -0.14122E-05   -0.12689E-04 13303   0.146E-02    0.641E-02
RMM:  15    -0.233014465965E+04    0.52783E-06   -0.77785E-05 12030   0.156E-02
   6 F= -.23301447E+04 E0= -.23273792E+04  d E =-.116120E-02
       N       E                     dE             d eps       ncg     rms          rms(c)
DAV:   1    -0.233014481624E+04   -0.15606E-03   -0.10277E-01 14220   0.340E-01    0.624E-02
RMM:   2    -0.233016049301E+04   -0.15677E-01   -0.34139E-03 14279   0.117E-01    0.167E+00
RMM:   3    -0.233014838659E+04    0.12106E-01   -0.12725E-03 17366   0.520E-02    0.768E-01
RMM:   4    -0.233015037145E+04   -0.19849E-02   -0.68068E-04 15042   0.418E-02    0.998E-01
RMM:   5    -0.233014703075E+04    0.33407E-02   -0.58568E-04 13761   0.485E-02    0.593E-01
RMM:   6    -0.233014540385E+04    0.16269E-02   -0.61609E-04 13836   0.488E-02    0.291E-01
RMM:   7    -0.233014565159E+04   -0.24773E-03   -0.13247E-03 15214   0.573E-02    0.355E-01
RMM:   8    -0.233014583758E+04   -0.18599E-03   -0.89020E-04 15397   0.469E-02    0.379E-01
RMM:   9    -0.233014515763E+04    0.67995E-03   -0.33553E-04 13617   0.417E-02    0.197E-01
RMM:  10    -0.233014497161E+04    0.18602E-03   -0.15306E-04 13327   0.253E-02    0.101E-01
RMM:  11    -0.233014494291E+04    0.28702E-04   -0.12849E-04 13168   0.142E-02    0.669E-02
RMM:  12    -0.233014494159E+04    0.13224E-05   -0.95834E-05 12566   0.151E-02
   7 F= -.23301449E+04 E0= -.23273796E+04  d E =-.281935E-03
       N       E                     dE             d eps       ncg     rms          rms(c)
DAV:   1    -0.233014463226E+04    0.31065E-03   -0.92604E-01 13840   0.102E+00    0.169E-01
RMM:   2    -0.233017637084E+04   -0.31739E-01   -0.20307E-02 13979   0.306E-01    0.246E+00
RMM:   3    -0.233018624584E+04   -0.98750E-02   -0.98976E-03 18676   0.131E-01    0.269E+00
RMM:   4    -0.233016809386E+04    0.18152E-01   -0.28136E-03 13721   0.113E-01    0.203E+00
RMM:   5    -0.233015429359E+04    0.13800E-01   -0.29248E-03 15736   0.819E-02    0.117E+00
RMM:   6    -0.233014952324E+04    0.47703E-02   -0.28301E-03 13738   0.110E-01    0.836E-01
RMM:   7    -0.233015693291E+04   -0.74097E-02   -0.77859E-03 17874   0.113E-01    0.145E+00
RMM:   8    -0.233014870773E+04    0.82252E-02   -0.41627E-03 14149   0.122E-01    0.703E-01
RMM:   9    -0.233014600388E+04    0.27039E-02   -0.17267E-03 13704   0.103E-01    0.323E-01
RMM:  10    -0.233014562971E+04    0.37417E-03   -0.67603E-04 14217   0.486E-02    0.213E-01
RMM:  11    -0.233014568436E+04   -0.54655E-04   -0.97309E-04 17468   0.396E-02    0.226E-01
RMM:  12    -0.233014556584E+04    0.11853E-03   -0.46046E-04 14467   0.385E-02    0.161E-01
RMM:  13    -0.233014546534E+04    0.10049E-03   -0.21564E-04 13967   0.288E-02    0.998E-02
RMM:  14    -0.233014545740E+04    0.79436E-05   -0.19692E-04 14884   0.169E-02    0.862E-02
RMM:  15    -0.233014544593E+04    0.11465E-04   -0.83402E-05 12261   0.154E-02    0.708E-02
RMM:  16    -0.233014542504E+04    0.20890E-04   -0.34859E-05  9039   0.138E-02    0.374E-02
RMM:  17    -0.233014542064E+04    0.44054E-05   -0.16488E-05  7696   0.891E-03
   8 F= -.23301454E+04 E0= -.23273805E+04  d E =-.760984E-03
       N       E                     dE             d eps       ncg     rms          rms(c)
DAV:   1    -0.233014562602E+04   -0.20098E-03   -0.10211E-01 14020   0.337E-01    0.537E-02
RMM:   2    -0.233015615589E+04   -0.10530E-01   -0.21382E-03 13941   0.983E-02    0.141E+00
RMM:   3    -0.233014767178E+04    0.84841E-02   -0.69337E-04 16337   0.439E-02    0.548E-01
RMM:   4    -0.233015021059E+04   -0.25388E-02   -0.42455E-04 14214   0.370E-02    0.897E-01
RMM:   5    -0.233014635111E+04    0.38595E-02   -0.28009E-04 13648   0.357E-02    0.324E-01
RMM:   6    -0.233014652751E+04   -0.17640E-03   -0.48727E-04 14900   0.371E-02    0.388E-01
RMM:   7    -0.233014643402E+04    0.93497E-04   -0.70846E-04 14287   0.489E-02    0.352E-01
RMM:   8    -0.233014593263E+04    0.50139E-03   -0.28691E-04 13599   0.404E-02    0.177E-01
RMM:   9    -0.233014583991E+04    0.92720E-04   -0.10181E-04 12904   0.237E-02    0.151E-01
RMM:  10    -0.233014573759E+04    0.10232E-03   -0.38510E-05  9471   0.145E-02    0.673E-02
RMM:  11    -0.233014572953E+04    0.80616E-05   -0.30625E-05  8630   0.121E-02
   9 F= -.23301457E+04 E0= -.23273807E+04  d E =-.308889E-03
       N       E                     dE             d eps       ncg     rms          rms(c)
DAV:   1    -0.233014577169E+04   -0.34100E-04   -0.91898E-01 13800   0.101E+00    0.153E-01
RMM:   2    -0.233020317380E+04   -0.57402E-01   -0.17103E-02 14020   0.278E-01    0.327E+00
RMM:   3    -0.233015393469E+04    0.49239E-01   -0.55326E-03 17604   0.113E-01    0.103E+00
RMM:   4    -0.233014874915E+04    0.51855E-02   -0.26391E-03 13708   0.122E-01    0.593E-01
RMM:   5    -0.233017220790E+04   -0.23459E-01   -0.27775E-03 16648   0.813E-02    0.218E+00
RMM:   6    -0.233015286822E+04    0.19340E-01   -0.33103E-03 18744   0.684E-02    0.100E+00
RMM:   7    -0.233014977825E+04    0.30900E-02   -0.35648E-03 13773   0.121E-01    0.696E-01
RMM:   8    -0.233014708368E+04    0.26946E-02   -0.15151E-03 13700   0.100E-01    0.320E-01
RMM:   9    -0.233014684032E+04    0.24336E-03   -0.54787E-04 13733   0.499E-02    0.263E-01
RMM:  10    -0.233014719463E+04   -0.35431E-03   -0.61514E-04 15309   0.394E-02    0.371E-01
RMM:  11    -0.233014702690E+04    0.16773E-03   -0.70735E-04 18385   0.329E-02    0.306E-01
RMM:  12    -0.233014657321E+04    0.45369E-03   -0.30032E-04 13666   0.382E-02    0.116E-01
RMM:  13    -0.233014650238E+04    0.70837E-04   -0.12301E-04 13399   0.220E-02    0.582E-02
RMM:  14    -0.233014650288E+04   -0.49779E-06   -0.93970E-05 12713   0.123E-02
  10 F= -.23301465E+04 E0= -.23273816E+04  d E =-.108224E-02
       N       E                     dE             d eps       ncg     rms          rms(c)
DAV:   1    -0.233014468977E+04    0.18126E-02   -0.36749E+00 13700   0.202E+00    0.282E-01
RMM:   2    -0.233024348507E+04   -0.98795E-01   -0.54999E-02 13943   0.519E-01    0.436E+00
RMM:   3    -0.233017755483E+04    0.65930E-01   -0.15800E-02 18339   0.185E-01    0.215E+00
RMM:   4    -0.233016118768E+04    0.16367E-01   -0.60797E-03 13715   0.172E-01    0.151E+00
RMM:   5    -0.233020524787E+04   -0.44060E-01   -0.80955E-03 19685   0.949E-02    0.324E+00
RMM:   6    -0.233015875562E+04    0.46492E-01   -0.87414E-03 13804   0.184E-01    0.128E+00
RMM:   7    -0.233016067200E+04   -0.19164E-02   -0.94311E-03 13843   0.196E-01    0.153E+00
RMM:   8    -0.233016000867E+04    0.66333E-03   -0.37616E-03 13752   0.131E-01    0.150E+00
RMM:   9    -0.233014965044E+04    0.10358E-01   -0.18108E-03 13722   0.106E-01    0.558E-01
RMM:  10    -0.233014911989E+04    0.53055E-03   -0.13372E-03 13905   0.762E-02    0.517E-01
RMM:  11    -0.233014842109E+04    0.69880E-03   -0.15914E-03 13960   0.769E-02    0.352E-01
RMM:  12    -0.233014802271E+04    0.39837E-03   -0.68813E-04 13716   0.603E-02    0.268E-01
RMM:  13    -0.233014783406E+04    0.18865E-03   -0.29477E-04 14159   0.345E-02    0.203E-01
RMM:  14    -0.233014777642E+04    0.57636E-04   -0.30260E-04 15976   0.240E-02    0.171E-01
RMM:  15    -0.233014766610E+04    0.11033E-03   -0.11887E-04 13458   0.200E-02    0.813E-02
RMM:  16    -0.233014763274E+04    0.33351E-04   -0.50151E-05 10378   0.159E-02    0.332E-02
RMM:  17    -0.233014763277E+04   -0.27474E-07   -0.31259E-05  9298   0.102E-02
  11 F= -.23301476E+04 E0= -.23273824E+04  d E =-.221213E-02
       N       E                     dE             d eps       ncg     rms          rms(c)
DAV:   1    -0.233013630198E+04    0.11331E-01   -0.14699E+01 13700   0.404E+00    0.570E-01
RMM:   2    -0.233057611941E+04   -0.43982E+00   -0.22828E-01 13925   0.106E+00    0.913E+00
RMM:   3    -0.233025090523E+04    0.32521E+00   -0.66029E-02 18404   0.372E-01    0.397E+00
RMM:   4    -0.233017809072E+04    0.72815E-01   -0.27916E-02 13704   0.379E-01    0.214E+00
RMM:   5    -0.233035996254E+04   -0.18187E+00   -0.35183E-02 14604   0.336E-01    0.617E+00
RMM:   6    -0.233027040169E+04    0.89561E-01   -0.44055E-02 19760   0.209E-01    0.466E+00
RMM:   7    -0.233030676468E+04   -0.36363E-01   -0.61510E-02 14774   0.405E-01    0.543E+00
RMM:   8    -0.233018716189E+04    0.11960E+00   -0.27353E-02 13842   0.338E-01    0.241E+00
RMM:   9    -0.233015404817E+04    0.33114E-01   -0.14363E-02 13722   0.286E-01    0.103E+00
RMM:  10    -0.233015486610E+04   -0.81793E-03   -0.12254E-02 14407   0.196E-01    0.113E+00
RMM:  11    -0.233015365950E+04    0.12066E-02   -0.15430E-02 15928   0.187E-01    0.949E-01
RMM:  12    -0.233014948286E+04    0.41766E-02   -0.46626E-03 13729   0.152E-01    0.507E-01
RMM:  13    -0.233014893712E+04    0.54574E-03   -0.37201E-03 16992   0.776E-02    0.390E-01
RMM:  14    -0.233014873704E+04    0.20008E-03   -0.20653E-03 18366   0.533E-02    0.313E-01
RMM:  15    -0.233014835584E+04    0.38120E-03   -0.62034E-04 14628   0.447E-02    0.160E-01
RMM:  16    -0.233014824690E+04    0.10894E-03   -0.36267E-04 15513   0.298E-02    0.690E-02
RMM:  17    -0.233014826361E+04   -0.16713E-04   -0.26539E-04 16493   0.208E-02    0.765E-02
RMM:  18    -0.233014827589E+04   -0.12278E-04   -0.12313E-04 13634   0.205E-02    0.860E-02
RMM:  19    -0.233014824829E+04    0.27604E-04   -0.50791E-05 10387   0.161E-02    0.476E-02
RMM:  20    -0.233014824890E+04   -0.61758E-06   -0.38603E-05  9670   0.115E-02
  12 F= -.23301482E+04 E0= -.23273826E+04  d E =-.282827E-02
       N       E                     dE             d eps       ncg     rms          rms(c)
DAV:   1    -0.233014917900E+04   -0.93071E-03   -0.99656E-01 13720   0.105E+00    0.203E-01
RMM:   2    -0.233017041479E+04   -0.21236E-01   -0.30734E-02 14697   0.322E-01    0.191E+00
RMM:   3    -0.233024499541E+04   -0.74581E-01   -0.18810E-02 19911   0.147E-01    0.415E+00
RMM:   4    -0.233018378337E+04    0.61212E-01   -0.52216E-03 13746   0.159E-01    0.244E+00
RMM:   5    -0.233016111551E+04    0.22668E-01   -0.39606E-03 14793   0.114E-01    0.131E+00
RMM:   6    -0.233015870463E+04    0.24109E-02   -0.52629E-03 14439   0.128E-01    0.125E+00
RMM:   7    -0.233016433759E+04   -0.56330E-02   -0.11982E-02 17017   0.149E-01    0.159E+00
RMM:   8    -0.233015681531E+04    0.75223E-02   -0.73390E-03 15832   0.136E-01    0.107E+00
RMM:   9    -0.233015221614E+04    0.45992E-02   -0.30677E-03 13714   0.122E-01    0.598E-01
RMM:  10    -0.233015062163E+04    0.15945E-02   -0.17875E-03 14359   0.762E-02    0.311E-01
RMM:  11    -0.233015054534E+04    0.76290E-04   -0.21268E-03 18540   0.528E-02    0.268E-01
RMM:  12    -0.233015058247E+04   -0.37135E-04   -0.12633E-03 15535   0.547E-02    0.267E-01
RMM:  13    -0.233015029567E+04    0.28681E-03   -0.43823E-04 13722   0.442E-02    0.145E-01
RMM:  14    -0.233015026223E+04    0.33438E-04   -0.45102E-04 16912   0.276E-02    0.122E-01
RMM:  15    -0.233015026756E+04   -0.53254E-05   -0.22429E-04 14092   0.290E-02    0.132E-01
RMM:  16    -0.233015019640E+04    0.71151E-04   -0.13659E-04 13416   0.241E-02    0.705E-02
RMM:  17    -0.233015017811E+04    0.18298E-04   -0.67817E-05 11084   0.136E-02    0.382E-02
RMM:  18    -0.233015018105E+04   -0.29397E-05   -0.36659E-05  9566   0.940E-03
  13 F= -.23301502E+04 E0= -.23273851E+04  d E =-.193214E-02
       N       E                     dE             d eps       ncg     rms          rms(c)
DAV:   1    -0.233015019400E+04   -0.15896E-04   -0.10136E-01 13920   0.335E-01    0.673E-02
RMM:   2    -0.233015414013E+04   -0.39461E-02   -0.31538E-03 14231   0.110E-01    0.841E-01
RMM:   3    -0.233015484147E+04   -0.70134E-03   -0.21228E-03 20155   0.447E-02    0.888E-01
RMM:   4    -0.233015921565E+04   -0.43742E-02   -0.71284E-04 13997   0.556E-02    0.128E+00
RMM:   5    -0.233015109085E+04    0.81248E-02   -0.54222E-04 14717   0.420E-02    0.307E-01
RMM:   6    -0.233015125198E+04   -0.16113E-03   -0.77027E-04 14307   0.499E-02    0.403E-01
RMM:   7    -0.233015075990E+04    0.49209E-03   -0.11839E-03 16004   0.517E-02    0.284E-01
RMM:   8    -0.233015149067E+04   -0.73077E-03   -0.54086E-04 14219   0.414E-02    0.474E-01
RMM:   9    -0.233015048613E+04    0.10045E-02   -0.25891E-04 14313   0.283E-02    0.169E-01
RMM:  10    -0.233015035360E+04    0.13252E-03   -0.16559E-04 14160   0.229E-02    0.962E-02
RMM:  11    -0.233015038768E+04   -0.34079E-04   -0.19941E-04 15356   0.179E-02    0.122E-01
RMM:  12    -0.233015035888E+04    0.28798E-04   -0.84295E-05 12025   0.169E-02    0.969E-02
RMM:  13    -0.233015031667E+04    0.42211E-04   -0.38831E-05  9384   0.141E-02    0.419E-02
RMM:  14    -0.233015031379E+04    0.28837E-05   -0.25850E-05  8123   0.111E-02
  14 F= -.23301503E+04 E0= -.23273854E+04  d E =-.206489E-02
       N       E                     dE             d eps       ncg     rms          rms(c)
DAV:   1    -0.233015046003E+04   -0.14335E-03   -0.11511E-01 13840   0.359E-01    0.644E-02
RMM:   2    -0.233015972826E+04   -0.92682E-02   -0.31775E-03 13787   0.124E-01    0.128E+00
RMM:   3    -0.233015294492E+04    0.67833E-02   -0.15197E-03 18978   0.459E-02    0.627E-01
RMM:   4    -0.233016158734E+04   -0.86424E-02   -0.81322E-04 14456   0.489E-02    0.142E+00
RMM:   5    -0.233015120601E+04    0.10381E-01   -0.60048E-04 13704   0.525E-02    0.260E-01
RMM:   6    -0.233015141739E+04   -0.21138E-03   -0.92686E-04 15721   0.492E-02    0.398E-01
RMM:   7    -0.233015241130E+04   -0.99392E-03   -0.14729E-03 17805   0.496E-02    0.577E-01
RMM:   8    -0.233015160304E+04    0.80827E-03   -0.61084E-04 13878   0.470E-02    0.420E-01
RMM:   9    -0.233015081554E+04    0.78750E-03   -0.28865E-04 13566   0.372E-02    0.207E-01
RMM:  10    -0.233015060717E+04    0.20836E-03   -0.13252E-04 13254   0.245E-02    0.893E-02
RMM:  11    -0.233015060653E+04    0.64564E-06   -0.18826E-04 15228   0.189E-02    0.877E-02
RMM:  12    -0.233015059149E+04    0.15043E-04   -0.12651E-04 14003   0.174E-02    0.613E-02
RMM:  13    -0.233015057522E+04    0.16266E-04   -0.37213E-05  9209   0.130E-02    0.337E-02
RMM:  14    -0.233015057409E+04    0.11283E-05   -0.21118E-05  7943   0.840E-03
  15 F= -.23301506E+04 E0= -.23273858E+04  d E =-.260304E-03
       N       E                     dE             d eps       ncg     rms          rms(c)
DAV:   1    -0.233015041419E+04    0.16103E-03   -0.40625E-01 13740   0.674E-01    0.115E-01
RMM:   2    -0.233020560068E+04   -0.55186E-01   -0.10979E-02 14230   0.213E-01    0.317E+00
RMM:   3    -0.233015981389E+04    0.45787E-01   -0.44579E-03 17399   0.977E-02    0.120E+00
RMM:   4    -0.233017960698E+04   -0.19793E-01   -0.26936E-03 15052   0.843E-02    0.229E+00
RMM:   5    -0.233015265965E+04    0.26947E-01   -0.18704E-03 13708   0.950E-02    0.433E-01
RMM:   6    -0.233015736936E+04   -0.47097E-02   -0.38600E-03 14868   0.104E-01    0.110E+00
RMM:   7    -0.233015618906E+04    0.11803E-02   -0.43062E-03 17165   0.924E-02    0.102E+00
RMM:   8    -0.233015319096E+04    0.29981E-02   -0.18370E-03 13763   0.866E-02    0.651E-01
RMM:   9    -0.233015142634E+04    0.17646E-02   -0.83761E-04 13720   0.623E-02    0.324E-01
RMM:  10    -0.233015101946E+04    0.40688E-03   -0.52835E-04 14457   0.415E-02    0.227E-01
RMM:  11    -0.233015095277E+04    0.66688E-04   -0.73997E-04 16893   0.372E-02    0.179E-01
RMM:  12    -0.233015085992E+04    0.92848E-04   -0.33080E-04 15105   0.302E-02    0.120E-01
RMM:  13    -0.233015079447E+04    0.65449E-04   -0.12177E-04 13437   0.209E-02    0.595E-02
RMM:  14    -0.233015079625E+04   -0.17736E-05   -0.10139E-04 12541   0.123E-02    0.576E-02
RMM:  15    -0.233015079773E+04   -0.14850E-05   -0.54007E-05 10787   0.140E-02
  16 F= -.23301508E+04 E0= -.23273862E+04  d E =-.483944E-03
       N       E                     dE             d eps       ncg     rms          rms(c)
DAV:   1    -0.233015091249E+04   -0.11624E-03   -0.10120E-01 13820   0.337E-01    0.615E-02
RMM:   2    -0.233019386755E+04   -0.42955E-01   -0.40644E-03 14660   0.118E-01    0.280E+00
RMM:   3    -0.233015501005E+04    0.38857E-01   -0.11997E-03 14711   0.660E-02    0.707E-01
RMM:   4    -0.233015730780E+04   -0.22977E-02   -0.96078E-04 14195   0.585E-02    0.106E+00
RMM:   5    -0.233015187954E+04    0.54283E-02   -0.93137E-04 13720   0.673E-02    0.381E-01
RMM:   6    -0.233015414018E+04   -0.22606E-02   -0.17888E-03 15200   0.679E-02    0.743E-01
RMM:   7    -0.233015332469E+04    0.81548E-03   -0.12994E-03 14343   0.655E-02    0.644E-01
RMM:   8    -0.233015191857E+04    0.14061E-02   -0.68291E-04 13937   0.508E-02    0.382E-01
RMM:   9    -0.233015111038E+04    0.80819E-03   -0.37796E-04 13689   0.482E-02    0.129E-01
RMM:  10    -0.233015101613E+04    0.94245E-04   -0.20008E-04 14596   0.246E-02    0.588E-02
RMM:  11    -0.233015110059E+04   -0.84459E-04   -0.22411E-04 15477   0.194E-02    0.136E-01
RMM:  12    -0.233015103730E+04    0.63291E-04   -0.76817E-05 11464   0.166E-02    0.743E-02
RMM:  13    -0.233015101335E+04    0.23951E-04   -0.31899E-05  8849   0.128E-02    0.415E-02
RMM:  14    -0.233015100757E+04    0.57827E-05   -0.17292E-05  7804   0.825E-03
  17 F= -.23301510E+04 E0= -.23273865E+04  d E =-.209835E-03
       N       E                     dE             d eps       ncg     rms          rms(c)
DAV:   1    -0.233015079956E+04    0.21379E-03   -0.91145E-01 13700   0.101E+00    0.147E-01
RMM:   2    -0.233025800224E+04   -0.10720E+00   -0.18565E-02 14190   0.284E-01    0.436E+00
RMM:   3    -0.233015963200E+04    0.98370E-01   -0.51837E-03 15158   0.135E-01    0.103E+00
RMM:   4    -0.233019023733E+04   -0.30605E-01   -0.29389E-03 14139   0.106E-01    0.265E+00
RMM:   5    -0.233015556729E+04    0.34670E-01   -0.17813E-03 13999   0.818E-02    0.748E-01
RMM:   6    -0.233016151626E+04   -0.59490E-02   -0.42202E-03 14579   0.113E-01    0.137E+00
RMM:   7    -0.233016569184E+04   -0.41756E-02   -0.64094E-03 15092   0.128E-01    0.160E+00
RMM:   8    -0.233015337760E+04    0.12314E-01   -0.23875E-03 13711   0.111E-01    0.508E-01
RMM:   9    -0.233015195597E+04    0.14216E-02   -0.10060E-03 13735   0.761E-02    0.277E-01
RMM:  10    -0.233015173795E+04    0.21802E-03   -0.70488E-04 14926   0.433E-02    0.212E-01
RMM:  11    -0.233015170151E+04    0.36437E-04   -0.68693E-04 14796   0.441E-02    0.171E-01
RMM:  12    -0.233015160339E+04    0.98124E-04   -0.26052E-04 13863   0.336E-02    0.118E-01
RMM:  13    -0.233015154660E+04    0.56786E-04   -0.15858E-04 13433   0.197E-02    0.597E-02
RMM:  14    -0.233015154587E+04    0.72818E-06   -0.87421E-05 11633   0.128E-02
  18 F= -.23301515E+04 E0= -.23273869E+04  d E =-.748138E-03
       N       E                     dE             d eps       ncg     rms          rms(c)
DAV:   1    -0.233014906472E+04    0.24819E-02   -0.36460E+00 13700   0.201E+00    0.292E-01
RMM:   2    -0.233051093135E+04   -0.36187E+00   -0.68943E-02 14103   0.556E-01    0.802E+00
RMM:   3    -0.233019544266E+04    0.31549E+00   -0.19835E-02 15919   0.247E-01    0.255E+00
RMM:   4    -0.233025945169E+04   -0.64009E-01   -0.11488E-02 15192   0.176E-01    0.444E+00
RMM:   5    -0.233016524003E+04    0.94212E-01   -0.90096E-03 13729   0.202E-01    0.137E+00
RMM:   6    -0.233018739873E+04   -0.22159E-01   -0.15920E-02 14443   0.222E-01    0.255E+00
RMM:   7    -0.233020462936E+04   -0.17231E-01   -0.28075E-02 15888   0.245E-01    0.308E+00
RMM:   8    -0.233015965317E+04    0.44976E-01   -0.96366E-03 13748   0.212E-01    0.104E+00
RMM:   9    -0.233015375022E+04    0.59030E-02   -0.42203E-03 13712   0.155E-01    0.560E-01
RMM:  10    -0.233015271240E+04    0.10378E-02   -0.29638E-03 15297   0.879E-02    0.398E-01
RMM:  11    -0.233015257985E+04    0.13255E-03   -0.27828E-03 15054   0.862E-02    0.323E-01
RMM:  12    -0.233015231572E+04    0.26413E-03   -0.12621E-03 14513   0.650E-02    0.243E-01
RMM:  13    -0.233015213607E+04    0.17965E-03   -0.84525E-04 16275   0.374E-02    0.146E-01
RMM:  14    -0.233015211319E+04    0.22885E-04   -0.47511E-04 17214   0.265E-02    0.130E-01
RMM:  15    -0.233015207508E+04    0.38108E-04   -0.24908E-04 15334   0.246E-02    0.998E-02
RMM:  16    -0.233015202467E+04    0.50408E-04   -0.83166E-05 12426   0.193E-02    0.382E-02
RMM:  17    -0.233015202908E+04   -0.44061E-05   -0.62611E-05 10980   0.107E-02
  19 F= -.23301520E+04 E0= -.23273871E+04  d E =-.123134E-02
       N       E                     dE             d eps       ncg     rms          rms(c)
DAV:   1    -0.233015215732E+04   -0.13265E-03   -0.13191E-01 13800   0.383E-01    0.721E-02
RMM:   2    -0.233022682703E+04   -0.74670E-01   -0.69499E-03 15259   0.137E-01    0.372E+00
RMM:   3    -0.233015942315E+04    0.67404E-01   -0.18821E-03 14273   0.872E-02    0.969E-01
RMM:   4    -0.233015966122E+04   -0.23807E-03   -0.13351E-03 14154   0.706E-02    0.114E+00
RMM:   5    -0.233015374056E+04    0.59207E-02   -0.14728E-03 13707   0.871E-02    0.472E-01
RMM:   6    -0.233015691799E+04   -0.31774E-02   -0.34920E-03 15708   0.871E-02    0.924E-01
RMM:   7    -0.233015566986E+04    0.12481E-02   -0.17446E-03 14067   0.812E-02    0.787E-01
RMM:   8    -0.233015352133E+04    0.21485E-02   -0.87568E-04 13826   0.573E-02    0.457E-01
RMM:   9    -0.233015239490E+04    0.11264E-02   -0.46700E-04 13702   0.541E-02    0.148E-01
RMM:  10    -0.233015233034E+04    0.64556E-04   -0.32185E-04 15673   0.263E-02    0.120E-01
RMM:  11    -0.233015236925E+04   -0.38906E-04   -0.31061E-04 16857   0.227E-02    0.139E-01
RMM:  12    -0.233015229730E+04    0.71948E-04   -0.80797E-05 11981   0.191E-02    0.816E-02
RMM:  13    -0.233015227075E+04    0.26546E-04   -0.37333E-05  9475   0.107E-02    0.413E-02
RMM:  14    -0.233015226823E+04    0.25211E-05   -0.20863E-05  7832   0.889E-03
  20 F= -.23301523E+04 E0= -.23273874E+04  d E =-.239156E-03
       N       E                     dE             d eps       ncg     rms          rms(c)
DAV:   1    -0.233015200489E+04    0.26586E-03   -0.11871E+00 13700   0.115E+00    0.153E-01
RMM:   2    -0.233021042599E+04   -0.58421E-01   -0.17422E-02 13971   0.290E-01    0.323E+00
RMM:   3    -0.233015638435E+04    0.54042E-01   -0.38702E-03 16531   0.107E-01    0.612E-01
RMM:   4    -0.233018709949E+04   -0.30715E-01   -0.21401E-03 15310   0.745E-02    0.252E+00
RMM:   5    -0.233016072153E+04    0.26378E-01   -0.27575E-03 13891   0.102E-01    0.111E+00
RMM:   6    -0.233016112972E+04   -0.40819E-03   -0.40583E-03 14466   0.116E-01    0.123E+00
RMM:   7    -0.233016231925E+04   -0.11895E-02   -0.43524E-03 14190   0.120E-01    0.125E+00
RMM:   8    -0.233015385514E+04    0.84641E-02   -0.15895E-03 13709   0.966E-02    0.364E-01
RMM:   9    -0.233015308932E+04    0.76583E-03   -0.79668E-04 13758   0.673E-02    0.172E-01
RMM:  10    -0.233015320953E+04   -0.12021E-03   -0.78909E-04 14427   0.507E-02    0.218E-01
RMM:  11    -0.233015316862E+04    0.40905E-04   -0.36341E-04 13849   0.384E-02    0.202E-01
RMM:  12    -0.233015298905E+04    0.17957E-03   -0.14786E-04 13445   0.263E-02    0.956E-02
RMM:  13    -0.233015295158E+04    0.37473E-04   -0.82675E-05 11198   0.151E-02    0.547E-02
RMM:  14    -0.233015295212E+04   -0.54715E-06   -0.51613E-05 10300   0.127E-02
  21 F= -.23301530E+04 E0= -.23273879E+04  d E =-.923048E-03
       N       E                     dE             d eps       ncg     rms          rms(c)
DAV:   1    -0.233015033734E+04    0.26142E-02   -0.47488E+00 13700   0.229E+00    0.308E-01
RMM:   2    -0.233046320718E+04   -0.31287E+00   -0.73744E-02 14003   0.591E-01    0.746E+00
RMM:   3    -0.233017200935E+04    0.29120E+00   -0.16342E-02 15650   0.235E-01    0.138E+00
RMM:   4    -0.233027449094E+04   -0.10248E+00   -0.99903E-03 15496   0.159E-01    0.468E+00
RMM:   5    -0.233018224874E+04    0.92242E-01   -0.12138E-02 14228   0.205E-01    0.214E+00
RMM:   6    -0.233018672217E+04   -0.44734E-02   -0.19943E-02 14214   0.260E-01    0.242E+00
RMM:   7    -0.233020097753E+04   -0.14255E-01   -0.16855E-02 14606   0.226E-01    0.293E+00
RMM:   8    -0.233015970668E+04    0.41271E-01   -0.70907E-03 13705   0.200E-01    0.882E-01
RMM:   9    -0.233015553305E+04    0.41736E-02   -0.36038E-03 13758   0.142E-01    0.515E-01
RMM:  10    -0.233015526056E+04    0.27250E-03   -0.31976E-03 14556   0.988E-02    0.481E-01
RMM:  11    -0.233015485803E+04    0.40253E-03   -0.27597E-03 14555   0.935E-02    0.360E-01
RMM:  12    -0.233015419046E+04    0.66757E-03   -0.93771E-04 13755   0.730E-02    0.158E-01
RMM:  13    -0.233015409347E+04    0.96996E-04   -0.58160E-04 15697   0.341E-02    0.848E-02
RMM:  14    -0.233015412806E+04   -0.34590E-04   -0.39585E-04 17453   0.234E-02    0.104E-01
RMM:  15    -0.233015413308E+04   -0.50195E-05   -0.17619E-04 14356   0.241E-02    0.102E-01
RMM:  16    -0.233015409326E+04    0.39812E-04   -0.74446E-05 11598   0.150E-02    0.548E-02
RMM:  17    -0.233015409710E+04   -0.38354E-05   -0.46865E-05 10219   0.124E-02
  22 F= -.23301541E+04 E0= -.23273889E+04  d E =-.206802E-02
       N       E                     dE             d eps       ncg     rms          rms(c)
DAV:   1    -0.233014003253E+04    0.14061E-01   -0.18991E+01 13700   0.459E+00    0.621E-01
RMM:   2    -0.233120851833E+04   -0.10685E+01   -0.29468E-01 13975   0.120E+00    0.138E+01
RMM:   3    -0.233021230414E+04    0.99621E+00   -0.65580E-02 15957   0.460E-01    0.239E+00
RMM:   4    -0.233034590620E+04   -0.13360E+00   -0.43335E-02 13815   0.432E-01    0.600E+00
RMM:   5    -0.233059822647E+04   -0.25232E+00   -0.77702E-02 20316   0.264E-01    0.894E+00
RMM:   6    -0.233028905635E+04    0.30917E+00   -0.64579E-02 13917   0.478E-01    0.469E+00
RMM:   7    -0.233032516104E+04   -0.36105E-01   -0.72455E-02 14370   0.469E-01    0.544E+00
RMM:   8    -0.233017076721E+04    0.15439E+00   -0.30795E-02 13703   0.419E-01    0.151E+00
RMM:   9    -0.233016303134E+04    0.77359E-02   -0.19790E-02 13828   0.299E-01    0.122E+00
RMM:  10    -0.233016725062E+04   -0.42193E-02   -0.25342E-02 15436   0.250E-01    0.148E+00
RMM:  11    -0.233015990372E+04    0.73469E-02   -0.10096E-02 13743   0.210E-01    0.875E-01
RMM:  12    -0.233015574739E+04    0.41563E-02   -0.44124E-03 14101   0.142E-01    0.314E-01
RMM:  13    -0.233015568247E+04    0.64918E-04   -0.46412E-03 19043   0.617E-02    0.221E-01
RMM:  14    -0.233015574746E+04   -0.64984E-04   -0.14642E-03 16175   0.547E-02    0.235E-01
RMM:  15    -0.233015556417E+04    0.18329E-03   -0.68265E-04 14980   0.457E-02    0.138E-01
RMM:  16    -0.233015551731E+04    0.46862E-04   -0.42200E-04 15678   0.311E-02    0.913E-02
RMM:  17    -0.233015557170E+04   -0.54395E-04   -0.36740E-04 15905   0.278E-02    0.127E-01
RMM:  18    -0.233015554666E+04    0.25039E-04   -0.19046E-04 14133   0.270E-02    0.100E-01
RMM:  19    -0.233015551196E+04    0.34705E-04   -0.10314E-04 13046   0.192E-02    0.595E-02
RMM:  20    -0.233015551745E+04   -0.54886E-05   -0.84001E-05 11559   0.130E-02
  23 F= -.23301555E+04 E0= -.23273900E+04  d E =-.348837E-02
       N       E                     dE             d eps       ncg     rms          rms(c)
DAV:   1    -0.233015543924E+04    0.72719E-04   -0.11457E+00 13700   0.113E+00    0.156E-01
RMM:   2    -0.233022556814E+04   -0.70129E-01   -0.18720E-02 13981   0.292E-01    0.358E+00
RMM:   3    -0.233016575498E+04    0.59813E-01   -0.53793E-03 18494   0.102E-01    0.116E+00
RMM:   4    -0.233018341531E+04   -0.17660E-01   -0.28194E-03 14280   0.981E-02    0.221E+00
RMM:   5    -0.233015898004E+04    0.24435E-01   -0.28744E-03 13711   0.116E-01    0.568E-01
RMM:   6    -0.233016803177E+04   -0.90517E-02   -0.70793E-03 15227   0.134E-01    0.144E+00
RMM:   7    -0.233016333544E+04    0.46963E-02   -0.50657E-03 15388   0.121E-01    0.111E+00
RMM:   8    -0.233016067126E+04    0.26642E-02   -0.24545E-03 13979   0.933E-02    0.872E-01
RMM:   9    -0.233015672693E+04    0.39443E-02   -0.12000E-03 13704   0.840E-02    0.236E-01
RMM:  10    -0.233015652733E+04    0.19960E-03   -0.89509E-04 15717   0.472E-02    0.183E-01
RMM:  11    -0.233015669339E+04   -0.16606E-03   -0.10008E-03 18039   0.406E-02    0.242E-01
RMM:  12    -0.233015648375E+04    0.20965E-03   -0.27091E-04 13675   0.327E-02    0.146E-01
RMM:  13    -0.233015640294E+04    0.80806E-04   -0.22250E-04 15673   0.188E-02    0.772E-02
RMM:  14    -0.233015640624E+04   -0.33038E-05   -0.10371E-04 13103   0.147E-02    0.822E-02
RMM:  15    -0.233015638030E+04    0.25943E-04   -0.48415E-05 10376   0.151E-02    0.490E-02
RMM:  16    -0.233015637194E+04    0.83665E-05   -0.21190E-05  7804   0.100E-02
  24 F= -.23301564E+04 E0= -.23273911E+04  d E =-.854489E-03
       N       E                     dE             d eps       ncg     rms          rms(c)
DAV:   1    -0.233015023988E+04    0.61404E-02   -0.10310E+01 13700   0.338E+00    0.458E-01
RMM:   2    -0.233053722116E+04   -0.38698E+00   -0.15138E-01 13954   0.861E-01    0.838E+00
RMM:   3    -0.233020611877E+04    0.33110E+00   -0.36270E-02 17732   0.298E-01    0.264E+00
RMM:   4    -0.233042038740E+04   -0.21427E+00   -0.18975E-02 15062   0.224E-01    0.690E+00
RMM:   5    -0.233017864323E+04    0.24174E+00   -0.17374E-02 13745   0.278E-01    0.150E+00
RMM:   6    -0.233028931904E+04   -0.11068E+00   -0.55675E-02 14913   0.384E-01    0.504E+00
RMM:   7    -0.233019345051E+04    0.95869E-01   -0.23485E-02 14248   0.297E-01    0.235E+00
RMM:   8    -0.233016992217E+04    0.23528E-01   -0.11042E-02 13711   0.259E-01    0.132E+00
RMM:   9    -0.233016190552E+04    0.80166E-02   -0.48534E-03 14145   0.140E-01    0.798E-01
RMM:  10    -0.233016223961E+04   -0.33408E-03   -0.68996E-03 14971   0.134E-01    0.818E-01
RMM:  11    -0.233016155488E+04    0.68473E-03   -0.48570E-03 15250   0.116E-01    0.733E-01
RMM:  12    -0.233015904355E+04    0.25113E-02   -0.17574E-03 13714   0.991E-02    0.329E-01
RMM:  13    -0.233015879252E+04    0.25103E-03   -0.12887E-03 16417   0.476E-02    0.257E-01
RMM:  14    -0.233015873892E+04    0.53608E-04   -0.83611E-04 16563   0.400E-02    0.224E-01
RMM:  15    -0.233015853337E+04    0.20554E-03   -0.31255E-04 14060   0.354E-02    0.108E-01
RMM:  16    -0.233015849637E+04    0.36997E-04   -0.20458E-04 14866   0.221E-02    0.700E-02
RMM:  17    -0.233015850819E+04   -0.11818E-04   -0.13959E-04 13990   0.168E-02    0.779E-02
RMM:  18    -0.233015849599E+04    0.12201E-04   -0.62298E-05 11238   0.164E-02    0.602E-02
RMM:  19    -0.233015848415E+04    0.11839E-04   -0.25507E-05  8491   0.121E-02    0.389E-02
RMM:  20    -0.233015848350E+04    0.65053E-06   -0.16097E-05  8176   0.801E-03
  25 F= -.23301585E+04 E0= -.23273937E+04  d E =-.296606E-02
       N       E                     dE             d eps       ncg     rms          rms(c)
DAV:   1    -0.233012493084E+04    0.33553E-01   -0.41225E+01 13700   0.676E+00    0.943E-01
RMM:   2    -0.233126232635E+04   -0.11374E+01   -0.62853E-01 13946   0.177E+00    0.143E+01
RMM:   3    -0.233035401781E+04    0.90831E+00   -0.15375E-01 18240   0.581E-01    0.549E+00
RMM:   4    -0.233146344215E+04   -0.11094E+01   -0.83328E-02 14269   0.537E-01    0.153E+01
RMM:   5    -0.233026932801E+04    0.11941E+01   -0.65147E-02 14455   0.467E-01    0.362E+00
RMM:   6    -0.233086398655E+04   -0.59466E+00   -0.24767E-01 15237   0.758E-01    0.116E+01
RMM:   7    -0.233026495893E+04    0.59903E+00   -0.90328E-02 13823   0.641E-01    0.384E+00
RMM:   8    -0.233018215989E+04    0.82799E-01   -0.45657E-02 13728   0.544E-01    0.198E+00
RMM:   9    -0.233021738907E+04   -0.35229E-01   -0.42836E-02 15059   0.336E-01    0.303E+00
RMM:  10    -0.233018222620E+04    0.35163E-01   -0.30704E-02 14844   0.305E-01    0.198E+00
RMM:  11    -0.233016780674E+04    0.14419E-01   -0.13885E-02 13778   0.269E-01    0.121E+00
RMM:  12    -0.233016171942E+04    0.60873E-02   -0.56774E-03 14408   0.139E-01    0.602E-01
RMM:  13    -0.233016132902E+04    0.39040E-03   -0.59104E-03 16721   0.937E-02    0.528E-01
RMM:  14    -0.233016115630E+04    0.17272E-03   -0.38258E-03 16183   0.889E-02    0.458E-01
RMM:  15    -0.233016035070E+04    0.80560E-03   -0.15349E-03 14398   0.756E-02    0.244E-01
RMM:  16    -0.233016018880E+04    0.16190E-03   -0.11511E-03 16389   0.464E-02    0.172E-01
RMM:  17    -0.233016023565E+04   -0.46845E-04   -0.85291E-04 17172   0.371E-02    0.174E-01
RMM:  18    -0.233016013636E+04    0.99287E-04   -0.25087E-04 13894   0.330E-02    0.122E-01
RMM:  19    -0.233016011364E+04    0.22723E-04   -0.19474E-04 14614   0.209E-02    0.984E-02
RMM:  20    -0.233016013209E+04   -0.18454E-04   -0.16314E-04 14677   0.185E-02    0.107E-01
RMM:  21    -0.233016010980E+04    0.22294E-04   -0.81092E-05 12257   0.180E-02    0.811E-02
RMM:  22    -0.233016009350E+04    0.16294E-04   -0.33940E-05  9531   0.113E-02    0.593E-02
RMM:  23    -0.233016008931E+04    0.41889E-05   -0.26102E-05  8965   0.843E-03
  26 F= -.23301601E+04 E0= -.23273963E+04  d E =-.457187E-02
       N       E                     dE             d eps       ncg     rms          rms(c)
DAV:   1    -0.233015914751E+04    0.94599E-03   -0.20136E+00 13700   0.149E+00    0.198E-01
RMM:   2    -0.233019251675E+04   -0.33369E-01   -0.27307E-02 13953   0.370E-01    0.249E+00
RMM:   3    -0.233017040598E+04    0.22111E-01   -0.68596E-03 19047   0.112E-01    0.125E+00
RMM:   4    -0.233019476888E+04   -0.24363E-01   -0.24254E-03 13831   0.996E-02    0.250E+00
RMM:   5    -0.233016840525E+04    0.26364E-01   -0.30140E-03 15809   0.832E-02    0.106E+00
RMM:   6    -0.233017030276E+04   -0.18975E-02   -0.62335E-03 13971   0.150E-01    0.124E+00
RMM:   7    -0.233016834122E+04    0.19615E-02   -0.44135E-03 13807   0.140E-01    0.119E+00
RMM:   8    -0.233016450499E+04    0.38362E-02   -0.19909E-03 14178   0.856E-02    0.793E-01
RMM:   9    -0.233016137539E+04    0.31296E-02   -0.11094E-03 13701   0.847E-02    0.308E-01
RMM:  10    -0.233016101382E+04    0.36158E-03   -0.58775E-04 14080   0.484E-02    0.226E-01
RMM:  11    -0.233016102882E+04   -0.15005E-04   -0.71080E-04 15297   0.429E-02    0.217E-01
RMM:  12    -0.233016084733E+04    0.18149E-03   -0.28940E-04 13692   0.365E-02    0.124E-01
RMM:  13    -0.233016077221E+04    0.75123E-04   -0.11846E-04 13269   0.237E-02    0.682E-02
RMM:  14    -0.233016076743E+04    0.47766E-05   -0.62865E-05 11007   0.130E-02
  27 F= -.23301608E+04 E0= -.23273973E+04  d E =-.678119E-03
       N       E                     dE             d eps       ncg     rms          rms(c)
DAV:   1    -0.233014771067E+04    0.13062E-01   -0.18121E+01 13700   0.448E+00    0.608E-01
RMM:   2    -0.233066836177E+04   -0.52065E+00   -0.26290E-01 13952   0.114E+00    0.981E+00
RMM:   3    -0.233023898833E+04    0.42937E+00   -0.60045E-02 17683   0.386E-01    0.336E+00
RMM:   4    -0.233036908831E+04   -0.13010E+00   -0.27728E-02 13763   0.356E-01    0.615E+00
RMM:   5    -0.233026470070E+04    0.10439E+00   -0.35405E-02 19234   0.209E-01    0.418E+00
RMM:   6    -0.233028899002E+04   -0.24289E-01   -0.76889E-02 14590   0.470E-01    0.450E+00
RMM:   7    -0.233019267805E+04    0.96312E-01   -0.30126E-02 13701   0.416E-01    0.224E+00
RMM:   8    -0.233019576739E+04   -0.30893E-02   -0.11849E-02 13968   0.221E-01    0.248E+00
RMM:   9    -0.233017215254E+04    0.23615E-01   -0.64249E-03 13773   0.178E-01    0.129E+00
RMM:  10    -0.233017335834E+04   -0.12058E-02   -0.11087E-02 14606   0.180E-01    0.141E+00
RMM:  11    -0.233016446584E+04    0.88925E-02   -0.49354E-03 13782   0.155E-01    0.584E-01
RMM:  12    -0.233016297310E+04    0.14927E-02   -0.19712E-03 13809   0.107E-01    0.374E-01
RMM:  13    -0.233016274844E+04    0.22465E-03   -0.13808E-03 15326   0.561E-02    0.307E-01
RMM:  14    -0.233016269111E+04    0.57335E-04   -0.11241E-03 15794   0.503E-02    0.265E-01
RMM:  15    -0.233016235810E+04    0.33301E-03   -0.35807E-04 14029   0.404E-02    0.100E-01
RMM:  16    -0.233016233937E+04    0.18729E-04   -0.28297E-04 15543   0.243E-02    0.738E-02
RMM:  17    -0.233016237684E+04   -0.37463E-04   -0.25085E-04 15757   0.222E-02    0.998E-02
RMM:  18    -0.233016235037E+04    0.26463E-04   -0.90024E-05 12324   0.195E-02    0.657E-02
RMM:  19    -0.233016233584E+04    0.14534E-04   -0.43859E-05 10158   0.128E-02    0.402E-02
RMM:  20    -0.233016233775E+04   -0.19138E-05   -0.27708E-05  9004   0.891E-03
  28 F= -.23301623E+04 E0= -.23273995E+04  d E =-.224844E-02
       N       E                     dE             d eps       ncg     rms          rms(c)
DAV:   1    -0.233009856936E+04    0.63766E-01   -0.72434E+01 13700   0.896E+00    0.128E+00
RMM:   2    -0.233140246862E+04   -0.13039E+01   -0.11232E+00 13944   0.238E+00    0.155E+01
RMM:   3    -0.233059260579E+04    0.80986E+00   -0.26710E-01 18593   0.744E-01    0.830E+00
RMM:   4    -0.233054908445E+04    0.43521E-01   -0.12984E-01 13710   0.779E-01    0.830E+00
RMM:   5    -0.233141312665E+04   -0.86404E+00   -0.21083E-01 20332   0.431E-01    0.151E+01
RMM:   6    -0.233075265737E+04    0.66047E+00   -0.26545E-01 14370   0.905E-01    0.979E+00
RMM:   7    -0.233053871409E+04    0.21394E+00   -0.13578E-01 13711   0.824E-01    0.842E+00
RMM:   8    -0.233029392932E+04    0.24478E+00   -0.70186E-02 13776   0.560E-01    0.449E+00
RMM:   9    -0.233023854081E+04    0.55389E-01   -0.71511E-02 13748   0.585E-01    0.365E+00
RMM:  10    -0.233023710877E+04    0.14320E-02   -0.65862E-02 13848   0.510E-01    0.360E+00
RMM:  11    -0.233017454561E+04    0.62563E-01   -0.26267E-02 13701   0.393E-01    0.132E+00
RMM:  12    -0.233016492141E+04    0.96242E-02   -0.99621E-03 13941   0.226E-01    0.670E-01
RMM:  13    -0.233016519489E+04   -0.27348E-03   -0.10560E-02 16823   0.127E-01    0.661E-01
RMM:  14    -0.233016435078E+04    0.84411E-03   -0.47795E-03 15494   0.108E-01    0.489E-01
RMM:  15    -0.233016346414E+04    0.88663E-03   -0.21610E-03 14739   0.835E-02    0.261E-01
RMM:  16    -0.233016347693E+04   -0.12789E-04   -0.21063E-03 18040   0.535E-02    0.230E-01
RMM:  17    -0.233016349521E+04   -0.18280E-04   -0.10704E-03 15426   0.525E-02    0.212E-01
RMM:  18    -0.233016332768E+04    0.16753E-03   -0.39876E-04 14263   0.415E-02    0.125E-01
RMM:  19    -0.233016332397E+04    0.37063E-05   -0.41632E-04 16886   0.243E-02    0.105E-01
RMM:  20    -0.233016334836E+04   -0.24390E-04   -0.29044E-04 15941   0.245E-02    0.112E-01
RMM:  21    -0.233016332285E+04    0.25517E-04   -0.13109E-04 13887   0.213E-02    0.828E-02
RMM:  22    -0.233016331584E+04    0.70080E-05   -0.10170E-04 12254   0.122E-02    0.693E-02
RMM:  23    -0.233016331138E+04    0.44606E-05   -0.45060E-05 10414   0.121E-02
  29 F= -.23301633E+04 E0= -.23274018E+04  d E =-.322206E-02
       N       E                     dE             d eps       ncg     rms          rms(c)
DAV:   1    -0.233016088453E+04    0.24313E-02   -0.51222E+00 13700   0.238E+00    0.330E-01
RMM:   2    -0.233030798847E+04   -0.14710E+00   -0.80068E-02 13971   0.616E-01    0.536E+00
RMM:   3    -0.233022692102E+04    0.81067E-01   -0.23848E-02 18094   0.229E-01    0.309E+00
RMM:   4    -0.233019984347E+04    0.27078E-01   -0.74131E-03 13714   0.189E-01    0.250E+00
RMM:   5    -0.233019937299E+04    0.47048E-03   -0.83863E-03 18757   0.108E-01    0.242E+00
RMM:   6    -0.233017933194E+04    0.20041E-01   -0.14844E-02 13708   0.251E-01    0.156E+00
RMM:   7    -0.233023457756E+04   -0.55246E-01   -0.30873E-02 17418   0.226E-01    0.365E+00
RMM:   8    -0.233017102781E+04    0.63550E-01   -0.95247E-03 13701   0.219E-01    0.847E-01
RMM:   9    -0.233016544524E+04    0.55826E-02   -0.39236E-03 13772   0.142E-01    0.338E-01
RMM:  10    -0.233016589288E+04   -0.44764E-03   -0.48268E-03 16823   0.971E-02    0.403E-01
RMM:  11    -0.233016586280E+04    0.30087E-04   -0.20751E-03 14936   0.764E-02    0.403E-01
RMM:  12    -0.233016531036E+04    0.55244E-03   -0.11445E-03 14720   0.564E-02    0.250E-01
RMM:  13    -0.233016516387E+04    0.14649E-03   -0.88171E-04 18453   0.302E-02    0.172E-01
RMM:  14    -0.233016515850E+04    0.53684E-05   -0.41290E-04 16084   0.279E-02    0.165E-01
RMM:  15    -0.233016505854E+04    0.99960E-04   -0.14274E-04 13582   0.239E-02    0.996E-02
RMM:  16    -0.233016503531E+04    0.23227E-04   -0.87747E-05 11875   0.148E-02    0.734E-02
RMM:  17    -0.233016502883E+04    0.64839E-05   -0.48420E-05 10374   0.116E-02
  30 F= -.23301650E+04 E0= -.23274033E+04  d E =-.171745E-02
       N       E                     dE             d eps       ncg     rms          rms(c)
DAV:   1    -0.233014371398E+04    0.21321E-01   -0.27290E+01 13700   0.549E+00    0.776E-01
RMM:   2    -0.233087011169E+04   -0.72640E+00   -0.43487E-01 13949   0.146E+00    0.119E+01
RMM:   3    -0.233045026677E+04    0.41984E+00   -0.12332E-01 18229   0.520E-01    0.660E+00
RMM:   4    -0.233025736088E+04    0.19291E+00   -0.43197E-02 13711   0.455E-01    0.384E+00
RMM:   5    -0.233069192205E+04   -0.43456E+00   -0.63950E-02 19277   0.275E-01    0.980E+00
RMM:   6    -0.233024745399E+04    0.44447E+00   -0.72075E-02 13728   0.541E-01    0.347E+00
RMM:   7    -0.233051194600E+04   -0.26449E+00   -0.13047E-01 15487   0.543E-01    0.818E+00
RMM:   8    -0.233021360088E+04    0.29835E+00   -0.38428E-02 13709   0.443E-01    0.254E+00
RMM:   9    -0.233018335446E+04    0.30246E-01   -0.19785E-02 13727   0.343E-01    0.172E+00
RMM:  10    -0.233018658309E+04   -0.32286E-02   -0.28051E-02 15042   0.276E-01    0.189E+00
RMM:  11    -0.233017385912E+04    0.12724E-01   -0.12312E-02 14016   0.221E-01    0.108E+00
RMM:  12    -0.233016863823E+04    0.52209E-02   -0.54336E-03 13760   0.178E-01    0.640E-01
RMM:  13    -0.233016778687E+04    0.85137E-03   -0.33790E-03 16157   0.784E-02    0.500E-01
RMM:  14    -0.233016747851E+04    0.30835E-03   -0.26247E-03 16061   0.729E-02    0.416E-01
RMM:  15    -0.233016684365E+04    0.63486E-03   -0.96634E-04 14371   0.597E-02    0.234E-01
RMM:  16    -0.233016672780E+04    0.11586E-03   -0.67556E-04 15943   0.368E-02    0.177E-01
RMM:  17    -0.233016671613E+04    0.11664E-04   -0.56129E-04 17690   0.289E-02    0.149E-01
RMM:  18    -0.233016665411E+04    0.62021E-04   -0.18481E-04 14154   0.267E-02    0.960E-02
RMM:  19    -0.233016662807E+04    0.26038E-04   -0.91954E-05 12696   0.196E-02    0.727E-02
RMM:  20    -0.233016663708E+04   -0.90081E-05   -0.86589E-05 11956   0.140E-02
  31 F= -.23301666E+04 E0= -.23274044E+04  d E =-.332570E-02
       N       E                     dE             d eps       ncg     rms          rms(c)
DAV:   1    -0.233016586063E+04    0.76744E-03   -0.22511E+00 13700   0.158E+00    0.238E-01
RMM:   2    -0.233024816455E+04   -0.82304E-01   -0.40867E-02 14013   0.429E-01    0.390E+00
RMM:   3    -0.233027142435E+04   -0.23260E-01   -0.18999E-02 19962   0.155E-01    0.429E+00
RMM:   4    -0.233017750050E+04    0.93924E-01   -0.64124E-03 13705   0.174E-01    0.108E+00
RMM:   5    -0.233019664786E+04   -0.19147E-01   -0.69862E-03 14150   0.160E-01    0.233E+00
RMM:   6    -0.233019589779E+04    0.75007E-03   -0.10762E-02 18795   0.126E-01    0.223E+00
RMM:   7    -0.233018522781E+04    0.10670E-01   -0.11320E-02 15461   0.166E-01    0.173E+00
RMM:   8    -0.233017276088E+04    0.12467E-01   -0.66234E-03 13800   0.173E-01    0.901E-01
RMM:   9    -0.233016939601E+04    0.33649E-02   -0.26952E-03 13710   0.128E-01    0.529E-01
RMM:  10    -0.233016848119E+04    0.91482E-03   -0.12592E-03 14068   0.694E-02    0.359E-01
RMM:  11    -0.233016841130E+04    0.69892E-04   -0.17293E-03 15043   0.679E-02    0.335E-01
RMM:  12    -0.233016804971E+04    0.36158E-03   -0.81201E-04 14061   0.552E-02    0.221E-01
RMM:  13    -0.233016787331E+04    0.17640E-03   -0.44278E-04 14618   0.371E-02    0.140E-01
RMM:  14    -0.233016787054E+04    0.27646E-05   -0.42688E-04 17782   0.209E-02    0.124E-01
RMM:  15    -0.233016783432E+04    0.36220E-04   -0.14850E-04 13953   0.217E-02    0.881E-02
RMM:  16    -0.233016779952E+04    0.34804E-04   -0.58432E-05 11065   0.175E-02    0.490E-02
RMM:  17    -0.233016779445E+04    0.50670E-05   -0.25391E-05  8780   0.103E-02
  32 F= -.23301678E+04 E0= -.23274055E+04  d E =-.115737E-02
       N       E                     dE             d eps       ncg     rms          rms(c)
DAV:   1    -0.233016694402E+04    0.85550E-03   -0.13602E+00 13700   0.123E+00    0.179E-01
RMM:   2    -0.233022561558E+04   -0.58672E-01   -0.23322E-02 13979   0.325E-01    0.331E+00
RMM:   3    -0.233019532141E+04    0.30294E-01   -0.91561E-03 19596   0.113E-01    0.216E+00
RMM:   4    -0.233018543199E+04    0.98894E-02   -0.33570E-03 13714   0.124E-01    0.175E+00
RMM:   5    -0.233017740240E+04    0.80296E-02   -0.34538E-03 15615   0.901E-02    0.121E+00
RMM:   6    -0.233017070435E+04    0.66981E-02   -0.44189E-03 13722   0.136E-01    0.663E-01
RMM:   7    -0.233017145381E+04   -0.74946E-03   -0.63002E-03 15125   0.134E-01    0.761E-01
RMM:   8    -0.233017449931E+04   -0.30455E-02   -0.22571E-03 13745   0.101E-01    0.110E+00
RMM:   9    -0.233016858358E+04    0.59157E-02   -0.84288E-04 13755   0.623E-02    0.235E-01
RMM:  10    -0.233016832192E+04    0.26167E-03   -0.71446E-04 14427   0.499E-02    0.209E-01
RMM:  11    -0.233016859155E+04   -0.26963E-03   -0.10599E-03 17309   0.417E-02    0.293E-01
RMM:  12    -0.233016831053E+04    0.28102E-03   -0.35380E-04 13773   0.379E-02    0.187E-01
RMM:  13    -0.233016814875E+04    0.16178E-03   -0.18775E-04 14023   0.263E-02    0.909E-02
RMM:  14    -0.233016814471E+04    0.40423E-05   -0.15735E-04 14338   0.166E-02    0.808E-02
RMM:  15    -0.233016813668E+04    0.80335E-05   -0.83356E-05 12380   0.170E-02
  33 F= -.23301681E+04 E0= -.23274059E+04  d E =-.149960E-02
       N       E                     dE             d eps       ncg     rms          rms(c)
DAV:   1    -0.233016790616E+04    0.23855E-03   -0.81750E-01 13700   0.953E-01    0.148E-01
RMM:   2    -0.233023316709E+04   -0.65261E-01   -0.17531E-02 14040   0.282E-01    0.334E+00
RMM:   3    -0.233018737792E+04    0.45789E-01   -0.74441E-03 18757   0.112E-01    0.179E+00
RMM:   4    -0.233019441141E+04   -0.70335E-02   -0.27706E-03 13882   0.103E-01    0.215E+00
RMM:   5    -0.233017427018E+04    0.20141E-01   -0.21655E-03 14101   0.876E-02    0.989E-01
RMM:   6    -0.233017286959E+04    0.14006E-02   -0.33639E-03 13744   0.118E-01    0.891E-01
RMM:   7    -0.233017590409E+04   -0.30345E-02   -0.68327E-03 18481   0.101E-01    0.114E+00
RMM:   8    -0.233017033718E+04    0.55669E-02   -0.28440E-03 13777   0.112E-01    0.512E-01
RMM:   9    -0.233016900174E+04    0.13354E-02   -0.11443E-03 13707   0.827E-02    0.255E-01
RMM:  10    -0.233016877773E+04    0.22401E-03   -0.59244E-04 14958   0.397E-02    0.180E-01
RMM:  11    -0.233016886655E+04   -0.88823E-04   -0.77846E-04 17550   0.355E-02    0.212E-01
RMM:  12    -0.233016878258E+04    0.83969E-04   -0.34014E-04 14893   0.305E-02    0.165E-01
RMM:  13    -0.233016868506E+04    0.97524E-04   -0.18209E-04 13825   0.249E-02    0.110E-01
RMM:  14    -0.233016866267E+04    0.22392E-04   -0.14862E-04 14000   0.150E-02    0.836E-02
RMM:  15    -0.233016865435E+04    0.83116E-05   -0.69767E-05 11712   0.145E-02
  34 F= -.23301687E+04 E0= -.23274068E+04  d E =-.517678E-03
       N       E                     dE             d eps       ncg     rms          rms(c)
DAV:   1    -0.233016839262E+04    0.27005E-03   -0.38165E-01 13700   0.652E-01    0.104E-01
RMM:   2    -0.233023180313E+04   -0.63411E-01   -0.87303E-03 14170   0.192E-01    0.335E+00
RMM:   3    -0.233017855311E+04    0.53250E-01   -0.32943E-03 17370   0.861E-02    0.118E+00
RMM:   4    -0.233018080969E+04   -0.22566E-02   -0.16688E-03 13758   0.842E-02    0.149E+00
RMM:   5    -0.233017192994E+04    0.88798E-02   -0.14140E-03 13991   0.717E-02    0.749E-01
RMM:   6    -0.233017138230E+04    0.54764E-03   -0.27719E-03 13736   0.107E-01    0.683E-01
RMM:   7    -0.233017829973E+04   -0.69174E-02   -0.49150E-03 17888   0.888E-02    0.135E+00
RMM:   8    -0.233016974452E+04    0.85552E-02   -0.15303E-03 13704   0.870E-02    0.372E-01
RMM:   9    -0.233016904829E+04    0.69623E-03   -0.70438E-04 13836   0.565E-02    0.249E-01
RMM:  10    -0.233016902096E+04    0.27331E-04   -0.64052E-04 17726   0.314E-02    0.228E-01
RMM:  11    -0.233016887266E+04    0.14829E-03   -0.44576E-04 15065   0.327E-02    0.150E-01
RMM:  12    -0.233016880946E+04    0.63202E-04   -0.21258E-04 14174   0.264E-02    0.110E-01
RMM:  13    -0.233016876964E+04    0.39820E-04   -0.12257E-04 13069   0.185E-02    0.730E-02
RMM:  14    -0.233016876630E+04    0.33402E-05   -0.72917E-05 11448   0.109E-02
  35 F= -.23301688E+04 E0= -.23274072E+04  d E =-.629621E-03
       N       E                     dE             d eps       ncg     rms          rms(c)
DAV:   1    -0.233016856831E+04    0.20133E-03   -0.60237E-01 13700   0.818E-01    0.128E-01
RMM:   2    -0.233026282788E+04   -0.94260E-01   -0.13246E-02 14025   0.243E-01    0.415E+00
RMM:   3    -0.233018488429E+04    0.77944E-01   -0.59314E-03 18272   0.106E-01    0.152E+00
RMM:   4    -0.233018832160E+04   -0.34373E-02   -0.29067E-03 13737   0.112E-01    0.184E+00
RMM:   5    -0.233017625795E+04    0.12064E-01   -0.24295E-03 14248   0.892E-02    0.114E+00
RMM:   6    -0.233017426030E+04    0.19977E-02   -0.33959E-03 13844   0.115E-01    0.983E-01
RMM:   7    -0.233017665758E+04   -0.23973E-02   -0.71820E-03 17895   0.109E-01    0.114E+00
RMM:   8    -0.233017105671E+04    0.56009E-02   -0.25445E-03 13704   0.111E-01    0.565E-01
RMM:   9    -0.233016978686E+04    0.12698E-02   -0.10009E-03 13700   0.755E-02    0.368E-01
RMM:  10    -0.233016953673E+04    0.25014E-03   -0.68867E-04 17438   0.350E-02    0.299E-01
RMM:  11    -0.233016934163E+04    0.19509E-03   -0.53559E-04 15668   0.347E-02    0.220E-01
RMM:  12    -0.233016912737E+04    0.21427E-03   -0.23195E-04 13820   0.298E-02    0.999E-02
RMM:  13    -0.233016910667E+04    0.20694E-04   -0.19909E-04 14852   0.184E-02    0.762E-02
RMM:  14    -0.233016910464E+04    0.20373E-05   -0.77164E-05 11820   0.135E-02
  36 F= -.23301691E+04 E0= -.23274075E+04  d E =-.338337E-03
       N       E                     dE             d eps       ncg     rms          rms(c)
DAV:   1    -0.233016883727E+04    0.26940E-03   -0.39756E-01 13700   0.666E-01    0.113E-01
RMM:   2    -0.233028325428E+04   -0.11442E+00   -0.12090E-02 14634   0.205E-01    0.452E+00
RMM:   3    -0.233018344878E+04    0.99806E-01   -0.43304E-03 16218   0.109E-01    0.138E+00
RMM:   4    -0.233018909339E+04   -0.56446E-02   -0.28196E-03 13852   0.108E-01    0.191E+00
RMM:   5    -0.233017365232E+04    0.15441E-01   -0.21384E-03 13894   0.913E-02    0.881E-01
RMM:   6    -0.233017230484E+04    0.13475E-02   -0.36565E-03 13804   0.121E-01    0.756E-01
RMM:   7    -0.233017242298E+04   -0.11814E-03   -0.34022E-03 14247   0.111E-01    0.745E-01
RMM:   8    -0.233017270713E+04   -0.28415E-03   -0.18704E-03 15134   0.702E-02    0.807E-01
RMM:   9    -0.233016976941E+04    0.29377E-02   -0.78328E-04 13702   0.663E-02    0.316E-01
RMM:  10    -0.233016950537E+04    0.26404E-03   -0.54950E-04 15310   0.381E-02    0.250E-01
RMM:  11    -0.233016938553E+04    0.11984E-03   -0.48282E-04 16772   0.286E-02    0.193E-01
RMM:  12    -0.233016930148E+04    0.84044E-04   -0.30039E-04 15044   0.280E-02    0.144E-01
RMM:  13    -0.233016920867E+04    0.92812E-04   -0.10187E-04 12763   0.220E-02    0.767E-02
RMM:  14    -0.233016919778E+04    0.10894E-04   -0.63869E-05 10986   0.116E-02    0.610E-02
RMM:  15    -0.233016918795E+04    0.98314E-05   -0.32979E-05  8734   0.123E-02
  37 F= -.23301692E+04 E0= -.23274076E+04  d E =-.421648E-03
       N       E                     dE             d eps       ncg     rms          rms(c)
DAV:   1    -0.233016892884E+04    0.26894E-03   -0.59132E-01 13700   0.810E-01    0.132E-01
RMM:   2    -0.233035633549E+04   -0.18741E+00   -0.20569E-02 14696   0.271E-01    0.581E+00
RMM:   3    -0.233018675601E+04    0.16958E+00   -0.54853E-03 14342   0.151E-01    0.151E+00
RMM:   4    -0.233019171835E+04   -0.49623E-02   -0.38504E-03 14956   0.106E-01    0.201E+00
RMM:   5    -0.233017179229E+04    0.19926E-01   -0.37551E-03 13714   0.140E-01    0.567E-01
RMM:   6    -0.233017781240E+04   -0.60201E-02   -0.69085E-03 14171   0.155E-01    0.122E+00
RMM:   7    -0.233017864658E+04   -0.83419E-03   -0.41374E-03 14718   0.114E-01    0.130E+00
RMM:   8    -0.233017185370E+04    0.67929E-02   -0.18791E-03 13732   0.951E-02    0.622E-01
RMM:   9    -0.233017007134E+04    0.17824E-02   -0.91918E-04 13761   0.663E-02    0.345E-01
RMM:  10    -0.233016980212E+04    0.26922E-03   -0.75444E-04 15670   0.400E-02    0.260E-01
RMM:  11    -0.233016964773E+04    0.15439E-03   -0.66823E-04 15525   0.402E-02    0.204E-01
RMM:  12    -0.233016951815E+04    0.12958E-03   -0.37309E-04 14721   0.337E-02    0.132E-01
RMM:  13    -0.233016943442E+04    0.83733E-04   -0.11926E-04 13236   0.235E-02    0.648E-02
RMM:  14    -0.233016942871E+04    0.57096E-05   -0.92098E-05 12030   0.130E-02
  38 F= -.23301694E+04 E0= -.23274075E+04  d E =-.240760E-03
       N       E                     dE             d eps       ncg     rms          rms(c)
DAV:   1    -0.233016936401E+04    0.70406E-04   -0.95435E-02 13800   0.327E-01    0.711E-02
RMM:   2    -0.233022167277E+04   -0.52309E-01   -0.51550E-03 14981   0.123E-01    0.309E+00
RMM:   3    -0.233017465244E+04    0.47020E-01   -0.19786E-03 16319   0.721E-02    0.819E-01
RMM:   4    -0.233018327378E+04   -0.86213E-02   -0.17982E-03 14287   0.792E-02    0.159E+00
RMM:   5    -0.233017051590E+04    0.12758E-01   -0.11215E-03 13723   0.720E-02    0.383E-01
RMM:   6    -0.233017460154E+04   -0.40856E-02   -0.24064E-03 15685   0.758E-02    0.986E-01
RMM:   7    -0.233017172431E+04    0.28772E-02   -0.21468E-03 15381   0.780E-02    0.631E-01
RMM:   8    -0.233017096646E+04    0.75785E-03   -0.10256E-03 13780   0.649E-02    0.500E-01
RMM:   9    -0.233016964705E+04    0.13194E-02   -0.46173E-04 13706   0.511E-02    0.187E-01
RMM:  10    -0.233016952204E+04    0.12501E-03   -0.27513E-04 15246   0.276E-02    0.130E-01
RMM:  11    -0.233016950100E+04    0.21048E-04   -0.26120E-04 15725   0.239E-02    0.105E-01
RMM:  12    -0.233016946565E+04    0.35341E-04   -0.11559E-04 13358   0.192E-02    0.675E-02
RMM:  13    -0.233016944797E+04    0.17687E-04   -0.39441E-05  9551   0.123E-02    0.402E-02
RMM:  14    -0.233016944487E+04    0.30949E-05   -0.23370E-05  8381   0.912E-03
  39 F= -.23301694E+04 E0= -.23274075E+04  d E =-.256926E-03
       N       E                     dE             d eps       ncg     rms          rms(c)
DAV:   1    -0.233016921425E+04    0.23372E-03   -0.49432E-01 13700   0.740E-01    0.118E-01
RMM:   2    -0.233030584803E+04   -0.13663E+00   -0.16163E-02 14648   0.241E-01    0.504E+00
RMM:   3    -0.233017776650E+04    0.12808E+00   -0.44037E-03 13981   0.143E-01    0.871E-01
RMM:   4    -0.233019837521E+04   -0.20609E-01   -0.23680E-03 14308   0.942E-02    0.230E+00
RMM:   5    -0.233017521917E+04    0.23156E-01   -0.23383E-03 14450   0.853E-02    0.887E-01
RMM:   6    -0.233017314415E+04    0.20750E-02   -0.38663E-03 13735   0.128E-01    0.784E-01
RMM:   7    -0.233018466751E+04   -0.11523E-01   -0.55808E-03 15382   0.114E-01    0.168E+00
RMM:   8    -0.233017114886E+04    0.13519E-01   -0.18252E-03 13706   0.973E-02    0.453E-01
RMM:   9    -0.233016978099E+04    0.13679E-02   -0.86949E-04 13763   0.703E-02    0.175E-01
RMM:  10    -0.233016982700E+04   -0.46013E-04   -0.65200E-04 14956   0.438E-02    0.207E-01
RMM:  11    -0.233016991713E+04   -0.90128E-04   -0.75063E-04 16996   0.370E-02    0.233E-01
RMM:  12    -0.233016967052E+04    0.24660E-03   -0.20768E-04 13601   0.316E-02    0.987E-02
RMM:  13    -0.233016962730E+04    0.43222E-04   -0.12211E-04 13263   0.178E-02    0.554E-02
RMM:  14    -0.233016962790E+04   -0.59779E-06   -0.74618E-05 11496   0.117E-02
  40 F= -.23301696E+04 E0= -.23274078E+04  d E =-.183027E-03
       N       E                     dE             d eps       ncg     rms          rms(c)
DAV:   1    -0.233016959561E+04    0.31693E-04   -0.48013E-02 13800   0.233E-01    0.573E-02
RMM:   2    -0.233017930506E+04   -0.97095E-02   -0.28937E-03 14995   0.921E-02    0.134E+00
RMM:   3    -0.233017694874E+04    0.23563E-02   -0.14593E-03 18457   0.475E-02    0.114E+00
RMM:   4    -0.233017326922E+04    0.36795E-02   -0.66821E-04 13861   0.524E-02    0.805E-01
RMM:   5    -0.233017145521E+04    0.18140E-02   -0.63110E-04 14881   0.404E-02    0.545E-01
RMM:   6    -0.233017020220E+04    0.12530E-02   -0.51514E-04 13971   0.431E-02    0.326E-01
RMM:   7    -0.233017080138E+04   -0.59918E-03   -0.12148E-03 18087   0.443E-02    0.464E-01
RMM:   8    -0.233016997599E+04    0.82538E-03   -0.75048E-04 14436   0.485E-02    0.228E-01
RMM:   9    -0.233016974354E+04    0.23245E-03   -0.27684E-04 13624   0.393E-02    0.139E-01
RMM:  10    -0.233016968056E+04    0.62979E-04   -0.10797E-04 12537   0.208E-02    0.971E-02
RMM:  11    -0.233016965426E+04    0.26307E-04   -0.76391E-05 11244   0.120E-02    0.656E-02
RMM:  12    -0.233016965136E+04    0.28996E-05   -0.60952E-05 11147   0.135E-02
  41 F= -.23301697E+04 E0= -.23274078E+04  d E =-.206484E-03
       N       E                     dE             d eps       ncg     rms          rms(c)
DAV:   1    -0.233016957396E+04    0.80301E-04   -0.22026E-01 13700   0.495E-01    0.112E-01
RMM:   2    -0.233022100313E+04   -0.51429E-01   -0.11928E-02 14750   0.202E-01    0.318E+00
RMM:   3    -0.233018878688E+04    0.32216E-01   -0.50493E-03 16222   0.113E-01    0.176E+00
RMM:   4    -0.233019255829E+04   -0.37714E-02   -0.24061E-03 13763   0.105E-01    0.202E+00
RMM:   5    -0.233017301974E+04    0.19539E-01   -0.16768E-03 15269   0.657E-02    0.674E-01
RMM:   6    -0.233017155889E+04    0.14608E-02   -0.17106E-03 13762   0.869E-02    0.576E-01
RMM:   7    -0.233017827067E+04   -0.67118E-02   -0.46524E-03 16765   0.933E-02    0.128E+00
RMM:   8    -0.233017161323E+04    0.66574E-02   -0.22980E-03 14784   0.856E-02    0.517E-01
RMM:   9    -0.233017016387E+04    0.14494E-02   -0.10494E-03 13705   0.784E-02    0.274E-01
RMM:  10    -0.233016982464E+04    0.33923E-03   -0.64361E-04 16965   0.331E-02    0.135E-01
RMM:  11    -0.233016983034E+04   -0.57059E-05   -0.37591E-04 16438   0.262E-02    0.132E-01
RMM:  12    -0.233016983040E+04   -0.55530E-07   -0.32025E-04 15954   0.253E-02    0.126E-01
RMM:  13    -0.233016975786E+04    0.72541E-04   -0.85848E-05 12275   0.198E-02    0.631E-02
RMM:  14    -0.233016974542E+04    0.12441E-04   -0.50245E-05 10476   0.123E-02    0.450E-02
RMM:  15    -0.233016974725E+04   -0.18355E-05   -0.37853E-05  9514   0.111E-02
  42 F= -.23301697E+04 E0= -.23274080E+04  d E =-.958944E-04
       N       E                     dE             d eps       ncg     rms          rms(c)
DAV:   1    -0.233016972390E+04    0.21518E-04   -0.18319E-02 13800   0.145E-01    0.365E-02
RMM:   2    -0.233019175845E+04   -0.22035E-01   -0.17375E-03 15165   0.687E-02    0.202E+00
RMM:   3    -0.233017169658E+04    0.20062E-01   -0.53682E-04 14263   0.450E-02    0.494E-01
RMM:   4    -0.233017285418E+04   -0.11576E-02   -0.52042E-04 13794   0.479E-02    0.751E-01
RMM:   5    -0.233017078536E+04    0.20688E-02   -0.53026E-04 14915   0.356E-02    0.391E-01
RMM:   6    -0.233017023926E+04    0.54610E-03   -0.61924E-04 13747   0.514E-02    0.295E-01
RMM:   7    -0.233017150072E+04   -0.12615E-02   -0.78218E-04 14988   0.458E-02    0.573E-01
RMM:   8    -0.233017000716E+04    0.14936E-02   -0.27344E-04 13744   0.336E-02    0.195E-01
RMM:   9    -0.233016979123E+04    0.21593E-03   -0.15721E-04 13586   0.316E-02    0.945E-02
RMM:  10    -0.233016977012E+04    0.21115E-04   -0.61917E-05 10401   0.137E-02    0.740E-02
RMM:  11    -0.233016976023E+04    0.98922E-05   -0.61372E-05 10534   0.135E-02
  43 F= -.23301698E+04 E0= -.23274081E+04  d E =-.108871E-03
       N       E                     dE             d eps       ncg     rms          rms(c)
DAV:   1    -0.233016972632E+04    0.43803E-04   -0.11818E-01 13740   0.361E-01    0.784E-02
RMM:   2    -0.233019067339E+04   -0.20947E-01   -0.52246E-03 14418   0.142E-01    0.203E+00
RMM:   3    -0.233017678554E+04    0.13888E-01   -0.23899E-03 16834   0.738E-02    0.106E+00
RMM:   4    -0.233017335417E+04    0.34314E-02   -0.10544E-03 13678   0.745E-02    0.786E-01
RMM:   5    -0.233017311246E+04    0.24171E-03   -0.86874E-04 18602   0.335E-02    0.754E-01
RMM:   6    -0.233017054917E+04    0.25633E-02   -0.72230E-04 13747   0.551E-02    0.337E-01
RMM:   7    -0.233017209697E+04   -0.15478E-02   -0.13307E-03 14723   0.619E-02    0.658E-01
RMM:   8    -0.233017075972E+04    0.13372E-02   -0.12393E-03 17595   0.462E-02    0.390E-01
RMM:   9    -0.233016994561E+04    0.81410E-03   -0.47428E-04 13693   0.511E-02    0.144E-01
RMM:  10    -0.233016985230E+04    0.93314E-04   -0.27035E-04 16443   0.224E-02    0.883E-02
RMM:  11    -0.233016987167E+04   -0.19370E-04   -0.16292E-04 14231   0.177E-02    0.103E-01
RMM:  12    -0.233016987147E+04    0.20268E-06   -0.15947E-04 14697   0.177E-02    0.952E-02
RMM:  13    -0.233016982713E+04    0.44335E-04   -0.44878E-05  9964   0.152E-02    0.432E-02
RMM:  14    -0.233016982163E+04    0.55004E-05   -0.19454E-05  7682   0.844E-03
  44 F= -.23301698E+04 E0= -.23274080E+04  d E =-.614030E-04
       N       E                     dE             d eps       ncg     rms          rms(c)
DAV:   1    -0.233016920148E+04    0.62565E-03   -0.93081E-01 13700   0.101E+00    0.199E-01
RMM:   2    -0.233026709714E+04   -0.97896E-01   -0.31233E-02 14283   0.364E-01    0.444E+00
RMM:   3    -0.233023206361E+04    0.35034E-01   -0.14504E-02 16207   0.189E-01    0.321E+00
RMM:   4    -0.233018076492E+04    0.51299E-01   -0.58136E-03 13703   0.176E-01    0.131E+00
RMM:   5    -0.233020010039E+04   -0.19335E-01   -0.44488E-03 17839   0.826E-02    0.234E+00
RMM:   6    -0.233017464695E+04    0.25453E-01   -0.34378E-03 13838   0.117E-01    0.826E-01
RMM:   7    -0.233019325338E+04   -0.18606E-01   -0.97938E-03 16000   0.139E-01    0.210E+00
RMM:   8    -0.233017339554E+04    0.19858E-01   -0.45481E-03 13831   0.138E-01    0.694E-01
RMM:   9    -0.233017023865E+04    0.31569E-02   -0.18049E-03 13722   0.104E-01    0.259E-01
RMM:  10    -0.233017017119E+04    0.67455E-04   -0.10186E-03 14620   0.573E-02    0.256E-01
RMM:  11    -0.233017016467E+04    0.65212E-05   -0.11114E-03 16646   0.424E-02    0.239E-01
RMM:  12    -0.233017006039E+04    0.10428E-03   -0.59381E-04 14695   0.423E-02    0.189E-01
RMM:  13    -0.233016991371E+04    0.14669E-03   -0.22880E-04 14036   0.335E-02    0.120E-01
RMM:  14    -0.233016991903E+04   -0.53230E-05   -0.23953E-04 14714   0.160E-02    0.116E-01
RMM:  15    -0.233016989269E+04    0.26336E-04   -0.12049E-04 13827   0.173E-02    0.848E-02
RMM:  16    -0.233016986210E+04    0.30595E-04   -0.43096E-05  9975   0.146E-02    0.427E-02
RMM:  17    -0.233016985925E+04    0.28536E-05   -0.21164E-05  8355   0.896E-03
  45 F= -.23301699E+04 E0= -.23274078E+04  d E =-.990179E-04
