 288 288   0   0
  0.1280206E+02  0.9726678E-09  0.8423550E-09  0.4500000E-08  0.2500000E-15
   1.0000000000000000E-004
  CAR 
 unknown system                          
      6.73347256     -6.07823152  301      4.30873101      1.00000000
     -6.078  0.0000E+00  0.0000E+00
     -6.036  0.0000E+00  0.0000E+00
     -5.993  0.0000E+00  0.0000E+00
     -5.950  0.0000E+00  0.0000E+00
     -5.907  0.0000E+00  0.0000E+00
     -5.865  0.0000E+00  0.0000E+00
     -5.822  0.0000E+00  0.0000E+00
     -5.779  0.0000E+00  0.0000E+00
     -5.737  0.0000E+00  0.0000E+00
     -5.694  0.0000E+00  0.0000E+00
     -5.651  0.0000E+00  0.0000E+00
     -5.608  0.0000E+00  0.0000E+00
     -5.566  0.0000E+00  0.0000E+00
     -5.523  0.0000E+00  0.0000E+00
     -5.480  0.0000E+00  0.0000E+00
     -5.438  0.1625E-17  0.6939E-19
     -5.395  0.3835E-16  0.1707E-17
     -5.352  0.8196E-15  0.3671E-16
     -5.310  0.1495E-13  0.6750E-15
     -5.267  0.2322E-12  0.1059E-13
     -5.224  0.3074E-11  0.1419E-12
     -5.181  0.3466E-10  0.1622E-11
     -5.139  0.3331E-09  0.1585E-10
     -5.096  0.2730E-08  0.1324E-09
     -5.053  0.1908E-07  0.9472E-09
     -5.011  0.1138E-06  0.5809E-08
     -4.968  0.5807E-06  0.3061E-07
     -4.925  0.2537E-05  0.1389E-06
     -4.882  0.9518E-05  0.5454E-06
     -4.840  0.3080E-04  0.1861E-05
     -4.797  0.8655E-04  0.5557E-05
     -4.754  0.2130E-03  0.1465E-04
     -4.712  0.4644E-03  0.3448E-04
     -4.669  0.9091E-03  0.7331E-04
     -4.626  0.1621E-02  0.1425E-03
     -4.584  0.2662E-02  0.2562E-03
     -4.541  0.4067E-02  0.4299E-03
     -4.498  0.5812E-02  0.6781E-03
     -4.455  0.7814E-02  0.1012E-02
     -4.413  0.9934E-02  0.1436E-02
     -4.370  0.1200E-01  0.1949E-02
     -4.327  0.1386E-01  0.2540E-02
     -4.285  0.1538E-01  0.3197E-02
     -4.242  0.1656E-01  0.3905E-02
     -4.199  0.1751E-01  0.4653E-02
     -4.156  0.1840E-01  0.5438E-02
     -4.114  0.1944E-01  0.6268E-02
     -4.071  0.2079E-01  0.7156E-02
     -4.028  0.2252E-01  0.8118E-02
     -3.986  0.2455E-01  0.9166E-02
     -3.943  0.2667E-01  0.1030E-01
     -3.900  0.2861E-01  0.1153E-01
     -3.858  0.3012E-01  0.1281E-01
     -3.815  0.3103E-01  0.1414E-01
     -3.772  0.3134E-01  0.1548E-01
     -3.729  0.3124E-01  0.1681E-01
     -3.687  0.3105E-01  0.1814E-01
     -3.644  0.3111E-01  0.1947E-01
     -3.601  0.3169E-01  0.2082E-01
     -3.559  0.3289E-01  0.2222E-01
     -3.516  0.3467E-01  0.2370E-01
     -3.473  0.3680E-01  0.2528E-01
     -3.430  0.3893E-01  0.2694E-01
     -3.388  0.4070E-01  0.2868E-01
     -3.345  0.4183E-01  0.3046E-01
     -3.302  0.4223E-01  0.3227E-01
     -3.260  0.4208E-01  0.3406E-01
     -3.217  0.4180E-01  0.3585E-01
     -3.174  0.4191E-01  0.3764E-01
     -3.132  0.4284E-01  0.3947E-01
     -3.089  0.4468E-01  0.4138E-01
     -3.046  0.4722E-01  0.4339E-01
     -3.003  0.4994E-01  0.4552E-01
     -2.961  0.5224E-01  0.4776E-01
     -2.918  0.5360E-01  0.5004E-01
     -2.875  0.5386E-01  0.5235E-01
     -2.833  0.5337E-01  0.5462E-01
     -2.790  0.5283E-01  0.5688E-01
     -2.747  0.5294E-01  0.5914E-01
     -2.704  0.5391E-01  0.6144E-01
     -2.662  0.5539E-01  0.6381E-01
     -2.619  0.5665E-01  0.6623E-01
     -2.576  0.5712E-01  0.6867E-01
     -2.534  0.5683E-01  0.7110E-01
     -2.491  0.5646E-01  0.7351E-01
     -2.448  0.5702E-01  0.7594E-01
     -2.406  0.5936E-01  0.7848E-01
     -2.363  0.6357E-01  0.8119E-01
     -2.320  0.6871E-01  0.8413E-01
     -2.277  0.7308E-01  0.8725E-01
     -2.235  0.7507E-01  0.9045E-01
     -2.192  0.7423E-01  0.9362E-01
     -2.149  0.7159E-01  0.9668E-01
     -2.107  0.6914E-01  0.9963E-01
     -2.064  0.6869E-01  0.1026E+00
     -2.021  0.7107E-01  0.1056E+00
     -1.978  0.7578E-01  0.1088E+00
     -1.936  0.8130E-01  0.1123E+00
     -1.893  0.8583E-01  0.1160E+00
     -1.850  0.8822E-01  0.1197E+00
     -1.808  0.8847E-01  0.1235E+00
     -1.765  0.8765E-01  0.1273E+00
     -1.722  0.8705E-01  0.1310E+00
     -1.680  0.8741E-01  0.1347E+00
     -1.637  0.8878E-01  0.1385E+00
     -1.594  0.9087E-01  0.1424E+00
     -1.551  0.9340E-01  0.1464E+00
     -1.509  0.9631E-01  0.1505E+00
     -1.466  0.9952E-01  0.1547E+00
     -1.423  0.1028E+00  0.1591E+00
     -1.381  0.1056E+00  0.1636E+00
     -1.338  0.1077E+00  0.1682E+00
     -1.295  0.1096E+00  0.1729E+00
     -1.252  0.1128E+00  0.1777E+00
     -1.210  0.1188E+00  0.1828E+00
     -1.167  0.1279E+00  0.1883E+00
     -1.124  0.1385E+00  0.1942E+00
     -1.082  0.1478E+00  0.2005E+00
     -1.039  0.1536E+00  0.2071E+00
     -0.996  0.1559E+00  0.2137E+00
     -0.954  0.1572E+00  0.2204E+00
     -0.911  0.1617E+00  0.2273E+00
     -0.868  0.1722E+00  0.2347E+00
     -0.825  0.1895E+00  0.2428E+00
     -0.783  0.2126E+00  0.2519E+00
     -0.740  0.2402E+00  0.2621E+00
     -0.697  0.2724E+00  0.2737E+00
     -0.655  0.3096E+00  0.2870E+00
     -0.612  0.3512E+00  0.3020E+00
     -0.569  0.3947E+00  0.3188E+00
     -0.526  0.4357E+00  0.3374E+00
     -0.484  0.4702E+00  0.3575E+00
     -0.441  0.4965E+00  0.3787E+00
     -0.398  0.5156E+00  0.4007E+00
     -0.356  0.5305E+00  0.4234E+00
     -0.313  0.5439E+00  0.4466E+00
     -0.270  0.5563E+00  0.4704E+00
     -0.228  0.5668E+00  0.4946E+00
     -0.185  0.5735E+00  0.5191E+00
     -0.142  0.5761E+00  0.5437E+00
     -0.099  0.5765E+00  0.5683E+00
     -0.057  0.5777E+00  0.5930E+00
     -0.014  0.5826E+00  0.6178E+00
      0.029  0.5936E+00  0.6432E+00
      0.071  0.6118E+00  0.6693E+00
      0.114  0.6374E+00  0.6965E+00
      0.157  0.6689E+00  0.7251E+00
      0.200  0.7032E+00  0.7551E+00
      0.242  0.7369E+00  0.7866E+00
      0.285  0.7670E+00  0.8193E+00
      0.328  0.7925E+00  0.8532E+00
      0.370  0.8137E+00  0.8879E+00
      0.413  0.8313E+00  0.9234E+00
      0.456  0.8455E+00  0.9596E+00
      0.498  0.8558E+00  0.9961E+00
      0.541  0.8611E+00  0.1033E+01
      0.584  0.8613E+00  0.1070E+01
      0.627  0.8568E+00  0.1106E+01
      0.669  0.8484E+00  0.1142E+01
      0.712  0.8361E+00  0.1178E+01
      0.755  0.8202E+00  0.1213E+01
      0.797  0.8018E+00  0.1247E+01
      0.840  0.7841E+00  0.1281E+01
      0.883  0.7704E+00  0.1314E+01
      0.926  0.7622E+00  0.1346E+01
      0.968  0.7587E+00  0.1379E+01
      1.011  0.7566E+00  0.1411E+01
      1.054  0.7524E+00  0.1443E+01
      1.096  0.7442E+00  0.1475E+01
      1.139  0.7336E+00  0.1506E+01
      1.182  0.7246E+00  0.1537E+01
      1.224  0.7216E+00  0.1568E+01
      1.267  0.7256E+00  0.1599E+01
      1.310  0.7324E+00  0.1630E+01
      1.353  0.7352E+00  0.1662E+01
      1.395  0.7288E+00  0.1693E+01
      1.438  0.7135E+00  0.1723E+01
      1.481  0.6946E+00  0.1753E+01
      1.523  0.6793E+00  0.1782E+01
      1.566  0.6731E+00  0.1811E+01
      1.609  0.6778E+00  0.1840E+01
      1.651  0.6922E+00  0.1869E+01
      1.694  0.7134E+00  0.1900E+01
      1.737  0.7379E+00  0.1931E+01
      1.780  0.7628E+00  0.1964E+01
      1.822  0.7862E+00  0.1997E+01
      1.865  0.8068E+00  0.2032E+01
      1.908  0.8243E+00  0.2067E+01
      1.950  0.8396E+00  0.2103E+01
      1.993  0.8542E+00  0.2139E+01
      2.036  0.8694E+00  0.2177E+01
      2.079  0.8856E+00  0.2214E+01
      2.121  0.9024E+00  0.2253E+01
      2.164  0.9191E+00  0.2292E+01
      2.207  0.9356E+00  0.2332E+01
      2.249  0.9527E+00  0.2373E+01
      2.292  0.9731E+00  0.2414E+01
      2.335  0.9996E+00  0.2457E+01
      2.377  0.1034E+01  0.2501E+01
      2.420  0.1076E+01  0.2547E+01
      2.463  0.1122E+01  0.2595E+01
      2.506  0.1168E+01  0.2645E+01
      2.548  0.1211E+01  0.2697E+01
      2.591  0.1245E+01  0.2750E+01
      2.634  0.1269E+01  0.2804E+01
      2.676  0.1282E+01  0.2859E+01
      2.719  0.1287E+01  0.2914E+01
      2.762  0.1292E+01  0.2969E+01
      2.805  0.1303E+01  0.3024E+01
      2.847  0.1325E+01  0.3081E+01
      2.890  0.1358E+01  0.3139E+01
      2.933  0.1395E+01  0.3199E+01
      2.975  0.1420E+01  0.3259E+01
      3.018  0.1415E+01  0.3320E+01
      3.061  0.1371E+01  0.3378E+01
      3.103  0.1292E+01  0.3433E+01
      3.146  0.1195E+01  0.3484E+01
      3.189  0.1098E+01  0.3531E+01
      3.232  0.1017E+01  0.3575E+01
      3.274  0.9584E+00  0.3616E+01
      3.317  0.9209E+00  0.3655E+01
      3.360  0.9008E+00  0.3694E+01
      3.402  0.8926E+00  0.3732E+01
      3.445  0.8896E+00  0.3770E+01
      3.488  0.8852E+00  0.3807E+01
      3.531  0.8746E+00  0.3845E+01
      3.573  0.8576E+00  0.3881E+01
      3.616  0.8393E+00  0.3917E+01
      3.659  0.8279E+00  0.3953E+01
      3.701  0.8295E+00  0.3988E+01
      3.744  0.8450E+00  0.4024E+01
      3.787  0.8701E+00  0.4061E+01
      3.829  0.8984E+00  0.4100E+01
      3.872  0.9250E+00  0.4139E+01
      3.915  0.9483E+00  0.4180E+01
      3.958  0.9691E+00  0.4221E+01
      4.000  0.9887E+00  0.4263E+01
      4.043  0.1007E+01  0.4306E+01
      4.086  0.1023E+01  0.4350E+01
      4.128  0.1034E+01  0.4394E+01
      4.171  0.1036E+01  0.4438E+01
      4.214  0.1030E+01  0.4482E+01
      4.257  0.1017E+01  0.4526E+01
      4.299  0.1002E+01  0.4569E+01
      4.342  0.9902E+00  0.4611E+01
      4.385  0.9839E+00  0.4653E+01
      4.427  0.9839E+00  0.4695E+01
      4.470  0.9877E+00  0.4737E+01
      4.513  0.9915E+00  0.4779E+01
      4.555  0.9918E+00  0.4822E+01
      4.598  0.9880E+00  0.4864E+01
      4.641  0.9823E+00  0.4906E+01
      4.684  0.9794E+00  0.4948E+01
      4.726  0.9834E+00  0.4990E+01
      4.769  0.9965E+00  0.5032E+01
      4.812  0.1018E+01  0.5076E+01
      4.854  0.1044E+01  0.5120E+01
      4.897  0.1073E+01  0.5166E+01
      4.940  0.1100E+01  0.5213E+01
      4.983  0.1120E+01  0.5261E+01
      5.025  0.1122E+01  0.5309E+01
      5.068  0.1092E+01  0.5355E+01
      5.111  0.1014E+01  0.5399E+01
      5.153  0.8842E+00  0.5437E+01
      5.196  0.7112E+00  0.5467E+01
      5.239  0.5204E+00  0.5489E+01
      5.281  0.3424E+00  0.5504E+01
      5.324  0.2006E+00  0.5512E+01
      5.367  0.1040E+00  0.5517E+01
      5.410  0.4741E-01  0.5519E+01
      5.452  0.1892E-01  0.5520E+01
      5.495  0.6586E-02  0.5520E+01
      5.538  0.1994E-02  0.5520E+01
      5.580  0.5240E-03  0.5520E+01
      5.623  0.1192E-03  0.5520E+01
      5.666  0.2346E-04  0.5520E+01
      5.709  0.3986E-05  0.5520E+01
      5.751  0.5838E-06  0.5520E+01
      5.794  0.7365E-07  0.5520E+01
      5.837  0.7995E-08  0.5520E+01
      5.879  0.7459E-09  0.5520E+01
      5.922  0.5977E-10  0.5520E+01
      5.965  0.4110E-11  0.5520E+01
      6.007  0.2424E-12  0.5520E+01
      6.050  0.1224E-13  0.5520E+01
      6.093  0.5141E-15  0.5520E+01
      6.136  0.1300E-16  0.5520E+01
      6.178  0.0000E+00  0.5520E+01
      6.221  0.0000E+00  0.5520E+01
      6.264  0.0000E+00  0.5520E+01
      6.306  0.0000E+00  0.5520E+01
      6.349  0.0000E+00  0.5520E+01
      6.392  0.0000E+00  0.5520E+01
      6.435  0.0000E+00  0.5520E+01
      6.477  0.0000E+00  0.5520E+01
      6.520  0.0000E+00  0.5520E+01
      6.563  0.0000E+00  0.5520E+01
      6.605  0.0000E+00  0.5520E+01
      6.648  0.0000E+00  0.5520E+01
      6.691  0.0000E+00  0.5520E+01
      6.733  0.0000E+00  0.5520E+01
