<?xml version="1.0" encoding="ISO-8859-1"?>
<modeling>
 <generator>
  <i name="program" type="string">vasp </i>
  <i name="version" type="string">5.4.4.18Apr17-6-g9f103f2a35  </i>
  <i name="subversion" type="string">(build May 29 2019 08:40:53) complex            parallel </i>
  <i name="platform" type="string">LinuxPGI </i>
  <i name="date" type="string">2021 11 22 </i>
  <i name="time" type="string">02:55:19 </i>
 </generator>
 <incar>
  <i type="int" name="ISTART">     2</i>
  <i type="string" name="PREC">accurate</i>
  <i type="string" name="ALGO"> Fast</i>
  <i type="int" name="ICHARG">     2</i>
  <i type="int" name="INIWAV">     1</i>
  <i type="int" name="NELM">   100</i>
  <i type="int" name="NELMIN">     4</i>
  <i type="int" name="IBRION">     2</i>
  <i name="EDIFF">      0.00001000</i>
  <i type="int" name="NSW">   500</i>
  <i type="int" name="ISIF">     2</i>
  <i type="int" name="ISYM">     2</i>
  <i name="ENCUT">    500.00000000</i>
  <i name="POTIM">      0.25000000</i>
  <i type="string" name="LREAL"> Auto</i>
  <i type="int" name="ISMEAR">     0</i>
  <i name="SIGMA">      0.15000000</i>
  <i type="logical" name="LWAVE"> F  </i>
  <i type="logical" name="LCHARG"> F  </i>
  <v type="int" name="KPOINT_BSE">    -1     0     0     0</v>
  <i type="int" name="NELM">   100</i>
 </incar>
 <structure name="primitive_cell" >
  <crystal>
   <varray name="basis" >
    <v>       9.72667800       0.00000000       0.00000000 </v>
    <v>       0.00000000       8.42355000       0.00000000 </v>
    <v>       0.00000000       0.00000000      45.00000000 </v>
   </varray>
   <i name="volume">   3686.99213101 </i>
   <varray name="rec_basis" >
    <v>       0.10281002       0.00000000       0.00000000 </v>
    <v>       0.00000000       0.11871479       0.00000000 </v>
    <v>       0.00000000       0.00000000       0.02222222 </v>
   </varray>
  </crystal>
  <varray name="positions" >
   <v>       0.43759360      -0.21040223       0.25772885 </v>
   <v>       0.43652266      -0.04324069       0.21409397 </v>
   <v>       0.31299916      -0.29416084       0.21385870 </v>
   <v>      -0.43755258      -0.29376840       0.21376644 </v>
   <v>      -0.43747675       0.03929032       0.25786561 </v>
   <v>       0.31261579       0.03954836       0.25788172 </v>
   <v>      -0.31230441      -0.21047999       0.25766680 </v>
   <v>      -0.43738433      -0.46068649       0.25779501 </v>
   <v>       0.31214969      -0.46067650       0.25779908 </v>
   <v>       0.18709275      -0.21067312       0.25777578 </v>
   <v>       0.31285518      -0.12720880       0.30210093 </v>
   <v>      -0.43763720      -0.12721612       0.30213312 </v>
   <v>       0.43767318      -0.37768550       0.30206829 </v>
   <v>       0.18781248      -0.04410489       0.21379625 </v>
   <v>      -0.31137466      -0.04376574       0.21399794 </v>
   <v>       0.43736991       0.45595114       0.21376100 </v>
   <v>      -0.31272356      -0.37753626       0.30202830 </v>
   <v>       0.18762334      -0.37745626       0.30200937 </v>
   <v>       0.43730333       0.12303601       0.30212835 </v>
   <v>      -0.18789300      -0.29437616       0.21383510 </v>
   <v>       0.31265685       0.20627142       0.21384704 </v>
   <v>       0.06247561      -0.29459008       0.21392230 </v>
   <v>       0.18757978       0.45626458       0.21381862 </v>
   <v>       0.43740432       0.28908113       0.25765373 </v>
   <v>      -0.18768952       0.03931288       0.25784769 </v>
   <v>      -0.31243257       0.45593447       0.21380298 </v>
   <v>      -0.43738714       0.20645306       0.21374412 </v>
   <v>       0.06261406       0.03929229       0.25770931 </v>
   <v>       0.06254712      -0.46024739       0.25784380 </v>
   <v>      -0.18726632      -0.46066060       0.25779408 </v>
   <v>      -0.18769090      -0.12694307       0.30214281 </v>
   <v>       0.06244606      -0.12721003       0.30204475 </v>
   <v>      -0.43745500       0.37273636       0.30210264 </v>
   <v>       0.18732273       0.12288814       0.30212522 </v>
   <v>       0.31231382       0.37261347       0.30207018 </v>
   <v>      -0.31231208       0.12321487       0.30212667 </v>
   <v>       0.43758867      -0.04433933       0.34639536 </v>
   <v>       0.31245008      -0.29409793       0.34646616 </v>
   <v>      -0.43757380      -0.29415510       0.34653079 </v>
   <v>       0.31301279      -0.12776060       0.16883750 </v>
   <v>       0.43760402      -0.37720272       0.16878494 </v>
   <v>      -0.43739505      -0.12740424       0.16867201 </v>
   <v>      -0.31241307       0.28934711       0.25784227 </v>
   <v>       0.18738663       0.28939320       0.25787604 </v>
   <v>      -0.06241063      -0.21076999       0.25783242 </v>
   <v>      -0.31240698      -0.04420391       0.34640741 </v>
   <v>       0.43752429       0.12191563       0.16890034 </v>
   <v>       0.43734686       0.45596397       0.34639021 </v>
   <v>       0.18747066      -0.04379773       0.34648906 </v>
   <v>      -0.31266314      -0.37753765       0.16888215 </v>
   <v>       0.18699371      -0.37802457       0.16861177 </v>
   <v>       0.06239799       0.20569454       0.21396233 </v>
   <v>      -0.06279495      -0.04418252       0.21379180 </v>
   <v>      -0.18763262       0.20606192       0.21384694 </v>
   <v>      -0.06253222      -0.37704757       0.30204103 </v>
   <v>      -0.18739457       0.37301264       0.30200978 </v>
   <v>       0.06251156       0.37292910       0.30208957 </v>
   <v>       0.06253716      -0.29358722       0.34637733 </v>
   <v>       0.18750434       0.45624301       0.34638071 </v>
   <v>       0.31234877       0.20614036       0.34641631 </v>
   <v>      -0.18813953      -0.12800862       0.16886458 </v>
   <v>      -0.18732313      -0.29400948       0.34640711 </v>
   <v>      -0.43753655       0.20606234       0.34648875 </v>
   <v>      -0.31236295       0.45615137       0.34643517 </v>
   <v>       0.18697252       0.12164214       0.16887800 </v>
   <v>      -0.31230503       0.12172430       0.16880042 </v>
   <v>      -0.43756293       0.37251845       0.16882503 </v>
   <v>       0.06256864      -0.12899035       0.16869362 </v>
   <v>       0.31218409       0.37246045       0.16879110 </v>
   <v>       0.43696656      -0.21127767       0.12676123 </v>
   <v>      -0.06245462       0.45623413       0.21377172 </v>
   <v>      -0.06228955       0.12316147       0.30202818 </v>
   <v>       0.43765815      -0.21061587       0.39028176 </v>
   <v>       0.31265102       0.03878117       0.12678401 </v>
   <v>      -0.43737317       0.03821982       0.12672875 </v>
   <v>      -0.31193791      -0.21103267       0.12674245 </v>
   <v>       0.31374699      -0.46226224       0.12673986 </v>
   <v>       0.18703609      -0.21119855       0.12667651 </v>
   <v>      -0.43744636      -0.46159168       0.12668366 </v>
   <v>      -0.06246529       0.28921594       0.25791748 </v>
   <v>      -0.06269571      -0.04394010       0.34637731 </v>
   <v>      -0.43729066      -0.46094089       0.39028394 </v>
   <v>       0.06252857       0.20625779       0.34631414 </v>
   <v>       0.31249704      -0.46081957       0.39030964 </v>
   <v>       0.18742604      -0.21040892       0.39033225 </v>
   <v>      -0.43752446       0.03922421       0.39038152 </v>
   <v>      -0.31273888      -0.21064017       0.39038243 </v>
   <v>       0.31237895       0.03946168       0.39038104 </v>
   <v>      -0.18733990       0.20620547       0.34643947 </v>
   <v>       0.06253979       0.37251501       0.16880327 </v>
   <v>      -0.06185538      -0.37807957       0.16864069 </v>
   <v>      -0.18719226       0.37233347       0.16880426 </v>
   <v>      -0.06218737       0.12191736       0.16900892 </v>
   <v>      -0.06248595       0.45608054       0.34645570 </v>
   <v>      -0.18798350       0.03888830       0.12682513 </v>
   <v>       0.06279770       0.03922832       0.12687045 </v>
   <v>       0.06242491      -0.46132712       0.12695411 </v>
   <v>      -0.18873331      -0.46231714       0.12677690 </v>
   <v>       0.43719075       0.28897455       0.12673816 </v>
   <v>      -0.18761092      -0.46072884       0.39027483 </v>
   <v>       0.06263402       0.03943651       0.39029140 </v>
   <v>       0.43742641       0.28914735       0.39034836 </v>
   <v>       0.06261227      -0.46076320       0.39027262 </v>
   <v>      -0.18733721       0.03911308       0.39034199 </v>
   <v>       0.18839656       0.28860107       0.12685798 </v>
   <v>      -0.31216725       0.28905224       0.12673515 </v>
   <v>      -0.06195080      -0.21145424       0.12670044 </v>
   <v>      -0.06249147      -0.21062757       0.39020139 </v>
   <v>      -0.31285418       0.28902416       0.39035020 </v>
   <v>       0.18777478       0.28937347       0.39038493 </v>
   <v>      -0.43759178      -0.12771295       0.43490528 </v>
   <v>       0.43782675      -0.37765792       0.43495400 </v>
   <v>       0.31235994      -0.12741048       0.43500889 </v>
   <v>       0.43780718       0.12232781       0.43496701 </v>
   <v>       0.18745756      -0.37737197       0.43491656 </v>
   <v>      -0.31244431      -0.37760359       0.43492320 </v>
   <v>      -0.06337751       0.28853307       0.12688296 </v>
   <v>      -0.06238285       0.28928255       0.39034729 </v>
   <v>      -0.31252913       0.12232659       0.43495256 </v>
   <v>       0.18755710       0.12243797       0.43494392 </v>
   <v>       0.31268906       0.37248817       0.43496338 </v>
   <v>       0.06240709      -0.12772063       0.43499919 </v>
   <v>      -0.18718657      -0.12753101       0.43503250 </v>
   <v>      -0.43760202       0.37240365       0.43509585 </v>
   <v>      -0.06277396      -0.37743587       0.43498110 </v>
   <v>       0.06230421       0.37262788       0.43491095 </v>
   <v>      -0.18739830       0.37263623       0.43496623 </v>
   <v>      -0.06264152       0.12242479       0.43489857 </v>
   <v>       0.43735702      -0.04448728       0.47861120 </v>
   <v>      -0.43743269      -0.29439817       0.47863530 </v>
   <v>       0.31253766      -0.29449217       0.47866680 </v>
   <v>       0.18764142      -0.04472983       0.47864168 </v>
   <v>      -0.31260426      -0.04437061       0.47868947 </v>
   <v>       0.43760318       0.45562222       0.47867031 </v>
   <v>      -0.43751764       0.20584823       0.47860560 </v>
   <v>       0.18735666       0.45548258       0.47858204 </v>
   <v>       0.31265018       0.20570922       0.47871135 </v>
   <v>      -0.18755346      -0.29447404       0.47870123 </v>
   <v>       0.06251004      -0.29454151       0.47868621 </v>
   <v>      -0.31245754       0.45549042       0.47869132 </v>
   <v>       0.06236416       0.20581629       0.47859762 </v>
   <v>      -0.06233841      -0.04423772       0.47860678 </v>
   <v>      -0.18743470       0.20560740       0.47863276 </v>
   <v>      -0.06245283       0.45547567       0.47873158 </v>
   <v>      -0.43755252      -0.12817385      -0.47866460 </v>
   <v>       0.31266930      -0.12804096      -0.47860307 </v>
   <v>       0.43761662      -0.37800419      -0.47861749 </v>
   <v>       0.43765426       0.12170324      -0.47860125 </v>
   <v>      -0.31248607      -0.37799241      -0.47862600 </v>
   <v>       0.18743051      -0.37800008      -0.47860562 </v>
   <v>       0.18746182       0.12188375      -0.47874674 </v>
   <v>      -0.31255901       0.12193929      -0.47871061 </v>
   <v>      -0.18748569      -0.12788492      -0.47866293 </v>
   <v>       0.06242334      -0.12803684      -0.47859530 </v>
   <v>       0.31245208       0.37221794      -0.47857983 </v>
   <v>      -0.43761511       0.37182754      -0.47853070 </v>
   <v>      -0.06254309      -0.37793491      -0.47864320 </v>
   <v>      -0.18751178       0.37190716      -0.47864158 </v>
   <v>       0.06272857       0.37200477      -0.47859701 </v>
   <v>      -0.06251187       0.12174234      -0.47865350 </v>
   <v>       0.43778622      -0.04497694      -0.43492814 </v>
   <v>       0.31225972      -0.29504576      -0.43496706 </v>
   <v>      -0.43717539      -0.29481431      -0.43488887 </v>
   <v>      -0.31261291      -0.04515084      -0.43500532 </v>
   <v>       0.18736322      -0.04494389      -0.43494152 </v>
   <v>       0.43764041       0.45536586      -0.43490474 </v>
   <v>      -0.43728154       0.20535325      -0.43500541 </v>
   <v>       0.31272335       0.20526122      -0.43490988 </v>
   <v>       0.06224857      -0.29456083      -0.43495756 </v>
   <v>      -0.18728088      -0.29492382      -0.43494708 </v>
   <v>      -0.31252630       0.45528062      -0.43490961 </v>
   <v>       0.18738898       0.45498561      -0.43492295 </v>
   <v>       0.06225595       0.20517599      -0.43500501 </v>
   <v>      -0.06239698      -0.04504163      -0.43499352 </v>
   <v>      -0.18749474       0.20512526      -0.43495740 </v>
   <v>      -0.06235478       0.45521360      -0.43493778 </v>
   <v>       0.43745885      -0.21168130      -0.39035033 </v>
   <v>      -0.43771330       0.03810669      -0.39041238 </v>
   <v>       0.31265902       0.03809653      -0.39034848 </v>
   <v>      -0.31280687      -0.21146569      -0.39033849 </v>
   <v>       0.18777446      -0.21158938      -0.39030996 </v>
   <v>       0.31216954      -0.46167989      -0.39028173 </v>
   <v>      -0.43738310      -0.46135238      -0.39019750 </v>
   <v>      -0.18728145      -0.46120920      -0.39041981 </v>
   <v>       0.06289087       0.03869470      -0.39034842 </v>
   <v>      -0.18780760       0.03856680      -0.39030753 </v>
   <v>       0.43765874       0.28831293      -0.39027224 </v>
   <v>       0.06234635      -0.46176851      -0.39025508 </v>
   <v>       0.18756196       0.28836023      -0.39037150 </v>
   <v>      -0.31272102       0.28854364      -0.39032398 </v>
   <v>      -0.06245121      -0.21139075      -0.39026291 </v>
   <v>      -0.06271221       0.28844664      -0.39040541 </v>
   <v>       0.43685157      -0.21033554      -0.12678612 </v>
   <v>       0.18767959      -0.21038349      -0.12678256 </v>
   <v>       0.31238424       0.03919109      -0.12679363 </v>
   <v>      -0.31239069      -0.21095703      -0.12681163 </v>
   <v>      -0.43694335       0.03978458      -0.12680395 </v>
   <v>      -0.43731662      -0.46064875      -0.12686893 </v>
   <v>       0.31235661      -0.46115470      -0.12687370 </v>
   <v>      -0.18756532       0.03956933      -0.12681176 </v>
   <v>      -0.18775743      -0.46056799      -0.12683801 </v>
   <v>       0.06204224       0.03979469      -0.12680710 </v>
   <v>       0.43722634       0.28933949      -0.12691092 </v>
   <v>       0.06261560      -0.46066908      -0.12693838 </v>
   <v>      -0.43757616      -0.12820864      -0.34649285 </v>
   <v>       0.43751550      -0.37817665      -0.34641651 </v>
   <v>       0.31259979      -0.12868665      -0.34631128 </v>
   <v>      -0.31241461       0.28886074      -0.12684407 </v>
   <v>      -0.06219183      -0.21039297      -0.12684852 </v>
   <v>       0.18762392       0.28949528      -0.12691444 </v>
   <v>       0.43738050       0.12133277      -0.34644155 </v>
   <v>       0.18782234      -0.37850933      -0.34645505 </v>
   <v>      -0.31256853      -0.37805334      -0.34632942 </v>
   <v>      -0.31215853       0.12172095      -0.34647083 </v>
   <v>       0.06259848      -0.12816615      -0.34645266 </v>
   <v>       0.18742111       0.12179190      -0.34642304 </v>
   <v>      -0.18776772      -0.12801259      -0.34640225 </v>
   <v>      -0.43732106       0.37179189      -0.34633565 </v>
   <v>       0.31257067       0.37173863      -0.34632696 </v>
   <v>      -0.06249195       0.28932798      -0.12686621 </v>
   <v>      -0.06256019      -0.37839763      -0.34645654 </v>
   <v>      -0.18745111       0.37197871      -0.34639939 </v>
   <v>       0.06231241       0.37180814      -0.34615453 </v>
   <v>      -0.06244365       0.12174283      -0.34640437 </v>
   <v>       0.43720635      -0.04438819      -0.16879467 </v>
   <v>      -0.43723503      -0.29409344      -0.16880279 </v>
   <v>       0.31251462      -0.29356445      -0.16890234 </v>
   <v>       0.18769584      -0.04431365      -0.16881986 </v>
   <v>      -0.31251632      -0.04406091      -0.16890797 </v>
   <v>       0.43743233       0.45574597      -0.16900969 </v>
   <v>      -0.43745935       0.20565904      -0.16887857 </v>
   <v>      -0.18775193      -0.29387449      -0.16891859 </v>
   <v>      -0.31248843       0.45634681      -0.16891482 </v>
   <v>       0.06244169      -0.29400213      -0.16890829 </v>
   <v>       0.31243591       0.20602098      -0.16897481 </v>
   <v>       0.18749804       0.45584232      -0.16904166 </v>
   <v>       0.06247617       0.20584598      -0.16886732 </v>
   <v>      -0.06243230      -0.04413727      -0.16887851 </v>
   <v>      -0.18757062       0.20589907      -0.16892506 </v>
   <v>      -0.43752129      -0.29464931      -0.30209298 </v>
   <v>       0.43760526      -0.04499114      -0.30199798 </v>
   <v>       0.31260720      -0.29468658      -0.30200774 </v>
   <v>      -0.06248786       0.45594787      -0.16894799 </v>
   <v>       0.43735905       0.45526833      -0.30206630 </v>
   <v>       0.18727140      -0.04523921      -0.30202205 </v>
   <v>      -0.31266007      -0.04479415      -0.30201158 </v>
   <v>       0.06251649      -0.29516323      -0.30211443 </v>
   <v>       0.31251569       0.20541664      -0.30206947 </v>
   <v>      -0.43776406       0.20510169      -0.30200912 </v>
   <v>      -0.18771585      -0.29498342      -0.30201097 </v>
   <v>      -0.31285004       0.45498991      -0.30197681 </v>
   <v>       0.18737495       0.45537124      -0.30193383 </v>
   <v>      -0.18708723       0.20537002      -0.30200431 </v>
   <v>       0.06263520       0.20498198      -0.30194988 </v>
   <v>      -0.06248030      -0.04526210      -0.30194251 </v>
   <v>      -0.06221759       0.45470142      -0.30206713 </v>
   <v>      -0.43750413      -0.12774435      -0.21378025 </v>
   <v>       0.43731305      -0.37806101      -0.21378708 </v>
   <v>       0.31256192      -0.12759228      -0.21401177 </v>
   <v>       0.43738644       0.12205313      -0.21377312 </v>
   <v>       0.18739565      -0.37789544      -0.21379182 </v>
   <v>      -0.31264022      -0.37833178      -0.21408039 </v>
   <v>      -0.31257137       0.12207696      -0.21371076 </v>
   <v>      -0.18735538      -0.12819353      -0.21371260 </v>
   <v>       0.18734348       0.12196133      -0.21378466 </v>
   <v>      -0.43750832       0.37201307      -0.21377728 </v>
   <v>       0.06227546      -0.12769904      -0.21382771 </v>
   <v>       0.31259628       0.37182944      -0.21380988 </v>
   <v>       0.43744580      -0.21118176      -0.25778244 </v>
   <v>      -0.06217413      -0.37817616      -0.21374860 </v>
   <v>       0.06223616       0.37197949      -0.21372767 </v>
   <v>      -0.18748761       0.37184863      -0.21374707 </v>
   <v>      -0.43752299       0.03875546      -0.25783710 </v>
   <v>       0.18757986      -0.21126371      -0.25782883 </v>
   <v>       0.31229241       0.03865486      -0.25780169 </v>
   <v>      -0.31249395      -0.21148912      -0.25779928 </v>
   <v>      -0.43748741      -0.46148615      -0.25779898 </v>
   <v>       0.31261009      -0.46129295      -0.25771689 </v>
   <v>      -0.06229206       0.12221403      -0.21374355 </v>
   <v>       0.43727034       0.28867137      -0.25789096 </v>
   <v>       0.06259093      -0.46131229      -0.25785187 </v>
   <v>       0.06245406       0.03839946      -0.25775598 </v>
   <v>      -0.18783797      -0.46124293      -0.25777081 </v>
   <v>      -0.18738530       0.03884494      -0.25775130 </v>
   <v>      -0.06271516      -0.21157465      -0.25789328 </v>
   <v>       0.18750444       0.28888418      -0.25784158 </v>
   <v>      -0.31255775       0.28860095      -0.25777292 </v>
   <v>      -0.06245221       0.28877899      -0.25784450 </v>
  </varray>
 </structure>
 <varray name="primitive_index" >
  <v type="int" >        1 </v>
  <v type="int" >      280 </v>
  <v type="int" >       93 </v>
  <v type="int" >       16 </v>
  <v type="int" >      180 </v>
  <v type="int" >      131 </v>
  <v type="int" >      166 </v>
  <v type="int" >      190 </v>
  <v type="int" >      219 </v>
  <v type="int" >      105 </v>
  <v type="int" >      171 </v>
  <v type="int" >      174 </v>
  <v type="int" >      187 </v>
  <v type="int" >      184 </v>
  <v type="int" >      275 </v>
  <v type="int" >      156 </v>
  <v type="int" >      249 </v>
  <v type="int" >      244 </v>
  <v type="int" >       51 </v>
  <v type="int" >      112 </v>
  <v type="int" >      239 </v>
  <v type="int" >      279 </v>
  <v type="int" >       26 </v>
  <v type="int" >      285 </v>
  <v type="int" >      216 </v>
  <v type="int" >      226 </v>
  <v type="int" >      133 </v>
  <v type="int" >       10 </v>
  <v type="int" >      177 </v>
  <v type="int" >      188 </v>
  <v type="int" >       35 </v>
  <v type="int" >       58 </v>
  <v type="int" >       67 </v>
  <v type="int" >       79 </v>
  <v type="int" >       99 </v>
  <v type="int" >      128 </v>
  <v type="int" >       34 </v>
  <v type="int" >       52 </v>
  <v type="int" >      277 </v>
  <v type="int" >       92 </v>
  <v type="int" >      252 </v>
  <v type="int" >      248 </v>
  <v type="int" >      237 </v>
  <v type="int" >      136 </v>
  <v type="int" >      203 </v>
  <v type="int" >      114 </v>
  <v type="int" >      181 </v>
  <v type="int" >       90 </v>
  <v type="int" >      165 </v>
  <v type="int" >       44 </v>
  <v type="int" >       95 </v>
  <v type="int" >      195 </v>
  <v type="int" >      100 </v>
  <v type="int" >       72 </v>
  <v type="int" >       73 </v>
  <v type="int" >      221 </v>
  <v type="int" >       54 </v>
  <v type="int" >      189 </v>
  <v type="int" >      251 </v>
  <v type="int" >      145 </v>
  <v type="int" >      119 </v>
  <v type="int" >       32 </v>
  <v type="int" >      223 </v>
  <v type="int" >      176 </v>
  <v type="int" >      197 </v>
  <v type="int" >      173 </v>
  <v type="int" >       82 </v>
  <v type="int" >      212 </v>
  <v type="int" >      232 </v>
  <v type="int" >       69 </v>
  <v type="int" >       25 </v>
  <v type="int" >      214 </v>
  <v type="int" >       60 </v>
  <v type="int" >      125 </v>
  <v type="int" >       48 </v>
  <v type="int" >       86 </v>
  <v type="int" >      196 </v>
  <v type="int" >      154 </v>
  <v type="int" >      269 </v>
  <v type="int" >      247 </v>
  <v type="int" >      246 </v>
  <v type="int" >      117 </v>
  <v type="int" >        7 </v>
  <v type="int" >       64 </v>
  <v type="int" >       75 </v>
  <v type="int" >      139 </v>
  <v type="int" >      129 </v>
  <v type="int" >      273 </v>
  <v type="int" >      107 </v>
  <v type="int" >       31 </v>
  <v type="int" >      153 </v>
  <v type="int" >       88 </v>
  <v type="int" >       83 </v>
  <v type="int" >      231 </v>
  <v type="int" >       17 </v>
  <v type="int" >      147 </v>
  <v type="int" >      282 </v>
  <v type="int" >       43 </v>
  <v type="int" >      260 </v>
  <v type="int" >      109 </v>
  <v type="int" >       11 </v>
  <v type="int" >      228 </v>
  <v type="int" >      261 </v>
  <v type="int" >       50 </v>
  <v type="int" >      227 </v>
  <v type="int" >      121 </v>
  <v type="int" >        8 </v>
  <v type="int" >      281 </v>
  <v type="int" >       94 </v>
  <v type="int" >       96 </v>
  <v type="int" >       42 </v>
  <v type="int" >      151 </v>
  <v type="int" >       33 </v>
  <v type="int" >      111 </v>
  <v type="int" >        3 </v>
  <v type="int" >      264 </v>
  <v type="int" >      209 </v>
  <v type="int" >      224 </v>
  <v type="int" >      220 </v>
  <v type="int" >      284 </v>
  <v type="int" >      198 </v>
  <v type="int" >       59 </v>
  <v type="int" >      167 </v>
  <v type="int" >       30 </v>
  <v type="int" >       84 </v>
  <v type="int" >      243 </v>
  <v type="int" >      222 </v>
  <v type="int" >      233 </v>
  <v type="int" >      200 </v>
  <v type="int" >       78 </v>
  <v type="int" >       70 </v>
  <v type="int" >      142 </v>
  <v type="int" >      150 </v>
  <v type="int" >      186 </v>
  <v type="int" >      235 </v>
  <v type="int" >      113 </v>
  <v type="int" >      163 </v>
  <v type="int" >       12 </v>
  <v type="int" >      204 </v>
  <v type="int" >      158 </v>
  <v type="int" >      168 </v>
  <v type="int" >       62 </v>
  <v type="int" >      155 </v>
  <v type="int" >       20 </v>
  <v type="int" >      106 </v>
  <v type="int" >       19 </v>
  <v type="int" >       77 </v>
  <v type="int" >      115 </v>
  <v type="int" >       87 </v>
  <v type="int" >      211 </v>
  <v type="int" >      118 </v>
  <v type="int" >       37 </v>
  <v type="int" >      108 </v>
  <v type="int" >        6 </v>
  <v type="int" >       97 </v>
  <v type="int" >      132 </v>
  <v type="int" >       15 </v>
  <v type="int" >      236 </v>
  <v type="int" >       76 </v>
  <v type="int" >      126 </v>
  <v type="int" >      144 </v>
  <v type="int" >      263 </v>
  <v type="int" >        5 </v>
  <v type="int" >       61 </v>
  <v type="int" >      191 </v>
  <v type="int" >      104 </v>
  <v type="int" >      202 </v>
  <v type="int" >      283 </v>
  <v type="int" >       41 </v>
  <v type="int" >      257 </v>
  <v type="int" >      159 </v>
  <v type="int" >      229 </v>
  <v type="int" >      135 </v>
  <v type="int" >       53 </v>
  <v type="int" >      148 </v>
  <v type="int" >       23 </v>
  <v type="int" >      234 </v>
  <v type="int" >      164 </v>
  <v type="int" >      205 </v>
  <v type="int" >      193 </v>
  <v type="int" >      206 </v>
  <v type="int" >       39 </v>
  <v type="int" >      160 </v>
  <v type="int" >      152 </v>
  <v type="int" >       38 </v>
  <v type="int" >      149 </v>
  <v type="int" >      110 </v>
  <v type="int" >      183 </v>
  <v type="int" >       45 </v>
  <v type="int" >       27 </v>
  <v type="int" >      230 </v>
  <v type="int" >      278 </v>
  <v type="int" >      268 </v>
  <v type="int" >      210 </v>
  <v type="int" >      267 </v>
  <v type="int" >      162 </v>
  <v type="int" >      122 </v>
  <v type="int" >      218 </v>
  <v type="int" >      172 </v>
  <v type="int" >       36 </v>
  <v type="int" >      250 </v>
  <v type="int" >       74 </v>
  <v type="int" >      124 </v>
  <v type="int" >      103 </v>
  <v type="int" >      286 </v>
  <v type="int" >      178 </v>
  <v type="int" >      182 </v>
  <v type="int" >      138 </v>
  <v type="int" >       68 </v>
  <v type="int" >       81 </v>
  <v type="int" >      170 </v>
  <v type="int" >      256 </v>
  <v type="int" >       13 </v>
  <v type="int" >      258 </v>
  <v type="int" >      140 </v>
  <v type="int" >       80 </v>
  <v type="int" >      240 </v>
  <v type="int" >      254 </v>
  <v type="int" >      215 </v>
  <v type="int" >      157 </v>
  <v type="int" >      137 </v>
  <v type="int" >      213 </v>
  <v type="int" >      276 </v>
  <v type="int" >      185 </v>
  <v type="int" >        2 </v>
  <v type="int" >       47 </v>
  <v type="int" >      217 </v>
  <v type="int" >      199 </v>
  <v type="int" >       55 </v>
  <v type="int" >      242 </v>
  <v type="int" >       98 </v>
  <v type="int" >       63 </v>
  <v type="int" >       49 </v>
  <v type="int" >       18 </v>
  <v type="int" >       66 </v>
  <v type="int" >      192 </v>
  <v type="int" >      207 </v>
  <v type="int" >      143 </v>
  <v type="int" >      255 </v>
  <v type="int" >      266 </v>
  <v type="int" >      208 </v>
  <v type="int" >      169 </v>
  <v type="int" >      116 </v>
  <v type="int" >        4 </v>
  <v type="int" >      238 </v>
  <v type="int" >       71 </v>
  <v type="int" >       46 </v>
  <v type="int" >      270 </v>
  <v type="int" >      194 </v>
  <v type="int" >      175 </v>
  <v type="int" >       91 </v>
  <v type="int" >      102 </v>
  <v type="int" >      287 </v>
  <v type="int" >      253 </v>
  <v type="int" >       40 </v>
  <v type="int" >      146 </v>
  <v type="int" >       65 </v>
  <v type="int" >       56 </v>
  <v type="int" >      288 </v>
  <v type="int" >      161 </v>
  <v type="int" >      134 </v>
  <v type="int" >      274 </v>
  <v type="int" >       14 </v>
  <v type="int" >      265 </v>
  <v type="int" >       85 </v>
  <v type="int" >      101 </v>
  <v type="int" >      241 </v>
  <v type="int" >       21 </v>
  <v type="int" >       57 </v>
  <v type="int" >      259 </v>
  <v type="int" >      245 </v>
  <v type="int" >      272 </v>
  <v type="int" >      262 </v>
  <v type="int" >      271 </v>
  <v type="int" >      201 </v>
  <v type="int" >       22 </v>
  <v type="int" >       24 </v>
  <v type="int" >       29 </v>
  <v type="int" >      130 </v>
  <v type="int" >      141 </v>
  <v type="int" >       28 </v>
  <v type="int" >      123 </v>
  <v type="int" >      225 </v>
  <v type="int" >        9 </v>
  <v type="int" >       89 </v>
  <v type="int" >      120 </v>
  <v type="int" >      179 </v>
  <v type="int" >      127 </v>
 </varray>
 <kpoints>
  <generation param="Gamma">
   <v type="int" name="divisions">       4        4        1 </v>
   <v name="usershift">      0.00000000       0.00000000       0.00000000 </v>
   <v name="genvec1">      0.25000000       0.00000000       0.00000000 </v>
   <v name="genvec2">      0.00000000       0.25000000       0.00000000 </v>
   <v name="genvec3">      0.00000000       0.00000000       1.00000000 </v>
   <v name="shift">      0.00000000       0.00000000       0.00000000 </v>
  </generation>
  <varray name="kpointlist" >
   <v>       0.00000000       0.00000000       0.00000000 </v>
   <v>       0.25000000       0.00000000       0.00000000 </v>
   <v>       0.50000000       0.00000000       0.00000000 </v>
   <v>       0.00000000       0.25000000       0.00000000 </v>
   <v>       0.25000000       0.25000000       0.00000000 </v>
   <v>       0.50000000       0.25000000       0.00000000 </v>
   <v>      -0.25000000       0.25000000       0.00000000 </v>
   <v>       0.00000000       0.50000000       0.00000000 </v>
   <v>       0.25000000       0.50000000       0.00000000 </v>
   <v>       0.50000000       0.50000000       0.00000000 </v>
  </varray>
  <varray name="weights" >
   <v>       0.06250000 </v>
   <v>       0.12500000 </v>
   <v>       0.06250000 </v>
   <v>       0.12500000 </v>
   <v>       0.12500000 </v>
   <v>       0.12500000 </v>
   <v>       0.12500000 </v>
   <v>       0.06250000 </v>
   <v>       0.12500000 </v>
   <v>       0.06250000 </v>
  </varray>
 </kpoints>
 <parameters>
  <separator name="general" >
   <i type="string" name="SYSTEM">unknown system</i>
   <i type="logical" name="LCOMPAT"> F  </i>
  </separator>
  <separator name="electronic" >
   <i type="string" name="PREC">accura</i>
   <i name="ENMAX">    500.00000000</i>
   <i name="ENAUG">    838.43500000</i>
   <i name="EDIFF">      0.00001000</i>
   <i type="int" name="IALGO">    68</i>
   <i type="int" name="IWAVPR">    11</i>
   <i type="int" name="NBANDS">  1380</i>
   <i name="NELECT">   2289.00000000</i>
   <i type="int" name="TURBO">     0</i>
   <i type="int" name="IRESTART">     0</i>
   <i type="int" name="NREBOOT">     0</i>
   <i type="int" name="NMIN">     0</i>
   <i name="EREF">      0.00000000</i>
   <separator name="electronic smearing" >
    <i type="int" name="ISMEAR">     0</i>
    <i name="SIGMA">      0.15000000</i>
    <i name="KSPACING">      0.50000000</i>
    <i type="logical" name="KGAMMA"> T  </i>
   </separator>
   <separator name="electronic projectors" >
    <i type="logical" name="LREAL"> T  </i>
    <v name="ROPT">     -0.00025000     -0.00025000</v>
    <i type="int" name="LMAXPAW">  -100</i>
    <i type="int" name="LMAXMIX">     2</i>
    <i type="logical" name="NLSPLINE"> F  </i>
   </separator>
   <separator name="electronic startup" >
    <i type="int" name="ISTART">     0</i>
    <i type="int" name="ICHARG">     2</i>
    <i type="int" name="INIWAV">     1</i>
   </separator>
   <separator name="electronic spin" >
    <i type="int" name="ISPIN">     1</i>
    <i type="logical" name="LNONCOLLINEAR"> F  </i>
    <v name="MAGMOM">      1.00000000      1.00000000      1.00000000      1.00000000      1.00000000      1.00000000      1.00000000      1.00000000      1.00000000      1.00000000      1.00000000      1.00000000      1.00000000      1.00000000      1.00000000      1.00000000      1.00000000      1.00000000      1.00000000      1.00000000
      1.00000000      1.00000000      1.00000000      1.00000000      1.00000000      1.00000000      1.00000000      1.00000000      1.00000000      1.00000000      1.00000000      1.00000000      1.00000000      1.00000000      1.00000000      1.00000000      1.00000000      1.00000000      1.00000000      1.00000000
      1.00000000      1.00000000      1.00000000      1.00000000      1.00000000      1.00000000      1.00000000      1.00000000      1.00000000      1.00000000      1.00000000      1.00000000      1.00000000      1.00000000      1.00000000      1.00000000      1.00000000      1.00000000      1.00000000      1.00000000
      1.00000000      1.00000000      1.00000000      1.00000000      1.00000000      1.00000000      1.00000000      1.00000000      1.00000000      1.00000000      1.00000000      1.00000000      1.00000000      1.00000000      1.00000000      1.00000000      1.00000000      1.00000000      1.00000000      1.00000000
      1.00000000      1.00000000      1.00000000      1.00000000      1.00000000      1.00000000      1.00000000      1.00000000      1.00000000      1.00000000      1.00000000      1.00000000      1.00000000      1.00000000      1.00000000      1.00000000      1.00000000      1.00000000      1.00000000      1.00000000
      1.00000000      1.00000000      1.00000000      1.00000000      1.00000000      1.00000000      1.00000000      1.00000000      1.00000000      1.00000000      1.00000000      1.00000000      1.00000000      1.00000000      1.00000000      1.00000000      1.00000000      1.00000000      1.00000000      1.00000000
      1.00000000      1.00000000      1.00000000      1.00000000      1.00000000      1.00000000      1.00000000      1.00000000      1.00000000      1.00000000      1.00000000      1.00000000      1.00000000      1.00000000      1.00000000      1.00000000      1.00000000      1.00000000      1.00000000      1.00000000
      1.00000000      1.00000000      1.00000000      1.00000000      1.00000000      1.00000000      1.00000000      1.00000000      1.00000000      1.00000000      1.00000000      1.00000000      1.00000000      1.00000000      1.00000000      1.00000000      1.00000000      1.00000000      1.00000000      1.00000000
      1.00000000      1.00000000      1.00000000      1.00000000      1.00000000      1.00000000      1.00000000      1.00000000      1.00000000      1.00000000      1.00000000      1.00000000      1.00000000      1.00000000      1.00000000      1.00000000      1.00000000      1.00000000      1.00000000      1.00000000
      1.00000000      1.00000000      1.00000000      1.00000000      1.00000000      1.00000000      1.00000000      1.00000000      1.00000000      1.00000000      1.00000000      1.00000000      1.00000000      1.00000000      1.00000000      1.00000000      1.00000000      1.00000000      1.00000000      1.00000000
      1.00000000      1.00000000      1.00000000      1.00000000      1.00000000      1.00000000      1.00000000      1.00000000      1.00000000      1.00000000      1.00000000      1.00000000      1.00000000      1.00000000      1.00000000      1.00000000      1.00000000      1.00000000      1.00000000      1.00000000
      1.00000000      1.00000000      1.00000000      1.00000000      1.00000000      1.00000000      1.00000000      1.00000000      1.00000000      1.00000000      1.00000000      1.00000000      1.00000000      1.00000000      1.00000000      1.00000000      1.00000000      1.00000000      1.00000000      1.00000000
      1.00000000      1.00000000      1.00000000      1.00000000      1.00000000      1.00000000      1.00000000      1.00000000      1.00000000      1.00000000      1.00000000      1.00000000      1.00000000      1.00000000      1.00000000      1.00000000      1.00000000      1.00000000      1.00000000      1.00000000
      1.00000000      1.00000000      1.00000000      1.00000000      1.00000000      1.00000000      1.00000000      1.00000000      1.00000000      1.00000000      1.00000000      1.00000000      1.00000000      1.00000000      1.00000000      1.00000000      1.00000000      1.00000000      1.00000000      1.00000000
      1.00000000      1.00000000      1.00000000      1.00000000      1.00000000      1.00000000      1.00000000      1.00000000</v>
    <i name="NUPDOWN">     -1.00000000</i>
    <i type="logical" name="LSORBIT"> F  </i>
    <v name="SAXIS">      0.00000000      0.00000000      1.00000000</v>
    <i type="logical" name="LSPIRAL"> F  </i>
    <v name="QSPIRAL">      0.00000000      0.00000000      0.00000000</v>
    <i type="logical" name="LZEROZ"> F  </i>
   </separator>
   <separator name="electronic exchange-correlation" >
    <i type="logical" name="LASPH"> F  </i>
    <i type="logical" name="LMETAGGA"> F  </i>
   </separator>
   <separator name="electronic convergence" >
    <i type="int" name="NELM">   100</i>
    <i type="int" name="NELMDL">     0</i>
    <i type="int" name="NELMIN">     4</i>
    <i name="ENINI">    500.00000000</i>
    <separator name="electronic convergence detail" >
     <i type="logical" name="LDIAG"> T  </i>
     <i type="logical" name="LSUBROT"> F  </i>
     <i name="WEIMIN">      0.00100000</i>
     <i name="EBREAK">      0.00000000</i>
     <i name="DEPER">      0.30000000</i>
     <i type="int" name="NRMM">     4</i>
     <i name="TIME">      0.40000000</i>
    </separator>
   </separator>
   <separator name="electronic mixer" >
    <i name="AMIX">      0.40000000</i>
    <i name="BMIX">      1.00000000</i>
    <i name="AMIN">      0.10000000</i>
    <i name="AMIX_MAG">      1.60000000</i>
    <i name="BMIX_MAG">      1.00000000</i>
    <separator name="electronic mixer details" >
     <i type="int" name="IMIX">     4</i>
     <i type="logical" name="MIXFIRST"> F  </i>
     <i type="int" name="MAXMIX">   -45</i>
     <i name="WC">    100.00000000</i>
     <i type="int" name="INIMIX">     1</i>
     <i type="int" name="MIXPRE">     1</i>
     <i type="int" name="MREMOVE">     5</i>
    </separator>
   </separator>
   <separator name="electronic dipolcorrection" >
    <i type="logical" name="LDIPOL"> F  </i>
    <i type="logical" name="LMONO"> F  </i>
    <i type="int" name="IDIPOL">     0</i>
    <i name="EPSILON">      1.00000000</i>
    <v name="DIPOL">   -100.00000000   -100.00000000   -100.00000000</v>
    <i name="EFIELD">      0.00000000</i>
   </separator>
  </separator>
  <separator name="grids" >
   <i type="int" name="NGX">    72</i>
   <i type="int" name="NGY">    64</i>
   <i type="int" name="NGZ">   336</i>
   <i type="int" name="NGXF">   144</i>
   <i type="int" name="NGYF">   128</i>
   <i type="int" name="NGZF">   672</i>
   <i type="logical" name="ADDGRID"> F  </i>
  </separator>
  <separator name="ionic" >
   <i type="int" name="NSW">   500</i>
   <i type="int" name="IBRION">     2</i>
   <i type="int" name="MDALGO">     0</i>
   <i type="int" name="ISIF">     2</i>
   <i name="PSTRESS">      0.00000000</i>
   <i name="EDIFFG">      0.00010000</i>
   <i type="int" name="NFREE">     1</i>
   <i name="POTIM">      0.25000000</i>
   <i name="SMASS">     -3.00000000</i>
   <i name="SCALEE">      1.00000000</i>
  </separator>
  <separator name="ionic md" >
   <i name="TEBEG">      0.00010000</i>
   <i name="TEEND">      0.00010000</i>
   <i type="int" name="NBLOCK">     1</i>
   <i type="int" name="KBLOCK">   500</i>
   <i type="int" name="NPACO">   256</i>
   <i name="APACO">     16.00000000</i>
  </separator>
  <separator name="symmetry" >
   <i type="int" name="ISYM">     2</i>
   <i name="SYMPREC">      0.00001000</i>
  </separator>
  <separator name="dos" >
   <i type="int" name="LORBIT">     0</i>
   <v name="RWIGS">     -1.00000000     -1.00000000</v>
   <i type="int" name="NEDOS">   301</i>
   <i name="EMIN">     10.00000000</i>
   <i name="EMAX">    -10.00000000</i>
   <i name="EFERMI">      0.00000000</i>
  </separator>
  <separator name="writing" >
   <i type="int" name="NWRITE">     2</i>
   <i type="logical" name="LWAVE"> F  </i>
   <i type="logical" name="LDOWNSAMPLE"> F  </i>
   <i type="logical" name="LCHARG"> F  </i>
   <i type="logical" name="LPARD"> F  </i>
   <i type="logical" name="LVTOT"> F  </i>
   <i type="logical" name="LVHAR"> F  </i>
   <i type="logical" name="LELF"> F  </i>
   <i type="logical" name="LOPTICS"> F  </i>
   <v name="STM">      0.00000000      0.00000000      0.00000000      0.00000000      0.00000000      0.00000000      0.00000000</v>
  </separator>
  <separator name="performance" >
   <i type="int" name="NPAR">    10</i>
   <i type="int" name="NSIM">     4</i>
   <i type="int" name="NBLK">    -1</i>
   <i type="logical" name="LPLANE"> T  </i>
   <i type="logical" name="LSCALAPACK"> F  </i>
   <i type="logical" name="LSCAAWARE"> F  </i>
   <i type="logical" name="LSCALU"> F  </i>
   <i type="logical" name="LASYNC"> F  </i>
   <i type="logical" name="LORBITALREAL"> F  </i>
  </separator>
  <separator name="miscellaneous" >
   <i type="int" name="IDIOT">     3</i>
   <i type="int" name="ISPECIAL">     0</i>
   <i type="logical" name="LMUSIC"> F  </i>
   <v name="POMASS">     55.84700000     54.93800000</v>
   <v name="DARWINR">      0.00000000      0.00000000</v>
   <v name="DARWINV">      1.00000000      1.00000000</v>
   <i type="logical" name="LCORR"> T  </i>
  </separator>
  <i type="logical" name="GGA_COMPAT"> T  </i>
  <i type="logical" name="LBERRY"> F  </i>
  <i type="int" name="ICORELEVEL">     0</i>
  <i type="logical" name="LDAU"> F  </i>
  <i type="int" name="I_CONSTRAINED_M">     0</i>
  <separator name="electronic exchange-correlation" >
   <i type="string" name="GGA">--</i>
   <i type="int" name="VOSKOWN">     0</i>
   <i type="logical" name="LHFCALC"> F  </i>
   <i type="string" name="PRECFOCK"></i>
   <i type="logical" name="LSYMGRAD"> F  </i>
   <i type="logical" name="LHFONE"> F  </i>
   <i type="logical" name="LRHFCALC"> F  </i>
   <i type="logical" name="LTHOMAS"> F  </i>
   <i type="logical" name="LMODELHF"> F  </i>
   <i name="ENCUT4O">     -1.00000000</i>
   <i type="int" name="EXXOEP">     0</i>
   <i type="int" name="FOURORBIT">     0</i>
   <i name="AEXX">      0.00000000</i>
   <i name="HFALPHA">      0.00000000</i>
   <i name="MCALPHA">      0.00000000</i>
   <i name="ALDAX">      1.00000000</i>
   <i name="AGGAX">      1.00000000</i>
   <i name="ALDAC">      1.00000000</i>
   <i name="AGGAC">      1.00000000</i>
   <i type="int" name="NKREDX">     1</i>
   <i type="int" name="NKREDY">     1</i>
   <i type="int" name="NKREDZ">     1</i>
   <i type="logical" name="SHIFTRED"> F  </i>
   <i type="logical" name="ODDONLY"> F  </i>
   <i type="logical" name="EVENONLY"> F  </i>
   <i type="int" name="LMAXFOCK">     0</i>
   <i type="int" name="NMAXFOCKAE">     0</i>
   <i type="logical" name="LFOCKAEDFT"> F  </i>
   <i name="HFSCREEN">      0.00000000</i>
   <i name="HFSCREENC">      0.00000000</i>
   <i type="int" name="NBANDSGWLOW">     0</i>
  </separator>
  <separator name="vdW DFT" >
   <i type="logical" name="LUSE_VDW"> F  </i>
   <i name="Zab_VDW">     -0.84910000</i>
   <i name="PARAM1">      0.12340000</i>
   <i name="PARAM2">      1.00000000</i>
   <i name="PARAM3">      0.00000000</i>
  </separator>
  <separator name="model GW" >
   <i type="int" name="MODEL_GW">     0</i>
   <i name="MODEL_EPS0">      7.68123361</i>
   <i name="MODEL_ALPHA">      1.00000000</i>
  </separator>
  <separator name="linear response parameters" >
   <i type="logical" name="LEPSILON"> F  </i>
   <i type="logical" name="LRPA"> F  </i>
   <i type="logical" name="LNABLA"> F  </i>
   <i type="logical" name="LVEL"> F  </i>
   <i type="int" name="KINTER">     0</i>
   <i name="CSHIFT">      0.10000000</i>
   <i name="OMEGAMAX">     -1.00000000</i>
   <i name="DEG_THRESHOLD">      0.00200000</i>
   <i name="RTIME">     -0.10000000</i>
   <i name="WPLASMAI">      0.00000000</i>
   <v name="DFIELD">      0.00000000      0.00000000      0.00000000</v>
   <v name="WPLASMA">      0.00000000      0.00000000      0.00000000      0.00000000      0.00000000      0.00000000      0.00000000      0.00000000      0.00000000</v>
  </separator>
  <separator name="orbital magnetization" >
   <i type="logical" name="NUCIND"> F  </i>
   <v name="MAGPOS">      0.00000000      0.00000000      0.00000000</v>
   <i type="logical" name="LNICSALL"> T  </i>
   <i type="logical" name="ORBITALMAG"> F  </i>
   <i type="logical" name="LMAGBLOCH"> F  </i>
   <i type="logical" name="LCHIMAG"> F  </i>
   <i type="logical" name="LGAUGE"> T  </i>
   <i type="int" name="MAGATOM">     0</i>
   <v name="MAGDIPOL">      0.00000000      0.00000000      0.00000000</v>
   <v name="AVECCONST">      0.00000000      0.00000000      0.00000000</v>
  </separator>
  <separator name="response functions" >
   <i type="logical" name="LADDER"> F  </i>
   <i type="logical" name="LRPAFORCE"> F  </i>
   <i type="logical" name="LFXC"> F  </i>
   <i type="logical" name="LHARTREE"> T  </i>
   <i type="int" name="IBSE">     0</i>
   <v type="int" name="KPOINT">    -1     0     0     0</v>
   <i type="logical" name="LTCTE"> F  </i>
   <i type="logical" name="LTETE"> F  </i>
   <i type="logical" name="LTRIPLET"> F  </i>
   <i type="logical" name="LFXCEPS"> F  </i>
   <i type="logical" name="LFXHEG"> F  </i>
   <i type="int" name="NATURALO">     2</i>
   <i type="logical" name="L2ORDER"> F  </i>
   <i type="logical" name="LMP2LT"> F  </i>
   <i type="logical" name="LUSEW"> F  </i>
   <i name="ENCUTGW">     -2.00000000</i>
   <i name="ENCUTGWSOFT">     -2.00000000</i>
   <i name="ENCUTLF">     -1.00000000</i>
   <i type="int" name="LMAXMP2">    -1</i>
   <i name="SCISSOR">      0.00000000</i>
   <i type="int" name="NOMEGA">     0</i>
   <i type="int" name="NOMEGAR">     0</i>
   <i type="int" name="NBANDSGW">    -1</i>
   <i type="int" name="NBANDSO">    -1</i>
   <i type="int" name="NBANDSV">    -1</i>
   <i type="int" name="NELM">   100</i>
   <i type="int" name="NELMHF">     1</i>
   <i type="int" name="DIM">     3</i>
   <i type="int" name="ANTIRES">     0</i>
   <i name="OMEGAMAX">    -30.00000000</i>
   <i name="OMEGAMIN">    -30.00000000</i>
   <i name="OMEGATL">   -200.00000000</i>
   <i type="int" name="OMEGAGRID">   140</i>
   <i name="CSHIFT">     -0.10000000</i>
   <i type="logical" name="SELFENERGY"> F  </i>
   <i type="logical" name="LSPECTRAL"> F  </i>
   <i type="logical" name="LSPECTRALGW"> F  </i>
   <i type="logical" name="LSINGLES"> F  </i>
   <i type="logical" name="LFERMIGW"> F  </i>
   <i type="logical" name="ODDONLYGW"> F  </i>
   <i type="logical" name="EVENONLYGW"> F  </i>
   <i type="int" name="NKREDLFX">     1</i>
   <i type="int" name="NKREDLFY">     1</i>
   <i type="int" name="NKREDLFZ">     1</i>
   <i type="int" name="MAXMEM">  2800</i>
   <i type="int" name="TELESCOPE">     0</i>
   <i type="int" name="TAUPAR">     1</i>
   <i type="int" name="OMEGAPAR">    -1</i>
   <i name="LAMBDA">      1.00000000</i>
  </separator>
  <separator name="External order field" >
   <i name="OFIELD_KAPPA">      0.00000000</i>
   <v name="OFIELD_K">      0.00000000      0.00000000      0.00000000</v>
   <i name="OFIELD_Q6_NEAR">      0.00000000</i>
   <i name="OFIELD_Q6_FAR">      0.00000000</i>
   <i name="OFIELD_A">      0.00000000</i>
  </separator>
 </parameters>
 <atominfo>
  <atoms>     288 </atoms>
  <types>       2 </types>
  <array name="atoms" >
   <dimension dim="1">ion</dimension>
   <field type="string">element</field>
   <field type="int">atomtype</field>
   <set>
    <rc><c>Fe</c><c>   1</c></rc>
    <rc><c>Fe</c><c>   1</c></rc>
    <rc><c>Fe</c><c>   1</c></rc>
    <rc><c>Fe</c><c>   1</c></rc>
    <rc><c>Fe</c><c>   1</c></rc>
    <rc><c>Fe</c><c>   1</c></rc>
    <rc><c>Fe</c><c>   1</c></rc>
    <rc><c>Fe</c><c>   1</c></rc>
    <rc><c>Fe</c><c>   1</c></rc>
    <rc><c>Fe</c><c>   1</c></rc>
    <rc><c>Fe</c><c>   1</c></rc>
    <rc><c>Fe</c><c>   1</c></rc>
    <rc><c>Fe</c><c>   1</c></rc>
    <rc><c>Fe</c><c>   1</c></rc>
    <rc><c>Fe</c><c>   1</c></rc>
    <rc><c>Fe</c><c>   1</c></rc>
    <rc><c>Fe</c><c>   1</c></rc>
    <rc><c>Fe</c><c>   1</c></rc>
    <rc><c>Fe</c><c>   1</c></rc>
    <rc><c>Fe</c><c>   1</c></rc>
    <rc><c>Fe</c><c>   1</c></rc>
    <rc><c>Fe</c><c>   1</c></rc>
    <rc><c>Fe</c><c>   1</c></rc>
    <rc><c>Fe</c><c>   1</c></rc>
    <rc><c>Fe</c><c>   1</c></rc>
    <rc><c>Fe</c><c>   1</c></rc>
    <rc><c>Fe</c><c>   1</c></rc>
    <rc><c>Fe</c><c>   1</c></rc>
    <rc><c>Fe</c><c>   1</c></rc>
    <rc><c>Fe</c><c>   1</c></rc>
    <rc><c>Fe</c><c>   1</c></rc>
    <rc><c>Fe</c><c>   1</c></rc>
    <rc><c>Fe</c><c>   1</c></rc>
    <rc><c>Fe</c><c>   1</c></rc>
    <rc><c>Fe</c><c>   1</c></rc>
    <rc><c>Fe</c><c>   1</c></rc>
    <rc><c>Fe</c><c>   1</c></rc>
    <rc><c>Fe</c><c>   1</c></rc>
    <rc><c>Fe</c><c>   1</c></rc>
    <rc><c>Fe</c><c>   1</c></rc>
    <rc><c>Fe</c><c>   1</c></rc>
    <rc><c>Fe</c><c>   1</c></rc>
    <rc><c>Fe</c><c>   1</c></rc>
    <rc><c>Fe</c><c>   1</c></rc>
    <rc><c>Fe</c><c>   1</c></rc>
    <rc><c>Fe</c><c>   1</c></rc>
    <rc><c>Fe</c><c>   1</c></rc>
    <rc><c>Fe</c><c>   1</c></rc>
    <rc><c>Fe</c><c>   1</c></rc>
    <rc><c>Fe</c><c>   1</c></rc>
    <rc><c>Fe</c><c>   1</c></rc>
    <rc><c>Fe</c><c>   1</c></rc>
    <rc><c>Fe</c><c>   1</c></rc>
    <rc><c>Fe</c><c>   1</c></rc>
    <rc><c>Fe</c><c>   1</c></rc>
    <rc><c>Fe</c><c>   1</c></rc>
    <rc><c>Fe</c><c>   1</c></rc>
    <rc><c>Fe</c><c>   1</c></rc>
    <rc><c>Fe</c><c>   1</c></rc>
    <rc><c>Fe</c><c>   1</c></rc>
    <rc><c>Fe</c><c>   1</c></rc>
    <rc><c>Fe</c><c>   1</c></rc>
    <rc><c>Fe</c><c>   1</c></rc>
    <rc><c>Fe</c><c>   1</c></rc>
    <rc><c>Fe</c><c>   1</c></rc>
    <rc><c>Fe</c><c>   1</c></rc>
    <rc><c>Fe</c><c>   1</c></rc>
    <rc><c>Fe</c><c>   1</c></rc>
    <rc><c>Fe</c><c>   1</c></rc>
    <rc><c>Fe</c><c>   1</c></rc>
    <rc><c>Fe</c><c>   1</c></rc>
    <rc><c>Fe</c><c>   1</c></rc>
    <rc><c>Fe</c><c>   1</c></rc>
    <rc><c>Fe</c><c>   1</c></rc>
    <rc><c>Fe</c><c>   1</c></rc>
    <rc><c>Fe</c><c>   1</c></rc>
    <rc><c>Fe</c><c>   1</c></rc>
    <rc><c>Fe</c><c>   1</c></rc>
    <rc><c>Fe</c><c>   1</c></rc>
    <rc><c>Fe</c><c>   1</c></rc>
    <rc><c>Fe</c><c>   1</c></rc>
    <rc><c>Fe</c><c>   1</c></rc>
    <rc><c>Fe</c><c>   1</c></rc>
    <rc><c>Fe</c><c>   1</c></rc>
    <rc><c>Fe</c><c>   1</c></rc>
    <rc><c>Fe</c><c>   1</c></rc>
    <rc><c>Fe</c><c>   1</c></rc>
    <rc><c>Fe</c><c>   1</c></rc>
    <rc><c>Fe</c><c>   1</c></rc>
    <rc><c>Fe</c><c>   1</c></rc>
    <rc><c>Fe</c><c>   1</c></rc>
    <rc><c>Fe</c><c>   1</c></rc>
    <rc><c>Fe</c><c>   1</c></rc>
    <rc><c>Fe</c><c>   1</c></rc>
    <rc><c>Fe</c><c>   1</c></rc>
    <rc><c>Fe</c><c>   1</c></rc>
    <rc><c>Fe</c><c>   1</c></rc>
    <rc><c>Fe</c><c>   1</c></rc>
    <rc><c>Fe</c><c>   1</c></rc>
    <rc><c>Fe</c><c>   1</c></rc>
    <rc><c>Fe</c><c>   1</c></rc>
    <rc><c>Fe</c><c>   1</c></rc>
    <rc><c>Fe</c><c>   1</c></rc>
    <rc><c>Fe</c><c>   1</c></rc>
    <rc><c>Fe</c><c>   1</c></rc>
    <rc><c>Fe</c><c>   1</c></rc>
    <rc><c>Fe</c><c>   1</c></rc>
    <rc><c>Fe</c><c>   1</c></rc>
    <rc><c>Fe</c><c>   1</c></rc>
    <rc><c>Fe</c><c>   1</c></rc>
    <rc><c>Fe</c><c>   1</c></rc>
    <rc><c>Fe</c><c>   1</c></rc>
    <rc><c>Fe</c><c>   1</c></rc>
    <rc><c>Fe</c><c>   1</c></rc>
    <rc><c>Fe</c><c>   1</c></rc>
    <rc><c>Fe</c><c>   1</c></rc>
    <rc><c>Fe</c><c>   1</c></rc>
    <rc><c>Fe</c><c>   1</c></rc>
    <rc><c>Fe</c><c>   1</c></rc>
    <rc><c>Fe</c><c>   1</c></rc>
    <rc><c>Fe</c><c>   1</c></rc>
    <rc><c>Fe</c><c>   1</c></rc>
    <rc><c>Fe</c><c>   1</c></rc>
    <rc><c>Fe</c><c>   1</c></rc>
    <rc><c>Fe</c><c>   1</c></rc>
    <rc><c>Fe</c><c>   1</c></rc>
    <rc><c>Fe</c><c>   1</c></rc>
    <rc><c>Fe</c><c>   1</c></rc>
    <rc><c>Fe</c><c>   1</c></rc>
    <rc><c>Fe</c><c>   1</c></rc>
    <rc><c>Fe</c><c>   1</c></rc>
    <rc><c>Fe</c><c>   1</c></rc>
    <rc><c>Fe</c><c>   1</c></rc>
    <rc><c>Fe</c><c>   1</c></rc>
    <rc><c>Fe</c><c>   1</c></rc>
    <rc><c>Fe</c><c>   1</c></rc>
    <rc><c>Fe</c><c>   1</c></rc>
    <rc><c>Fe</c><c>   1</c></rc>
    <rc><c>Fe</c><c>   1</c></rc>
    <rc><c>Fe</c><c>   1</c></rc>
    <rc><c>Fe</c><c>   1</c></rc>
    <rc><c>Fe</c><c>   1</c></rc>
    <rc><c>Fe</c><c>   1</c></rc>
    <rc><c>Fe</c><c>   1</c></rc>
    <rc><c>Fe</c><c>   1</c></rc>
    <rc><c>Fe</c><c>   1</c></rc>
    <rc><c>Fe</c><c>   1</c></rc>
    <rc><c>Fe</c><c>   1</c></rc>
    <rc><c>Fe</c><c>   1</c></rc>
    <rc><c>Fe</c><c>   1</c></rc>
    <rc><c>Fe</c><c>   1</c></rc>
    <rc><c>Fe</c><c>   1</c></rc>
    <rc><c>Fe</c><c>   1</c></rc>
    <rc><c>Fe</c><c>   1</c></rc>
    <rc><c>Fe</c><c>   1</c></rc>
    <rc><c>Fe</c><c>   1</c></rc>
    <rc><c>Fe</c><c>   1</c></rc>
    <rc><c>Fe</c><c>   1</c></rc>
    <rc><c>Fe</c><c>   1</c></rc>
    <rc><c>Fe</c><c>   1</c></rc>
    <rc><c>Fe</c><c>   1</c></rc>
    <rc><c>Fe</c><c>   1</c></rc>
    <rc><c>Fe</c><c>   1</c></rc>
    <rc><c>Fe</c><c>   1</c></rc>
    <rc><c>Fe</c><c>   1</c></rc>
    <rc><c>Fe</c><c>   1</c></rc>
    <rc><c>Fe</c><c>   1</c></rc>
    <rc><c>Fe</c><c>   1</c></rc>
    <rc><c>Fe</c><c>   1</c></rc>
    <rc><c>Fe</c><c>   1</c></rc>
    <rc><c>Fe</c><c>   1</c></rc>
    <rc><c>Fe</c><c>   1</c></rc>
    <rc><c>Fe</c><c>   1</c></rc>
    <rc><c>Fe</c><c>   1</c></rc>
    <rc><c>Fe</c><c>   1</c></rc>
    <rc><c>Fe</c><c>   1</c></rc>
    <rc><c>Fe</c><c>   1</c></rc>
    <rc><c>Fe</c><c>   1</c></rc>
    <rc><c>Fe</c><c>   1</c></rc>
    <rc><c>Fe</c><c>   1</c></rc>
    <rc><c>Fe</c><c>   1</c></rc>
    <rc><c>Fe</c><c>   1</c></rc>
    <rc><c>Fe</c><c>   1</c></rc>
    <rc><c>Fe</c><c>   1</c></rc>
    <rc><c>Fe</c><c>   1</c></rc>
    <rc><c>Fe</c><c>   1</c></rc>
    <rc><c>Fe</c><c>   1</c></rc>
    <rc><c>Fe</c><c>   1</c></rc>
    <rc><c>Fe</c><c>   1</c></rc>
    <rc><c>Fe</c><c>   1</c></rc>
    <rc><c>Fe</c><c>   1</c></rc>
    <rc><c>Fe</c><c>   1</c></rc>
    <rc><c>Fe</c><c>   1</c></rc>
    <rc><c>Fe</c><c>   1</c></rc>
    <rc><c>Fe</c><c>   1</c></rc>
    <rc><c>Fe</c><c>   1</c></rc>
    <rc><c>Fe</c><c>   1</c></rc>
    <rc><c>Fe</c><c>   1</c></rc>
    <rc><c>Fe</c><c>   1</c></rc>
    <rc><c>Fe</c><c>   1</c></rc>
    <rc><c>Fe</c><c>   1</c></rc>
    <rc><c>Fe</c><c>   1</c></rc>
    <rc><c>Fe</c><c>   1</c></rc>
    <rc><c>Fe</c><c>   1</c></rc>
    <rc><c>Fe</c><c>   1</c></rc>
    <rc><c>Fe</c><c>   1</c></rc>
    <rc><c>Fe</c><c>   1</c></rc>
    <rc><c>Fe</c><c>   1</c></rc>
    <rc><c>Fe</c><c>   1</c></rc>
    <rc><c>Fe</c><c>   1</c></rc>
    <rc><c>Fe</c><c>   1</c></rc>
    <rc><c>Fe</c><c>   1</c></rc>
    <rc><c>Fe</c><c>   1</c></rc>
    <rc><c>Fe</c><c>   1</c></rc>
    <rc><c>Fe</c><c>   1</c></rc>
    <rc><c>Fe</c><c>   1</c></rc>
    <rc><c>Fe</c><c>   1</c></rc>
    <rc><c>Fe</c><c>   1</c></rc>
    <rc><c>Fe</c><c>   1</c></rc>
    <rc><c>Fe</c><c>   1</c></rc>
    <rc><c>Fe</c><c>   1</c></rc>
    <rc><c>Fe</c><c>   1</c></rc>
    <rc><c>Fe</c><c>   1</c></rc>
    <rc><c>Fe</c><c>   1</c></rc>
    <rc><c>Fe</c><c>   1</c></rc>
    <rc><c>Fe</c><c>   1</c></rc>
    <rc><c>Fe</c><c>   1</c></rc>
    <rc><c>Fe</c><c>   1</c></rc>
    <rc><c>Fe</c><c>   1</c></rc>
    <rc><c>Fe</c><c>   1</c></rc>
    <rc><c>Fe</c><c>   1</c></rc>
    <rc><c>Fe</c><c>   1</c></rc>
    <rc><c>Fe</c><c>   1</c></rc>
    <rc><c>Fe</c><c>   1</c></rc>
    <rc><c>Fe</c><c>   1</c></rc>
    <rc><c>Fe</c><c>   1</c></rc>
    <rc><c>Fe</c><c>   1</c></rc>
    <rc><c>Fe</c><c>   1</c></rc>
    <rc><c>Fe</c><c>   1</c></rc>
    <rc><c>Fe</c><c>   1</c></rc>
    <rc><c>Fe</c><c>   1</c></rc>
    <rc><c>Fe</c><c>   1</c></rc>
    <rc><c>Fe</c><c>   1</c></rc>
    <rc><c>Fe</c><c>   1</c></rc>
    <rc><c>Fe</c><c>   1</c></rc>
    <rc><c>Fe</c><c>   1</c></rc>
    <rc><c>Fe</c><c>   1</c></rc>
    <rc><c>Fe</c><c>   1</c></rc>
    <rc><c>Fe</c><c>   1</c></rc>
    <rc><c>Fe</c><c>   1</c></rc>
    <rc><c>Fe</c><c>   1</c></rc>
    <rc><c>Fe</c><c>   1</c></rc>
    <rc><c>Fe</c><c>   1</c></rc>
    <rc><c>Fe</c><c>   1</c></rc>
    <rc><c>Fe</c><c>   1</c></rc>
    <rc><c>Fe</c><c>   1</c></rc>
    <rc><c>Fe</c><c>   1</c></rc>
    <rc><c>Fe</c><c>   1</c></rc>
    <rc><c>Fe</c><c>   1</c></rc>
    <rc><c>Fe</c><c>   1</c></rc>
    <rc><c>Fe</c><c>   1</c></rc>
    <rc><c>Fe</c><c>   1</c></rc>
    <rc><c>Fe</c><c>   1</c></rc>
    <rc><c>Fe</c><c>   1</c></rc>
    <rc><c>Fe</c><c>   1</c></rc>
    <rc><c>Fe</c><c>   1</c></rc>
    <rc><c>Fe</c><c>   1</c></rc>
    <rc><c>Fe</c><c>   1</c></rc>
    <rc><c>Fe</c><c>   1</c></rc>
    <rc><c>Fe</c><c>   1</c></rc>
    <rc><c>Fe</c><c>   1</c></rc>
    <rc><c>Fe</c><c>   1</c></rc>
    <rc><c>Fe</c><c>   1</c></rc>
    <rc><c>Mn</c><c>   2</c></rc>
    <rc><c>Mn</c><c>   2</c></rc>
    <rc><c>Mn</c><c>   2</c></rc>
    <rc><c>Mn</c><c>   2</c></rc>
    <rc><c>Mn</c><c>   2</c></rc>
    <rc><c>Mn</c><c>   2</c></rc>
    <rc><c>Mn</c><c>   2</c></rc>
    <rc><c>Mn</c><c>   2</c></rc>
    <rc><c>Mn</c><c>   2</c></rc>
    <rc><c>Mn</c><c>   2</c></rc>
    <rc><c>Mn</c><c>   2</c></rc>
    <rc><c>Mn</c><c>   2</c></rc>
    <rc><c>Mn</c><c>   2</c></rc>
    <rc><c>Mn</c><c>   2</c></rc>
    <rc><c>Mn</c><c>   2</c></rc>
   </set>
  </array>
  <array name="atomtypes" >
   <dimension dim="1">type</dimension>
   <field type="int">atomspertype</field>
   <field type="string">element</field>
   <field>mass</field>
   <field>valence</field>
   <field type="string">pseudopotential</field>
   <set>
    <rc><c> 273</c><c>Fe</c><c>     55.84700000</c><c>      8.00000000</c><c>  PAW_PBE Fe_GW 31Mar2010               </c></rc>
    <rc><c>  15</c><c>Mn</c><c>     54.93800000</c><c>      7.00000000</c><c>  PAW_PBE Mn_GW 31Mar2010               </c></rc>
   </set>
  </array>
 </atominfo>
 <structure name="initialpos" >
  <crystal>
   <varray name="basis" >
    <v>       9.72667800       0.00000000       0.00000000 </v>
    <v>       0.00000000       8.42355000       0.00000000 </v>
    <v>       0.00000000       0.00000000      45.00000000 </v>
   </varray>
   <i name="volume">   3686.99213101 </i>
   <varray name="rec_basis" >
    <v>       0.10281002       0.00000000       0.00000000 </v>
    <v>       0.00000000       0.11871479       0.00000000 </v>
    <v>       0.00000000       0.00000000       0.02222222 </v>
   </varray>
  </crystal>
  <varray name="positions" >
   <v>       0.43759360       0.78959777       0.25772885 </v>
   <v>       0.43720635       0.95561181       0.83120533 </v>
   <v>       0.18745756       0.62262803       0.43491656 </v>
   <v>       0.43735905       0.45526833       0.69793370 </v>
   <v>       0.56282461       0.70518569       0.56511113 </v>
   <v>       0.06242334       0.87196316       0.52140470 </v>
   <v>       0.06252857       0.20625779       0.34631414 </v>
   <v>       0.93804920       0.78854576       0.12670044 </v>
   <v>       0.81261470       0.03884494       0.74224870 </v>
   <v>       0.06261406       0.03929229       0.25770931 </v>
   <v>       0.06263402       0.03943651       0.39029140 </v>
   <v>       0.81244654       0.70552596       0.47870123 </v>
   <v>       0.68743147       0.62194666       0.65367058 </v>
   <v>       0.68742863       0.12207696       0.78628924 </v>
   <v>       0.93745691       0.62206509       0.52135680 </v>
   <v>       0.56244742       0.70623160       0.21376644 </v>
   <v>       0.81201650       0.03888830       0.12682513 </v>
   <v>       0.06244169       0.70599787       0.83109171 </v>
   <v>       0.31266930       0.87195904       0.52139693 </v>
   <v>       0.93754717       0.45547567       0.47873158 </v>
   <v>       0.31259628       0.37182944       0.78619012 </v>
   <v>       0.68750605       0.78851088       0.74220072 </v>
   <v>       0.93764522       0.45521360       0.56506222 </v>
   <v>       0.56251259       0.53851385       0.74220102 </v>
   <v>       0.93754538       0.45623413       0.21377172 </v>
   <v>       0.18757978       0.45626458       0.21381862 </v>
   <v>       0.68727898       0.28854364       0.60967602 </v>
   <v>       0.06259093       0.53868771       0.74214813 </v>
   <v>       0.31261009       0.53870705       0.74228311 </v>
   <v>       0.56239798       0.37240365       0.43509585 </v>
   <v>       0.06253979       0.37251501       0.16880327 </v>
   <v>       0.81267687       0.70599052       0.34640711 </v>
   <v>       0.31235994       0.87258952       0.43500889 </v>
   <v>       0.43758867       0.95566067       0.34639536 </v>
   <v>       0.81230910       0.87305693       0.30214281 </v>
   <v>       0.81243468       0.03956933       0.87318824 </v>
   <v>       0.68744099       0.12193929       0.52128939 </v>
   <v>       0.06289087       0.03869470       0.60965158 </v>
   <v>       0.31216954       0.53832011       0.60971827 </v>
   <v>       0.93751970       0.95473790       0.69805749 </v>
   <v>       0.06224857       0.70543917       0.56504244 </v>
   <v>       0.56240822       0.87228705       0.43490528 </v>
   <v>       0.81126669       0.53768286       0.12677690 </v>
   <v>       0.68733686       0.62246235       0.16888215 </v>
   <v>       0.18756196       0.28836023       0.60962850 </v>
   <v>       0.06251649       0.70483677       0.69788557 </v>
   <v>       0.56276497       0.70590656       0.83119721 </v>
   <v>       0.56262683       0.03821982       0.12672875 </v>
   <v>       0.68751157       0.45634681       0.83108518 </v>
   <v>       0.81266279       0.03911308       0.39034199 </v>
   <v>       0.43730333       0.12303601       0.30212835 </v>
   <v>       0.31245008       0.70590207       0.34646616 </v>
   <v>       0.93760302       0.95495837       0.56500648 </v>
   <v>       0.06251156       0.37292910       0.30208957 </v>
   <v>       0.68748368       0.95593909       0.83109203 </v>
   <v>       0.43731305       0.62193899       0.78621292 </v>
   <v>       0.43744580       0.78881824       0.74221756 </v>
   <v>       0.06244606       0.87278997       0.30204475 </v>
   <v>       0.06240709       0.87227937       0.43499919 </v>
   <v>       0.43765815       0.78938413       0.39028176 </v>
   <v>       0.68738709       0.95484916       0.56499468 </v>
   <v>       0.93766159       0.95576228       0.47860678 </v>
   <v>       0.81224807       0.70612551       0.83108141 </v>
   <v>       0.31249704       0.53918043       0.39030964 </v>
   <v>       0.56249587       0.87225565       0.78621975 </v>
   <v>       0.31243591       0.20602098       0.83102519 </v>
   <v>       0.56254500       0.37273636       0.30210264 </v>
   <v>       0.93780817       0.78960703       0.87315148 </v>
   <v>       0.43696656       0.78872233       0.12676123 </v>
   <v>       0.31253766       0.70550783       0.47866680 </v>
   <v>       0.68733993       0.95520585       0.69798842 </v>
   <v>       0.81236738       0.20606192       0.21384694 </v>
   <v>       0.93746778       0.62295243       0.30204103 </v>
   <v>       0.06204224       0.03979469       0.87319290 </v>
   <v>       0.18742604       0.78959108       0.39033225 </v>
   <v>       0.06272857       0.37200477       0.52140299 </v>
   <v>       0.43761662       0.62199581       0.52138251 </v>
   <v>       0.56256731       0.70560183       0.47863530 </v>
   <v>       0.18732273       0.12288814       0.30212522 </v>
   <v>       0.18742111       0.12179190       0.65357696 </v>
   <v>       0.18762392       0.28949528       0.87308556 </v>
   <v>       0.56243707       0.37251845       0.16882503 </v>
   <v>       0.93781263       0.12191736       0.16900892 </v>
   <v>       0.93722604       0.62256413       0.43498110 </v>
   <v>       0.18734348       0.12196133       0.78621534 </v>
   <v>       0.68806209       0.78896733       0.12674245 </v>
   <v>       0.68751393       0.62200759       0.52137400 </v>
   <v>       0.81280774       0.37233347       0.16880426 </v>
   <v>       0.93728484       0.78842535       0.74210672 </v>
   <v>       0.43734686       0.45596397       0.34639021 </v>
   <v>       0.68714996       0.45498991       0.69802319 </v>
   <v>       0.31301279       0.87223940       0.16883750 </v>
   <v>       0.31299916       0.70583916       0.21385870 </v>
   <v>       0.68714582       0.28902416       0.39035020 </v>
   <v>       0.18699371       0.62197543       0.16861177 </v>
   <v>       0.18777478       0.28937347       0.39038493 </v>
   <v>       0.31245208       0.37221794       0.52142017 </v>
   <v>       0.56254065       0.20565904       0.83112143 </v>
   <v>       0.31231382       0.37261347       0.30207018 </v>
   <v>       0.93720505       0.95581748       0.21379180 </v>
   <v>       0.56249168       0.37201307       0.78622272 </v>
   <v>       0.18737495       0.45537124       0.69806617 </v>
   <v>       0.06261560       0.53933092       0.87306162 </v>
   <v>       0.43764041       0.45536586       0.56509526 </v>
   <v>       0.18709275       0.78932688       0.25777578 </v>
   <v>       0.56244748       0.87182615       0.52133540 </v>
   <v>       0.81266010       0.20620547       0.34643947 </v>
   <v>       0.81251431       0.87211508       0.52133707 </v>
   <v>       0.81238908       0.53927116       0.39027483 </v>
   <v>       0.43765874       0.28831293       0.60972776 </v>
   <v>       0.43780718       0.12232781       0.43496701 </v>
   <v>       0.81210700       0.70562384       0.21383510 </v>
   <v>       0.18735666       0.45548258       0.47858204 </v>
   <v>       0.68759302       0.95579609       0.34640741 </v>
   <v>       0.43765426       0.12170324       0.52139875 </v>
   <v>       0.93751214       0.45594787       0.83105201 </v>
   <v>       0.56270934       0.53905911       0.39028394 </v>
   <v>       0.18746182       0.12188375       0.52125326 </v>
   <v>       0.81186047       0.87199138       0.16886458 </v>
   <v>       0.18750444       0.28888418       0.74215842 </v>
   <v>       0.68783275       0.28905224       0.12673515 </v>
   <v>       0.56305665       0.03978458       0.87319605 </v>
   <v>       0.06245406       0.03839946       0.74224402 </v>
   <v>       0.43722634       0.28933949       0.87308908 </v>
   <v>       0.31265102       0.03878117       0.12678401 </v>
   <v>       0.93748813       0.12174234       0.52134650 </v>
   <v>       0.93754779       0.28877899       0.74215550 </v>
   <v>       0.68768792       0.12321487       0.30212667 </v>
   <v>       0.68726112       0.78935983       0.39038243 </v>
   <v>       0.93770794       0.12221403       0.78625645 </v>
   <v>       0.31261579       0.03954836       0.25788172 </v>
   <v>       0.56238489       0.37182754       0.52146930 </v>
   <v>       0.56261286       0.20645306       0.21374412 </v>
   <v>       0.18739565       0.62210456       0.78620818 </v>
   <v>       0.06225595       0.20517599       0.56499499 </v>
   <v>       0.18738663       0.28939320       0.25787604 </v>
   <v>       0.93743981       0.62160237       0.65354346 </v>
   <v>       0.68758539       0.28886074       0.87315593 </v>
   <v>       0.56247554       0.03922421       0.39038152 </v>
   <v>       0.06259848       0.87183385       0.65354734 </v>
   <v>       0.43727034       0.28867137       0.74210904 </v>
   <v>       0.18764142       0.95527017       0.47864168 </v>
   <v>       0.93756770       0.95586273       0.83112149 </v>
   <v>       0.43778622       0.95502306       0.56507186 </v>
   <v>       0.31234877       0.20614036       0.34641631 </v>
   <v>       0.93778241       0.45470142       0.69793287 </v>
   <v>       0.06279770       0.03922832       0.12687045 </v>
   <v>       0.81250526       0.20512526       0.56504260 </v>
   <v>       0.81219240       0.03856680       0.60969247 </v>
   <v>       0.68739574       0.95562939       0.47868947 </v>
   <v>       0.43782675       0.62234208       0.43495400 </v>
   <v>       0.81271855       0.53879080       0.60958019 </v>
   <v>       0.93814462       0.62192043       0.16864069 </v>
   <v>       0.18703609       0.78880145       0.12667651 </v>
   <v>       0.81256530       0.20560740       0.47863276 </v>
   <v>       0.43736991       0.45595114       0.21376100 </v>
   <v>       0.93750805       0.28932798       0.87313379 </v>
   <v>       0.68754246       0.45549042       0.47869132 </v>
   <v>       0.68747370       0.45528062       0.56509039 </v>
   <v>       0.56261690       0.53864762       0.60980250 </v>
   <v>       0.43738644       0.12205313       0.78622688 </v>
   <v>       0.68760931       0.78904297       0.87318837 </v>
   <v>       0.31265018       0.20570922       0.47871135 </v>
   <v>       0.56228670       0.03810669       0.60958762 </v>
   <v>       0.18747066       0.95620227       0.34648906 </v>
   <v>       0.68769559       0.78952001       0.25766680 </v>
   <v>       0.81281343       0.87246899       0.43503250 </v>
   <v>       0.06236416       0.20581629       0.47859762 </v>
   <v>       0.31260720       0.70531342       0.69799226 </v>
   <v>       0.43738050       0.12133277       0.65355845 </v>
   <v>       0.31285518       0.87279120       0.30210093 </v>
   <v>       0.31235661       0.53884530       0.87312630 </v>
   <v>       0.68769497       0.12172430       0.16880042 </v>
   <v>       0.56236280       0.87278388       0.30213312 </v>
   <v>       0.81228415       0.70501658       0.69798903 </v>
   <v>       0.68763705       0.45615137       0.34643517 </v>
   <v>       0.06254712       0.53975261       0.25784380 </v>
   <v>       0.43751550       0.62182335       0.65358349 </v>
   <v>       0.68744225       0.28860095       0.74222708 </v>
   <v>       0.56252325       0.03929032       0.25786561 </v>
   <v>       0.43752429       0.12191563       0.16890034 </v>
   <v>       0.31259979       0.87131335       0.65368872 </v>
   <v>       0.06234635       0.53823149       0.60974492 </v>
   <v>       0.18781248       0.95589511       0.21379625 </v>
   <v>       0.93755635       0.12174283       0.65359563 </v>
   <v>       0.43760318       0.45562222       0.47867031 </v>
   <v>       0.43767318       0.62231450       0.30206829 </v>
   <v>       0.81273368       0.53933940       0.25779408 </v>
   <v>       0.06253716       0.70641278       0.34637733 </v>
   <v>       0.56261567       0.53931351       0.25779501 </v>
   <v>       0.18736322       0.95505611       0.56505848 </v>
   <v>       0.18749804       0.45584232       0.83095834 </v>
   <v>       0.68719313       0.78853431       0.60966151 </v>
   <v>       0.56223594       0.20510169       0.69799088 </v>
   <v>       0.06239799       0.20569454       0.21396233 </v>
   <v>       0.31374699       0.53773776       0.12673986 </v>
   <v>       0.18697252       0.12164214       0.16887800 </v>
   <v>       0.31268906       0.37248817       0.43496338 </v>
   <v>       0.18769584       0.95568635       0.83118014 </v>
   <v>       0.43735702       0.95551272       0.47861120 </v>
   <v>       0.31229241       0.03865486       0.74219831 </v>
   <v>       0.56271846       0.20535325       0.56499459 </v>
   <v>       0.93758937       0.78923001       0.25783242 </v>
   <v>       0.06251004       0.70545849       0.47868621 </v>
   <v>       0.31265902       0.03809653       0.60965152 </v>
   <v>       0.18777446       0.78841062       0.60969004 </v>
   <v>       0.06247617       0.20584598       0.83113268 </v>
   <v>       0.43760526       0.95500886       0.69800202 </v>
   <v>       0.93662249       0.28853307       0.12688296 </v>
   <v>       0.18767959       0.78961651       0.87321744 </v>
   <v>       0.18743051       0.62199992       0.52139438 </v>
   <v>       0.06256864       0.87100965       0.16869362 </v>
   <v>       0.81254889       0.37197871       0.65360061 </v>
   <v>       0.93771045       0.12316147       0.30202818 </v>
   <v>       0.31257067       0.37173863       0.65367304 </v>
   <v>       0.81231048       0.03931288       0.25784769 </v>
   <v>       0.31251462       0.70643555       0.83109766 </v>
   <v>       0.56268338       0.53935125       0.87313107 </v>
   <v>       0.31214969       0.53932350       0.25779908 </v>
   <v>       0.68747087       0.12232659       0.43495256 </v>
   <v>       0.81260543       0.37301264       0.30200978 </v>
   <v>       0.81260170       0.37263623       0.43496623 </v>
   <v>       0.56246345       0.20606234       0.34648875 </v>
   <v>       0.93761715       0.28928255       0.39034729 </v>
   <v>       0.81216203       0.53875707       0.74222919 </v>
   <v>       0.68756743       0.45593447       0.21380298 </v>
   <v>       0.18839656       0.28860107       0.12685798 </v>
   <v>       0.43742641       0.28914735       0.39034836 </v>
   <v>       0.18738898       0.45498561       0.56507705 </v>
   <v>       0.93754879       0.78860925       0.60973709 </v>
   <v>       0.93751405       0.45608054       0.34645570 </v>
   <v>       0.31218409       0.37246045       0.16879110 </v>
   <v>       0.93735848       0.12242479       0.43489857 </v>
   <v>       0.43745885       0.78831870       0.60964967 </v>
   <v>       0.56248236       0.20584823       0.47860560 </v>
   <v>       0.81248822       0.37190716       0.52135842 </v>
   <v>       0.68758693       0.28934711       0.25784227 </v>
   <v>       0.18727140       0.95476079       0.69797795 </v>
   <v>       0.31265685       0.20627142       0.21384704 </v>
   <v>       0.81223228       0.87198741       0.65359775 </v>
   <v>       0.06227546       0.87230096       0.78617229 </v>
   <v>       0.43743233       0.45574597       0.83099031 </v>
   <v>       0.06230421       0.37262788       0.43491095 </v>
   <v>       0.18762334       0.62254374       0.30200937 </v>
   <v>       0.06223616       0.37197949       0.78627233 </v>
   <v>       0.93730429       0.95605990       0.34637731 </v>
   <v>       0.93753471       0.28921594       0.25791748 </v>
   <v>       0.56260495       0.87259576       0.16867201 </v>
   <v>       0.68727644       0.62246374       0.30202830 </v>
   <v>       0.81224257       0.53943201       0.87316199 </v>
   <v>       0.18750434       0.45624301       0.34638071 </v>
   <v>       0.43760402       0.62279728       0.16878494 </v>
   <v>       0.06263520       0.20498198       0.69805012 </v>
   <v>       0.56267894       0.37179189       0.65366435 </v>
   <v>       0.81242938       0.20589907       0.83107494 </v>
   <v>       0.18782234       0.62149067       0.65354495 </v>
   <v>       0.81271912       0.70507618       0.56505292 </v>
   <v>       0.68784147       0.12172095       0.65352917 </v>
   <v>       0.93782587       0.62182384       0.78625140 </v>
   <v>       0.43719075       0.28897455       0.12673816 </v>
   <v>       0.06261227       0.53923680       0.39027262 </v>
   <v>       0.56247701       0.03875546       0.74216290 </v>
   <v>       0.31225972       0.70495424       0.56503294 </v>
   <v>       0.68755569       0.62239641       0.43492320 </v>
   <v>       0.81264462       0.87180647       0.78628740 </v>
   <v>       0.56247871       0.70535069       0.69790702 </v>
   <v>       0.31238424       0.03919109       0.87320637 </v>
   <v>       0.43685157       0.78966446       0.87321388 </v>
   <v>       0.56255364       0.53840832       0.12668366 </v>
   <v>       0.31251569       0.20541664       0.69793053 </v>
   <v>       0.18757986       0.78873629       0.74217117 </v>
   <v>       0.81251239       0.37184863       0.78625293 </v>
   <v>       0.31237895       0.03946168       0.39038104 </v>
   <v>       0.68735978       0.62166822       0.78591961 </v>
   <v>       0.68862534       0.95623426       0.21399794 </v>
   <v>       0.06231241       0.37180814       0.65384547 </v>
   <v>       0.56242620       0.70584490       0.34653079 </v>
   <v>       0.93728779       0.28844664       0.60959459 </v>
   <v>       0.06247561       0.70540992       0.21392230 </v>
   <v>       0.43652266       0.95675931       0.21409397 </v>
   <v>       0.93750853       0.78937243       0.39020139 </v>
   <v>       0.06242491       0.53867288       0.12695411 </v>
   <v>       0.31272335       0.20526122       0.56509012 </v>
   <v>       0.18755710       0.12243797       0.43494392 </v>
   <v>       0.43740432       0.28908113       0.25765373 </v>
   <v>       0.56242384       0.87179136       0.65350715 </v>
   <v>       0.81291277       0.20537002       0.69799569 </v>
   <v>       0.31256192       0.87240772       0.78598823 </v>
  </varray>
 </structure>
 <calculation>
  <scstep>
   <time name="dav">  146.09  146.09</time>
   <time name="total">  146.54  146.54</time>
   <energy>
    <i name="alphaZ">  16277.55763135 </i>
    <i name="ewald"> 774335.02811365 </i>
    <i name="hartreedc">-964568.34120357 </i>
    <i name="XCdc">  -6524.29652587 </i>
    <i name="pawpsdc"> 162148.49262465 </i>
    <i name="pawaedc">-159453.03229289 </i>
    <i name="eentropy">     -0.97693360 </i>
    <i name="bandstr">  39731.32434636 </i>
    <i name="atom"> 168497.18126305 </i>
    <i name="e_fr_energy">  30442.93702313 </i>
    <i name="e_wo_entrp">  30443.91395673 </i>
    <i name="e_0_energy">  30443.42548993 </i>
   </energy>
  </scstep>
  <scstep>
   <time name="dav">  141.08  141.08</time>
   <time name="total">  141.09  141.09</time>
   <energy>
    <i name="e_fr_energy">   1535.24038348 </i>
    <i name="e_wo_entrp">   1536.62188552 </i>
    <i name="e_0_energy">   1535.93113450 </i>
   </energy>
  </scstep>
  <scstep>
   <time name="dav">  177.21  177.20</time>
   <time name="total">  177.21  177.21</time>
   <energy>
    <i name="e_fr_energy">  -1895.84369247 </i>
    <i name="e_wo_entrp">  -1892.31779543 </i>
    <i name="e_0_energy">  -1894.08074395 </i>
   </energy>
  </scstep>
  <scstep>
   <time name="dav">  216.56  216.56</time>
   <time name="total">  216.57  216.56</time>
   <energy>
    <i name="e_fr_energy">  -2609.65300042 </i>
    <i name="e_wo_entrp">  -2606.18009563 </i>
    <i name="e_0_energy">  -2607.91654803 </i>
   </energy>
  </scstep>
  <scstep>
   <time name="dav">  206.95  206.94</time>
   <time name="total">  211.65  211.64</time>
   <energy>
    <i name="e_fr_energy">  -2739.37345097 </i>
    <i name="e_wo_entrp">  -2735.83057336 </i>
    <i name="e_0_energy">  -2737.60201217 </i>
   </energy>
  </scstep>
  <scstep>
   <time name="diag">   29.08   29.08</time>
   <time name="diis">   75.50   75.50</time>
   <time name="orth">    9.74    9.73</time>
   <time name="total">  119.45  119.44</time>
   <energy>
    <i name="e_fr_energy">  -6503.47537447 </i>
    <i name="e_wo_entrp">  -6500.07328269 </i>
    <i name="e_0_energy">  -6501.77432858 </i>
   </energy>
  </scstep>
  <scstep>
   <time name="diag">   30.56   30.56</time>
   <time name="diis">   77.23   77.23</time>
   <time name="orth">    9.11    9.11</time>
   <time name="total">  121.88  121.87</time>
   <energy>
    <i name="e_fr_energy">  -6136.76914290 </i>
    <i name="e_wo_entrp">  -6132.12106912 </i>
    <i name="e_0_energy">  -6134.44510601 </i>
   </energy>
  </scstep>
  <scstep>
[...]
       <r>     5.7939     0.0000  2760.0000 </r>
       <r>     5.8367     0.0000  2760.0000 </r>
       <r>     5.8794     0.0000  2760.0000 </r>
       <r>     5.9221     0.0000  2760.0000 </r>
       <r>     5.9648     0.0000  2760.0000 </r>
       <r>     6.0075     0.0000  2760.0000 </r>
       <r>     6.0502     0.0000  2760.0000 </r>
       <r>     6.0929     0.0000  2760.0000 </r>
       <r>     6.1356     0.0000  2760.0000 </r>
       <r>     6.1783     0.0000  2760.0000 </r>
       <r>     6.2210     0.0000  2760.0000 </r>
       <r>     6.2637     0.0000  2760.0000 </r>
       <r>     6.3064     0.0000  2760.0000 </r>
       <r>     6.3491     0.0000  2760.0000 </r>
       <r>     6.3918     0.0000  2760.0000 </r>
       <r>     6.4345     0.0000  2760.0000 </r>
       <r>     6.4772     0.0000  2760.0000 </r>
       <r>     6.5199     0.0000  2760.0000 </r>
       <r>     6.5626     0.0000  2760.0000 </r>
       <r>     6.6054     0.0000  2760.0000 </r>
       <r>     6.6481     0.0000  2760.0000 </r>
       <r>     6.6908     0.0000  2760.0000 </r>
       <r>     6.7335     0.0000  2760.0000 </r>
      </set>
     </set>
    </array>
   </total>
  </dos>
 </calculation>
 <structure name="finalpos" >
  <crystal>
   <varray name="basis" >
    <v>       9.72667800       0.00000000       0.00000000 </v>
    <v>       0.00000000       8.42355000       0.00000000 </v>
    <v>       0.00000000       0.00000000      45.00000000 </v>
   </varray>
   <i name="volume">   3686.99213101 </i>
   <varray name="rec_basis" >
    <v>       0.10281002       0.00000000       0.00000000 </v>
    <v>       0.00000000       0.11871479       0.00000000 </v>
    <v>       0.00000000       0.00000000       0.02222222 </v>
   </varray>
  </crystal>
  <varray name="positions" >
   <v>       0.43761514       0.78915432       0.25770071 </v>
   <v>       0.43717412       0.95529422       0.83125008 </v>
   <v>       0.18746564       0.62256584       0.43487261 </v>
   <v>       0.43733294       0.45577967       0.69805757 </v>
   <v>       0.56281336       0.70545880       0.56513034 </v>
   <v>       0.06240921       0.87225203       0.52138471 </v>
   <v>       0.06252841       0.20594875       0.34621922 </v>
   <v>       0.93822097       0.78926573       0.12650637 </v>
   <v>       0.81257879       0.03896350       0.74231915 </v>
   <v>       0.06261426       0.03881352       0.25769220 </v>
   <v>       0.06258234       0.03929488       0.39023164 </v>
   <v>       0.81243014       0.70555723       0.47866956 </v>
   <v>       0.68739908       0.62245628       0.65375413 </v>
   <v>       0.68744480       0.12236637       0.78645645 </v>
   <v>       0.93745073       0.62232900       0.52134574 </v>
   <v>       0.56248736       0.70590093       0.21361385 </v>
   <v>       0.81209801       0.03936628       0.12663833 </v>
   <v>       0.06245948       0.70567524       0.83118944 </v>
   <v>       0.31266102       0.87224342       0.52137925 </v>
   <v>       0.93755870       0.45551029       0.47869532 </v>
   <v>       0.31258853       0.37200175       0.78636635 </v>
   <v>       0.68749458       0.78877676       0.74225457 </v>
   <v>       0.93767197       0.45566707       0.56509017 </v>
   <v>       0.56249303       0.53869116       0.74226700 </v>
   <v>       0.93759055       0.45586773       0.21361310 </v>
   <v>       0.18753519       0.45586972       0.21365405 </v>
   <v>       0.68716313       0.28882724       0.60973189 </v>
   <v>       0.06255594       0.53885613       0.74221888 </v>
   <v>       0.31255300       0.53902219       0.74232927 </v>
   <v>       0.56242641       0.37230706       0.43501450 </v>
   <v>       0.06254974       0.37278235       0.16874140 </v>
   <v>       0.81276060       0.70573399       0.34631820 </v>
   <v>       0.31233501       0.87251179       0.43493161 </v>
   <v>       0.43759494       0.95521879       0.34631080 </v>
   <v>       0.81222561       0.87264498       0.30203207 </v>
   <v>       0.81235000       0.03885289       0.87340688 </v>
   <v>       0.68746675       0.12217018       0.52127480 </v>
   <v>       0.06291137       0.03899911       0.60971637 </v>
   <v>       0.31213886       0.53855462       0.60974118 </v>
   <v>       0.93749704       0.95516362       0.69817006 </v>
   <v>       0.06225140       0.70576327       0.56508338 </v>
   <v>       0.56240524       0.87218633       0.43486226 </v>
   <v>       0.81134606       0.53818338       0.12658396 </v>
   <v>       0.68731564       0.62248348       0.16885003 </v>
   <v>       0.18767075       0.28867904       0.60970236 </v>
   <v>       0.06255985       0.70518472       0.69798633 </v>
   <v>       0.56267034       0.70546845       0.83126345 </v>
   <v>       0.56258114       0.03873823       0.12656573 </v>
   <v>       0.68749220       0.45584902       0.83119688 </v>
   <v>       0.81266420       0.03894384       0.39025951 </v>
   <v>       0.43731828       0.12247620       0.30202558 </v>
   <v>       0.31236375       0.70564144       0.34636782 </v>
   <v>       0.93758127       0.95538599       0.56505235 </v>
   <v>       0.06248116       0.37242108       0.30198840 </v>
   <v>       0.68749246       0.95571405       0.83116794 </v>
   <v>       0.43707584       0.62212779       0.78638828 </v>
   <v>       0.43751732       0.78910295       0.74228823 </v>
   <v>       0.06251249       0.87228421       0.30194653 </v>
   <v>       0.06246065       0.87220932       0.43490869 </v>
   <v>       0.43761300       0.78925651       0.39021896 </v>
   <v>       0.68738452       0.95515068       0.56503482 </v>
   <v>       0.93763692       0.95579964       0.47859382 </v>
   <v>       0.81224584       0.70568565       0.83114374 </v>
   <v>       0.31255884       0.53903658       0.39025310 </v>
   <v>       0.56270006       0.87238277       0.78638597 </v>
   <v>       0.31244309       0.20568590       0.83111360 </v>
   <v>       0.56254851       0.37235449       0.30198888 </v>
   <v>       0.93772350       0.78897951       0.87334949 </v>
   <v>       0.43712772       0.78922949       0.12661866 </v>
   <v>       0.31256861       0.70551039       0.47863977 </v>
   <v>       0.68736123       0.95571319       0.69809929 </v>
   <v>       0.81229080       0.20576063       0.21368979 </v>
   <v>       0.93748364       0.62243532       0.30191572 </v>
   <v>       0.06210547       0.03914041       0.87339603 </v>
   <v>       0.18750787       0.78950438       0.39028310 </v>
   <v>       0.06277444       0.37224517       0.52137185 </v>
   <v>       0.43763229       0.62221812       0.52136419 </v>
   <v>       0.56259118       0.70560823       0.47859867 </v>
   <v>       0.18739118       0.12240512       0.30201537 </v>
   <v>       0.18731267       0.12220807       0.65366078 </v>
   <v>       0.18764292       0.28886547       0.87330563 </v>
   <v>       0.56245787       0.37264710       0.16877892 </v>
   <v>       0.93772697       0.12210899       0.16894025 </v>
   <v>       0.93721991       0.62241241       0.43492099 </v>
   <v>       0.18737610       0.12216746       0.78638299 </v>
   <v>       0.68790588       0.78952512       0.12659971 </v>
   <v>       0.68752241       0.62222414       0.52135119 </v>
   <v>       0.81282071       0.37255972       0.16873709 </v>
   <v>       0.93726338       0.78858684       0.74216528 </v>
   <v>       0.43733044       0.45575358       0.34631016 </v>
   <v>       0.68723851       0.45538833       0.69813173 </v>
   <v>       0.31297442       0.87253320       0.16881307 </v>
   <v>       0.31308504       0.70548586       0.21370717 </v>
   <v>       0.68716847       0.28888953       0.39028540 </v>
   <v>       0.18689122       0.62211397       0.16857820 </v>
   <v>       0.18778651       0.28930979       0.39031548 </v>
   <v>       0.31245048       0.37252831       0.52138988 </v>
   <v>       0.56255590       0.20533289       0.83121811 </v>
   <v>       0.31230305       0.37217866       0.30195647 </v>
   <v>       0.93738524       0.95556981       0.21364026 </v>
   <v>       0.56255600       0.37217213       0.78640555 </v>
   <v>       0.18737547       0.45586468       0.69816531 </v>
   <v>       0.06259154       0.53876962       0.87327444 </v>
   <v>       0.43754787       0.45562849       0.56515284 </v>
   <v>       0.18710942       0.78896844       0.25771825 </v>
   <v>       0.56245843       0.87211674       0.52132096 </v>
   <v>       0.81267333       0.20596353       0.34633971 </v>
   <v>       0.81253488       0.87237157       0.52130842 </v>
   <v>       0.81235695       0.53919144       0.39021410 </v>
   <v>       0.43768613       0.28860127       0.60977854 </v>
   <v>       0.43788003       0.12226026       0.43490774 </v>
   <v>       0.81202703       0.70534633       0.21368650 </v>
   <v>       0.18737245       0.45549990       0.47856311 </v>
   <v>       0.68765633       0.95547772       0.34631561 </v>
   <v>       0.43769498       0.12195011       0.52138161 </v>
   <v>       0.93745663       0.45561056       0.83115945 </v>
   <v>       0.56265570       0.53882265       0.39023493 </v>
   <v>       0.18743621       0.12209001       0.52122972 </v>
   <v>       0.81192595       0.87231182       0.16882564 </v>
   <v>       0.18751032       0.28914741       0.74224130 </v>
   <v>       0.68772346       0.28957219       0.12654545 </v>
   <v>       0.56298368       0.03901196       0.87339413 </v>
   <v>       0.06241254       0.03855826       0.74231329 </v>
   <v>       0.43724822       0.28871305       0.87331315 </v>
   <v>       0.31266753       0.03924515       0.12659993 </v>
   <v>       0.93746862       0.12195406       0.52131647 </v>
   <v>       0.93753321       0.28891406       0.74223726 </v>
   <v>       0.68763970       0.12276288       0.30202823 </v>
   <v>       0.68714973       0.78915840       0.39031542 </v>
   <v>       0.93767985       0.12243019       0.78643114 </v>
   <v>       0.31255116       0.03921643       0.25781414 </v>
   <v>       0.56239860       0.37207204       0.52143862 </v>
   <v>       0.56261702       0.20602526       0.21359628 </v>
   <v>       0.18743487       0.62231120       0.78638723 </v>
   <v>       0.06219983       0.20545213       0.56501794 </v>
   <v>       0.18731448       0.28900487       0.25782974 </v>
   <v>       0.93745394       0.62181209       0.65362776 </v>
   <v>       0.68755190       0.28818532       0.87338944 </v>
   <v>       0.56249104       0.03908116       0.39029837 </v>
   <v>       0.06261282       0.87207725       0.65362817 </v>
   <v>       0.43728147       0.28896513       0.74217906 </v>
   <v>       0.18766996       0.95524567       0.47862293 </v>
   <v>       0.93756207       0.95560254       0.83119668 </v>
   <v>       0.43777542       0.95544036       0.56511141 </v>
   <v>       0.31234931       0.20584209       0.34632370 </v>
   <v>       0.93768134       0.45504871       0.69804358 </v>
   <v>       0.06275294       0.03998199       0.12667449 </v>
   <v>       0.81246526       0.20539011       0.56509116 </v>
   <v>       0.81215340       0.03874911       0.60974105 </v>
   <v>       0.68741265       0.95564411       0.47865398 </v>
   <v>       0.43783479       0.62227242       0.43488759 </v>
   <v>       0.81278803       0.53898810       0.60964144 </v>
   <v>       0.93822233       0.62207499       0.16859466 </v>
   <v>       0.18684203       0.78946228       0.12649500 </v>
   <v>       0.81256186       0.20560969       0.47861282 </v>
   <v>       0.43735193       0.45559316       0.21359384 </v>
   <v>       0.93746386       0.28879559       0.87335324 </v>
   <v>       0.68753317       0.45551288       0.47866816 </v>
   <v>       0.68751520       0.45569086       0.56512209 </v>
   <v>       0.56263611       0.53890519       0.60984039 </v>
   <v>       0.43733796       0.12224796       0.78640172 </v>
   <v>       0.68760978       0.78839162       0.87337408 </v>
   <v>       0.31268441       0.20573547       0.47869590 </v>
   <v>       0.56227916       0.03832516       0.60964457 </v>
   <v>       0.18739717       0.95596784       0.34638592 </v>
   <v>       0.68768865       0.78902495       0.25764375 </v>
   <v>       0.81275976       0.87231077       0.43495672 </v>
   <v>       0.06233019       0.20583873       0.47858662 </v>
   <v>       0.31271401       0.70568584       0.69808250 </v>
   <v>       0.43742656       0.12159299       0.65363938 </v>
   <v>       0.31282215       0.87234155       0.30199201 </v>
   <v>       0.31234242       0.53814615       0.87334078 </v>
   <v>       0.68768943       0.12207164       0.16871983 </v>
   <v>       0.56240491       0.87239112       0.30200734 </v>
   <v>       0.81224921       0.70535404       0.69810274 </v>
   <v>       0.68768216       0.45594193       0.34634006 </v>
   <v>       0.06254962       0.53933853       0.25778037 </v>
   <v>       0.43756505       0.62226037       0.65366163 </v>
   <v>       0.68745661       0.28886246       0.74227689 </v>
   <v>       0.56256516       0.03892249       0.25780696 </v>
   <v>       0.43753979       0.12226938       0.16881796 </v>
   <v>       0.31248695       0.87168746       0.65376319 </v>
   <v>       0.06237149       0.53844473       0.60977795 </v>
   <v>       0.18761810       0.95560855       0.21364531 </v>
   <v>       0.93766453       0.12204756       0.65368364 </v>
   <v>       0.43762885       0.45556904       0.47863885 </v>
   <v>       0.43762995       0.62178110       0.30195351 </v>
   <v>       0.81276550       0.53888200       0.25774752 </v>
   <v>       0.06254547       0.70611667       0.34629161 </v>
   <v>       0.56262921       0.53889198       0.25775453 </v>
   <v>       0.18740147       0.95550093       0.56511416 </v>
   <v>       0.18745901       0.45552729       0.83105206 </v>
   <v>       0.68721940       0.78879535       0.60972116 </v>
   <v>       0.56211730       0.20541118       0.69809105 </v>
   <v>       0.06242078       0.20535143       0.21378501 </v>
   <v>       0.31366039       0.53818235       0.12655651 </v>
   <v>       0.18707529       0.12186980       0.16881556 </v>
   <v>       0.31267593       0.37241672       0.43487754 </v>
   <v>       0.18764262       0.95534778       0.83124473 </v>
   <v>       0.43735342       0.95555012       0.47859936 </v>
   <v>       0.31233018       0.03898344       0.74225861 </v>
   <v>       0.56279986       0.20563944       0.56502183 </v>
   <v>       0.93751335       0.78891624       0.25778031 </v>
   <v>       0.06248778       0.70548738       0.47866125 </v>
   <v>       0.31271939       0.03823904       0.60970352 </v>
   <v>       0.18779242       0.78861366       0.60973117 </v>
   <v>       0.06242302       0.20555295       0.83121299 </v>
   <v>       0.43757349       0.95533254       0.69811200 </v>
   <v>       0.93673738       0.28907766       0.12666974 </v>
   <v>       0.18765153       0.78898435       0.87342527 </v>
   <v>       0.18743132       0.62227355       0.52137403 </v>
   <v>       0.06254727       0.87109662       0.16863564 </v>
   <v>       0.81240260       0.37236118       0.65367699 </v>
   <v>       0.93769439       0.12280370       0.30190843 </v>
   <v>       0.31268201       0.37207517       0.65376990 </v>
   <v>       0.81234313       0.03887001       0.25778571 </v>
   <v>       0.31251939       0.70595814       0.83119237 </v>
   <v>       0.56265605       0.53876641       0.87335158 </v>
   <v>       0.31210629       0.53878241       0.25776338 </v>
   <v>       0.68748409       0.12225198       0.43485882 </v>
   <v>       0.81267838       0.37257124       0.30190663 </v>
   <v>       0.81262687       0.37258592       0.43488406 </v>
   <v>       0.56249728       0.20582719       0.34639034 </v>
   <v>       0.93763873       0.28912494       0.39027478 </v>
   <v>       0.81222898       0.53887378       0.74230167 </v>
   <v>       0.68759553       0.45551498       0.21363214 </v>
   <v>       0.18825847       0.28916379       0.12666103 </v>
   <v>       0.43737856       0.28892970       0.39027293 </v>
   <v>       0.18739815       0.45532643       0.56511647 </v>
   <v>       0.93754227       0.78887250       0.60977417 </v>
   <v>       0.93750347       0.45584151       0.34638150 </v>
   <v>       0.31216352       0.37267736       0.16873143 </v>
   <v>       0.93726061       0.12234886       0.43483495 </v>
   <v>       0.43743011       0.78856189       0.60971095 </v>
   <v>       0.56249870       0.20582403       0.47859358 </v>
   <v>       0.81244654       0.37213961       0.52133828 </v>
   <v>       0.68769382       0.28888884       0.25779719 </v>
   <v>       0.18727611       0.95513380       0.69810176 </v>
   <v>       0.31270788       0.20594955       0.21370669 </v>
   <v>       0.81232984       0.87230797       0.65369905 </v>
   <v>       0.06216337       0.87251644       0.78635109 </v>
   <v>       0.43749333       0.45539374       0.83109667 </v>
   <v>       0.06235749       0.37244625       0.43483320 </v>
   <v>       0.18761635       0.62205545       0.30188990 </v>
   <v>       0.06223218       0.37213740       0.78643953 </v>
   <v>       0.93737582       0.95597743       0.34630613 </v>
   <v>       0.93749932       0.28881937       0.25786602 </v>
   <v>       0.56259775       0.87284551       0.16868857 </v>
   <v>       0.68734844       0.62196139       0.30192105 </v>
   <v>       0.81224900       0.53877723       0.87337772 </v>
   <v>       0.18750312       0.45599755       0.34630795 </v>
   <v>       0.43764362       0.62278595       0.16876282 </v>
   <v>       0.06279828       0.20524427       0.69816411 </v>
   <v>       0.56268047       0.37209976       0.65374427 </v>
   <v>       0.81242000       0.20552221       0.83117601 </v>
   <v>       0.18778838       0.62169537       0.65363254 </v>
   <v>       0.81270596       0.70531961       0.56507567 </v>
   <v>       0.68786898       0.12199029       0.65363221 </v>
   <v>       0.93789341       0.62199331       0.78641747 </v>
   <v>       0.43730901       0.28950439       0.12655539 </v>
   <v>       0.06258538       0.53919729       0.39020530 </v>
   <v>       0.56245805       0.03897675       0.74223591 </v>
   <v>       0.31226901       0.70521553       0.56505248 </v>
   <v>       0.68760894       0.62237120       0.43488079 </v>
   <v>       0.81258511       0.87190954       0.78645632 </v>
   <v>       0.56240882       0.70564344       0.69801858 </v>
   <v>       0.31243052       0.03858390       0.87340178 </v>
   <v>       0.43694258       0.78900058       0.87341149 </v>
   <v>       0.56254754       0.53906697       0.12651913 </v>
   <v>       0.31246687       0.20585880       0.69802720 </v>
   <v>       0.18752325       0.78891745       0.74223361 </v>
   <v>       0.81248386       0.37206066       0.78643124 </v>
   <v>       0.31239421       0.03938411       0.39030294 </v>
   <v>       0.68743241       0.62179610       0.78612209 </v>
   <v>       0.68868114       0.95596028       0.21380918 </v>
   <v>       0.06229976       0.37219591       0.65388814 </v>
   <v>       0.56245348       0.70547466       0.34644494 </v>
   <v>       0.93729731       0.28869057       0.60967751 </v>
   <v>       0.06246117       0.70497413       0.21375985 </v>
   <v>       0.43646768       0.95642266       0.21390513 </v>
   <v>       0.93754870       0.78932141       0.39014053 </v>
   <v>       0.06246812       0.53932678       0.12674008 </v>
   <v>       0.31267062       0.20539942       0.56509183 </v>
   <v>       0.18756700       0.12243115       0.43489986 </v>
   <v>       0.43736044       0.28859826       0.25765779 </v>
   <v>       0.56246047       0.87217514       0.65355514 </v>
   <v>       0.81297612       0.20569510       0.69810859 </v>
   <v>       0.31250887       0.87261125       0.78618285 </v>
  </varray>
 </structure>
</modeling>
