unknown system                          
            1
     9.726678    0.000000    0.000000
     0.000000    8.423550    0.000000
     0.000000    0.000000   45.000000
   Fe   Mn
 273  15
Direct configuration=     1
   0.43759360  0.78959777  0.25772885
   0.43720635  0.95561181  0.83120533
   0.18745756  0.62262803  0.43491656
   0.43735905  0.45526833  0.69793370
   0.56282461  0.70518569  0.56511113
   0.06242334  0.87196316  0.52140470
   0.06252857  0.20625779  0.34631414
   0.93804920  0.78854576  0.12670044
   0.81261470  0.03884494  0.74224870
   0.06261406  0.03929229  0.25770931
   0.06263402  0.03943651  0.39029140
   0.81244654  0.70552596  0.47870123
   0.68743147  0.62194666  0.65367058
   0.68742863  0.12207696  0.78628924
   0.93745691  0.62206509  0.52135680
   0.56244742  0.70623160  0.21376644
   0.81201650  0.03888830  0.12682513
   0.06244169  0.70599787  0.83109171
   0.31266930  0.87195904  0.52139693
   0.93754717  0.45547567  0.47873158
   0.31259628  0.37182944  0.78619012
   0.68750605  0.78851088  0.74220072
   0.93764522  0.45521360  0.56506222
   0.56251259  0.53851385  0.74220102
   0.93754538  0.45623413  0.21377172
   0.18757978  0.45626458  0.21381862
   0.68727898  0.28854364  0.60967602
   0.06259093  0.53868771  0.74214813
   0.31261009  0.53870705  0.74228311
   0.56239798  0.37240365  0.43509585
   0.06253979  0.37251501  0.16880327
   0.81267687  0.70599052  0.34640711
   0.31235994  0.87258952  0.43500889
   0.43758867  0.95566067  0.34639536
   0.81230910  0.87305693  0.30214281
   0.81243468  0.03956933  0.87318824
   0.68744099  0.12193929  0.52128939
   0.06289087  0.03869470  0.60965158
   0.31216954  0.53832011  0.60971827
   0.93751970  0.95473790  0.69805749
   0.06224857  0.70543917  0.56504244
   0.56240822  0.87228705  0.43490528
   0.81126669  0.53768286  0.12677690
   0.68733686  0.62246235  0.16888215
   0.18756196  0.28836023  0.60962850
   0.06251649  0.70483677  0.69788557
   0.56276497  0.70590656  0.83119721
   0.56262683  0.03821982  0.12672875
   0.68751157  0.45634681  0.83108518
   0.81266279  0.03911308  0.39034199
   0.43730333  0.12303601  0.30212835
   0.31245008  0.70590207  0.34646616
   0.93760302  0.95495837  0.56500648
   0.06251156  0.37292910  0.30208957
   0.68748368  0.95593909  0.83109203
   0.43731305  0.62193899  0.78621292
   0.43744580  0.78881824  0.74221756
   0.06244606  0.87278997  0.30204475
   0.06240709  0.87227937  0.43499919
   0.43765815  0.78938413  0.39028176
   0.68738709  0.95484916  0.56499468
   0.93766159  0.95576228  0.47860678
   0.81224807  0.70612551  0.83108141
   0.31249704  0.53918043  0.39030964
   0.56249587  0.87225565  0.78621975
   0.31243591  0.20602098  0.83102519
   0.56254500  0.37273636  0.30210264
   0.93780817  0.78960703  0.87315148
   0.43696656  0.78872233  0.12676123
   0.31253766  0.70550783  0.47866680
   0.68733993  0.95520585  0.69798842
   0.81236738  0.20606192  0.21384694
   0.93746778  0.62295243  0.30204103
   0.06204224  0.03979469  0.87319290
   0.18742604  0.78959108  0.39033225
   0.06272857  0.37200477  0.52140299
   0.43761662  0.62199581  0.52138251
   0.56256731  0.70560183  0.47863530
   0.18732273  0.12288814  0.30212522
   0.18742111  0.12179190  0.65357696
   0.18762392  0.28949528  0.87308556
   0.56243707  0.37251845  0.16882503
   0.93781263  0.12191736  0.16900892
   0.93722604  0.62256413  0.43498110
   0.18734348  0.12196133  0.78621534
   0.68806209  0.78896733  0.12674245
   0.68751393  0.62200759  0.52137400
   0.81280774  0.37233347  0.16880426
   0.93728484  0.78842535  0.74210672
   0.43734686  0.45596397  0.34639021
   0.68714996  0.45498991  0.69802319
   0.31301279  0.87223940  0.16883750
   0.31299916  0.70583916  0.21385870
   0.68714582  0.28902416  0.39035020
   0.18699371  0.62197543  0.16861177
   0.18777478  0.28937347  0.39038493
   0.31245208  0.37221794  0.52142017
   0.56254065  0.20565904  0.83112143
   0.31231382  0.37261347  0.30207018
   0.93720505  0.95581748  0.21379180
   0.56249168  0.37201307  0.78622272
   0.18737495  0.45537124  0.69806617
   0.06261560  0.53933092  0.87306162
   0.43764041  0.45536586  0.56509526
   0.18709275  0.78932688  0.25777578
   0.56244748  0.87182615  0.52133540
   0.81266010  0.20620547  0.34643947
   0.81251431  0.87211508  0.52133707
   0.81238908  0.53927116  0.39027483
   0.43765874  0.28831293  0.60972776
   0.43780718  0.12232781  0.43496701
   0.81210700  0.70562384  0.21383510
   0.18735666  0.45548258  0.47858204
   0.68759302  0.95579609  0.34640741
   0.43765426  0.12170324  0.52139875
   0.93751214  0.45594787  0.83105201
   0.56270934  0.53905911  0.39028394
   0.18746182  0.12188375  0.52125326
   0.81186047  0.87199138  0.16886458
   0.18750444  0.28888418  0.74215842
   0.68783275  0.28905224  0.12673515
   0.56305665  0.03978458  0.87319605
   0.06245406  0.03839946  0.74224402
   0.43722634  0.28933949  0.87308908
   0.31265102  0.03878117  0.12678401
   0.93748813  0.12174234  0.52134650
   0.93754779  0.28877899  0.74215550
   0.68768792  0.12321487  0.30212667
   0.68726112  0.78935983  0.39038243
   0.93770794  0.12221403  0.78625645
   0.31261579  0.03954836  0.25788172
   0.56238489  0.37182754  0.52146930
   0.56261286  0.20645306  0.21374412
   0.18739565  0.62210456  0.78620818
   0.06225595  0.20517599  0.56499499
   0.18738663  0.28939320  0.25787604
   0.93743981  0.62160237  0.65354346
   0.68758539  0.28886074  0.87315593
   0.56247554  0.03922421  0.39038152
   0.06259848  0.87183385  0.65354734
   0.43727034  0.28867137  0.74210904
   0.18764142  0.95527017  0.47864168
   0.93756770  0.95586273  0.83112149
   0.43778622  0.95502306  0.56507186
   0.31234877  0.20614036  0.34641631
   0.93778241  0.45470142  0.69793287
   0.06279770  0.03922832  0.12687045
   0.81250526  0.20512526  0.56504260
   0.81219240  0.03856680  0.60969247
   0.68739574  0.95562939  0.47868947
   0.43782675  0.62234208  0.43495400
   0.81271855  0.53879080  0.60958019
   0.93814462  0.62192043  0.16864069
   0.18703609  0.78880145  0.12667651
   0.81256530  0.20560740  0.47863276
   0.43736991  0.45595114  0.21376100
   0.93750805  0.28932798  0.87313379
   0.68754246  0.45549042  0.47869132
   0.68747370  0.45528062  0.56509039
   0.56261690  0.53864762  0.60980250
   0.43738644  0.12205313  0.78622688
   0.68760931  0.78904297  0.87318837
   0.31265018  0.20570922  0.47871135
   0.56228670  0.03810669  0.60958762
   0.18747066  0.95620227  0.34648906
   0.68769559  0.78952001  0.25766680
   0.81281343  0.87246899  0.43503250
   0.06236416  0.20581629  0.47859762
   0.31260720  0.70531342  0.69799226
   0.43738050  0.12133277  0.65355845
   0.31285518  0.87279120  0.30210093
   0.31235661  0.53884530  0.87312630
   0.68769497  0.12172430  0.16880042
   0.56236280  0.87278388  0.30213312
   0.81228415  0.70501658  0.69798903
   0.68763705  0.45615137  0.34643517
   0.06254712  0.53975261  0.25784380
   0.43751550  0.62182335  0.65358349
   0.68744225  0.28860095  0.74222708
   0.56252325  0.03929032  0.25786561
   0.43752429  0.12191563  0.16890034
   0.31259979  0.87131335  0.65368872
   0.06234635  0.53823149  0.60974492
   0.18781248  0.95589511  0.21379625
   0.93755635  0.12174283  0.65359563
   0.43760318  0.45562222  0.47867031
   0.43767318  0.62231450  0.30206829
   0.81273368  0.53933940  0.25779408
   0.06253716  0.70641278  0.34637733
   0.56261567  0.53931351  0.25779501
   0.18736322  0.95505611  0.56505848
   0.18749804  0.45584232  0.83095834
   0.68719313  0.78853431  0.60966151
   0.56223594  0.20510169  0.69799088
   0.06239799  0.20569454  0.21396233
   0.31374699  0.53773776  0.12673986
   0.18697252  0.12164214  0.16887800
   0.31268906  0.37248817  0.43496338
   0.18769584  0.95568635  0.83118014
   0.43735702  0.95551272  0.47861120
   0.31229241  0.03865486  0.74219831
   0.56271846  0.20535325  0.56499459
   0.93758937  0.78923001  0.25783242
   0.06251004  0.70545849  0.47868621
   0.31265902  0.03809653  0.60965152
   0.18777446  0.78841062  0.60969004
   0.06247617  0.20584598  0.83113268
   0.43760526  0.95500886  0.69800202
   0.93662249  0.28853307  0.12688296
   0.18767959  0.78961651  0.87321744
   0.18743051  0.62199992  0.52139438
   0.06256864  0.87100965  0.16869362
   0.81254889  0.37197871  0.65360061
   0.93771045  0.12316147  0.30202818
   0.31257067  0.37173863  0.65367304
   0.81231048  0.03931288  0.25784769
   0.31251462  0.70643555  0.83109766
   0.56268338  0.53935125  0.87313107
   0.31214969  0.53932350  0.25779908
   0.68747087  0.12232659  0.43495256
   0.81260543  0.37301264  0.30200978
   0.81260170  0.37263623  0.43496623
   0.56246345  0.20606234  0.34648875
   0.93761715  0.28928255  0.39034729
   0.81216203  0.53875707  0.74222919
   0.68756743  0.45593447  0.21380298
   0.18839656  0.28860107  0.12685798
   0.43742641  0.28914735  0.39034836
   0.18738898  0.45498561  0.56507705
   0.93754879  0.78860925  0.60973709
   0.93751405  0.45608054  0.34645570
   0.31218409  0.37246045  0.16879110
   0.93735848  0.12242479  0.43489857
   0.43745885  0.78831870  0.60964967
   0.56248236  0.20584823  0.47860560
   0.81248822  0.37190716  0.52135842
   0.68758693  0.28934711  0.25784227
   0.18727140  0.95476079  0.69797795
   0.31265685  0.20627142  0.21384704
   0.81223228  0.87198741  0.65359775
   0.06227546  0.87230096  0.78617229
   0.43743233  0.45574597  0.83099031
   0.06230421  0.37262788  0.43491095
   0.18762334  0.62254374  0.30200937
   0.06223616  0.37197949  0.78627233
   0.93730429  0.95605990  0.34637731
   0.93753471  0.28921594  0.25791748
   0.56260495  0.87259576  0.16867201
   0.68727644  0.62246374  0.30202830
   0.81224257  0.53943201  0.87316199
   0.18750434  0.45624301  0.34638071
   0.43760402  0.62279728  0.16878494
   0.06263520  0.20498198  0.69805012
   0.56267894  0.37179189  0.65366435
   0.81242938  0.20589907  0.83107494
   0.18782234  0.62149067  0.65354495
   0.81271912  0.70507618  0.56505292
   0.68784147  0.12172095  0.65352917
   0.93782587  0.62182384  0.78625140
   0.43719075  0.28897455  0.12673816
   0.06261227  0.53923680  0.39027262
   0.56247701  0.03875546  0.74216290
   0.31225972  0.70495424  0.56503294
   0.68755569  0.62239641  0.43492320
   0.81264462  0.87180647  0.78628740
   0.56247871  0.70535069  0.69790702
   0.31238424  0.03919109  0.87320637
   0.43685157  0.78966446  0.87321388
   0.56255364  0.53840832  0.12668366
   0.31251569  0.20541664  0.69793053
   0.18757986  0.78873629  0.74217117
   0.81251239  0.37184863  0.78625293
   0.31237895  0.03946168  0.39038104
   0.68735978  0.62166822  0.78591961
   0.68862534  0.95623426  0.21399794
   0.06231241  0.37180814  0.65384547
   0.56242620  0.70584490  0.34653079
   0.93728779  0.28844664  0.60959459
   0.06247561  0.70540992  0.21392230
   0.43652266  0.95675931  0.21409397
   0.93750853  0.78937243  0.39020139
   0.06242491  0.53867288  0.12695411
   0.31272335  0.20526122  0.56509012
   0.18755710  0.12243797  0.43494392
   0.43740432  0.28908113  0.25765373
   0.56242384  0.87179136  0.65350715
   0.81291277  0.20537002  0.69799569
   0.31256192  0.87240772  0.78598823
Direct configuration=     2
   0.43760826  0.78958362  0.25774626
   0.43721052  0.95562465  0.83118069
   0.18745687  0.62262811  0.43491518
   0.43735470  0.45530482  0.69793850
   0.56282226  0.70519365  0.56511302
   0.06241974  0.87198410  0.52139642
   0.06251939  0.20624230  0.34631130
   0.93807557  0.78860131  0.12667651
   0.81260633  0.03882735  0.74223840
   0.06261141  0.03927296  0.25772652
   0.06262071  0.03942620  0.39029148
   0.81243700  0.70551627  0.47870224
   0.68742316  0.62199811  0.65367311
   0.68743505  0.12210610  0.78630247
   0.93745155  0.62208018  0.52135283
   0.56245987  0.70622313  0.21375102
   0.81203499  0.03889998  0.12680340
   0.06244964  0.70600463  0.83107317
   0.31267213  0.87198772  0.52139017
   0.93754294  0.45547380  0.47873284
   0.31259852  0.37183034  0.78620512
   0.68750510  0.78853724  0.74218596
   0.93765398  0.45524967  0.56506536
   0.56251193  0.53849946  0.74218699
   0.93755894  0.45619870  0.21375891
   0.18756399  0.45623055  0.21380314
   0.68725101  0.28854754  0.60967908
   0.06258281  0.53867797  0.74213864
   0.31260367  0.53872781  0.74226727
   0.56239687  0.37240580  0.43508725
   0.06254468  0.37253211  0.16883006
   0.81269545  0.70597994  0.34640504
   0.31235362  0.87259126  0.43500245
   0.43758619  0.95563071  0.34639289
   0.81228394  0.87305390  0.30213568
   0.81242203  0.03953512  0.87321115
   0.68744283  0.12195242  0.52128259
   0.06289810  0.03870554  0.60965751
   0.31215632  0.53831867  0.60971551
   0.93750908  0.95475806  0.69805994
   0.06225207  0.70544605  0.56505092
   0.56240762  0.87227450  0.43490729
   0.81127452  0.53768983  0.12675111
   0.68732868  0.62241805  0.16890973
   0.18758494  0.28837341  0.60963553
   0.06252478  0.70484394  0.69788662
   0.56274330  0.70589866  0.83117618
   0.56261915  0.03825301  0.12670819
   0.68751160  0.45631238  0.83106715
   0.81266715  0.03911245  0.39033748
   0.43730613  0.12301292  0.30212408
   0.31242425  0.70590301  0.34646332
   0.93759989  0.95498655  0.56501269
   0.06249989  0.37290545  0.30208540
   0.68748423  0.95596057  0.83107034
   0.43726139  0.62195257  0.78622890
   0.43747196  0.78882970  0.74220422
   0.06245730  0.87277329  0.30204198
   0.06242214  0.87227776  0.43498917
   0.43764490  0.78938585  0.39028273
   0.68738239  0.95485282  0.56500013
   0.93765390  0.95575871  0.47861476
   0.81225318  0.70610689  0.83105912
   0.31251227  0.53918440  0.39031048
   0.56254482  0.87227448  0.78623416
   0.31244274  0.20600795  0.83100407
   0.56254970  0.37274157  0.30209402
   0.93779072  0.78958549  0.87317169
   0.43699445  0.78874358  0.12673960
   0.31254653  0.70548993  0.47866839
   0.68734744  0.95523876  0.69799168
   0.81234369  0.20605745  0.21383336
   0.93746257  0.62292095  0.30203208
   0.06206025  0.03976845  0.87321488
   0.18744281  0.78959850  0.39033435
   0.06274426  0.37201805  0.52139337
   0.43762197  0.62201659  0.52137648
   0.56257204  0.70558603  0.47863432
   0.18733597  0.12287968  0.30211937
   0.18739297  0.12180472  0.65357728
   0.18763080  0.28947670  0.87311089
   0.56244038  0.37250274  0.16885085
   0.93779296  0.12191464  0.16903282
   0.93722041  0.62253968  0.43497791
   0.18735061  0.12197648  0.78622908
   0.68803914  0.78899156  0.12672218
   0.68751716  0.62201572  0.52136833
   0.81280656  0.37233407  0.16883186
   0.93727159  0.78841855  0.74209425
   0.43734145  0.45597822  0.34638900
   0.68717495  0.45500671  0.69802587
   0.31300145  0.87226466  0.16886523
   0.31302279  0.70582185  0.21384321
   0.68714828  0.28902303  0.39035114
   0.18697595  0.62194988  0.16864278
   0.18777674  0.28938861  0.39038407
   0.31244496  0.37225055  0.52141202
   0.56255270  0.20566376  0.83110125
   0.31230919  0.37261015  0.30206163
   0.93724094  0.95582016  0.21377854
   0.56251473  0.37201459  0.78623901
   0.18737735  0.45540191  0.69806652
   0.06261082  0.53932071  0.87308265
   0.43761740  0.45536301  0.56510579
   0.18710109  0.78934151  0.25778642
   0.56244747  0.87185690  0.52133043
   0.81266843  0.20621601  0.34643510
   0.81251639  0.87213289  0.52132742
   0.81238299  0.53928772  0.39027485
   0.43766202  0.28831921  0.60972919
   0.43782341  0.12232376  0.43496432
   0.81208192  0.70561609  0.21382180
   0.18735713  0.45547356  0.47858786
   0.68761199  0.95578359  0.34640329
   0.43765951  0.12171138  0.52139221
   0.93749641  0.45594588  0.83103408
   0.56270013  0.53904283  0.39028713
   0.18746238  0.12189414  0.52124655
   0.81187574  0.87201822  0.16889023
   0.18750188  0.28888746  0.74214988
   0.68781661  0.28906182  0.12671523
   0.56304171  0.03974765  0.87321653
   0.06244514  0.03838603  0.74223171
   0.43723580  0.28931938  0.87311292
   0.31264772  0.03880007  0.12676153
   0.93748674  0.12174816  0.52133464
   0.93754042  0.28876172  0.74214651
   0.68768072  0.12321438  0.30212431
   0.68723871  0.78935416  0.39038160
   0.93770155  0.12223162  0.78627036
   0.31259953  0.03956396  0.25789078
   0.56238782  0.37184637  0.52145846
   0.56261875  0.20641543  0.21373070
   0.18740810  0.62212344  0.78622410
   0.06224600  0.20517029  0.56499718
   0.18737008  0.28939386  0.25788892
   0.93744352  0.62158428  0.65354502
   0.68757949  0.28884422  0.87317835
   0.56247867  0.03922761  0.39037767
   0.06259966  0.87182487  0.65354820
   0.43727508  0.28866823  0.74209850
   0.18765253  0.95524643  0.47864566
   0.93757112  0.95587920  0.83109758
   0.43777950  0.95504801  0.56507754
   0.31234280  0.20614284  0.34641469
   0.93775866  0.45470693  0.69793574
   0.06278689  0.03927814  0.12684516
   0.81250177  0.20511818  0.56505004
   0.81217818  0.03854852  0.60969295
   0.68739340  0.95561410  0.47869013
   0.43782605  0.62234296  0.43494837
   0.81273542  0.53878019  0.60958587
   0.93815435  0.62190029  0.16867041
   0.18700157  0.78884796  0.12665263
   0.81256960  0.20558894  0.47863946
   0.43736564  0.45594114  0.21374265
   0.93749587  0.28932702  0.87315653
   0.68754050  0.45548647  0.47869595
   0.68748414  0.45530753  0.56509425
   0.56261554  0.53865437  0.60980261
   0.43737465  0.12206714  0.78624198
   0.68760639  0.78902673  0.87320987
   0.31265424  0.20569371  0.47871712
   0.56227787  0.03810008  0.60959278
   0.18745021  0.95620397  0.34648257
   0.68769435  0.78949574  0.25768437
   0.81279704  0.87245306  0.43502710
   0.06235441  0.20580767  0.47860567
   0.31263593  0.70532461  0.69799164
   0.43739249  0.12130566  0.65355759
   0.31285425  0.87278244  0.30209550
   0.31235833  0.53882370  0.87314642
   0.68769089  0.12175706  0.16881976
   0.56237597  0.87279413  0.30212126
   0.81226619  0.70502675  0.69799487
   0.68765116  0.45616271  0.34642943
   0.06254465  0.53974568  0.25785400
   0.43752433  0.62184984  0.65358479
   0.68744789  0.28860294  0.74221321
   0.56253734  0.03929938  0.25787544
   0.43753302  0.12195033  0.16891823
   0.31258133  0.87132583  0.65368847
   0.06235151  0.53822772  0.60974446
   0.18776923  0.95589418  0.21378279
   0.93758264  0.12173255  0.65359768
   0.43760961  0.45560145  0.47867322
   0.43766896  0.62229028  0.30206193
   0.81274090  0.53932726  0.25780854
   0.06253759  0.70640272  0.34637664
   0.56262044  0.53930824  0.25780854
   0.18737737  0.95508858  0.56506755
   0.18749584  0.45584818  0.83093810
   0.68719140  0.78854017  0.60966658
   0.56220976  0.20508714  0.69799306
   0.06240058  0.20567392  0.21394563
   0.31373547  0.53773678  0.12671313
   0.18699346  0.12164824  0.16890139
   0.31268195  0.37249122  0.43495464
   0.18768388  0.95568448  0.83115654
   0.43735688  0.95550328  0.47861692
   0.31230207  0.03867984  0.74218481
   0.56273286  0.20534940  0.56499948
   0.93756503  0.78924706  0.25784317
   0.06250476  0.70544443  0.47868925
   0.31267542  0.03806601  0.60965431
   0.18778376  0.78839814  0.60969064
   0.06246325  0.20584997  0.83110898
   0.43760470  0.95499979  0.69800533
   0.93664067  0.28853279  0.12685641
   0.18767738  0.78959594  0.87323979
   0.18743035  0.62201853  0.52138833
   0.06256258  0.87098315  0.16871765
   0.81252126  0.37200267  0.65360032
   0.93770472  0.12318012  0.30202081
   0.31258917  0.37175005  0.65367855
   0.81231724  0.03930123  0.25785754
   0.31252140  0.70640846  0.83107899
   0.56268242  0.53934122  0.87315401
   0.31213902  0.53928885  0.25781482
   0.68747381  0.12232346  0.43494366
   0.81262055  0.37300410  0.30200547
   0.81260696  0.37264402  0.43495970
   0.56247135  0.20607774  0.34648555
   0.93762342  0.28928122  0.39034476
   0.81217612  0.53874422  0.74221755
   0.68757620  0.45590402  0.21378518
   0.18837405  0.28860903  0.12683417
   0.43741626  0.28913541  0.39034575
   0.18738970  0.45499471  0.56508329
   0.93754619  0.78860845  0.60973583
   0.93751049  0.45608265  0.34645431
   0.31217959  0.37246116  0.16881768
   0.93733519  0.12242370  0.43489398
   0.43745105  0.78831401  0.60965534
   0.56248222  0.20582317  0.47861318
   0.81247751  0.37192440  0.52135102
   0.68761526  0.28933701  0.25785480
   0.18727324  0.95477002  0.69798403
   0.31267476  0.20626066  0.21383508
   0.81224756  0.87198993  0.65360264
   0.06224490  0.87233069  0.78618893
   0.43744989  0.45574393  0.83097236
   0.06231416  0.37260661  0.43490378
   0.18762163  0.62253159  0.30200250
   0.06223007  0.37198314  0.78628416
   0.93731476  0.95609528  0.34637947
   0.93752469  0.28921414  0.25792997
   0.56260668  0.87260425  0.16870519
   0.68729020  0.62244376  0.30202310
   0.81224715  0.53941195  0.87318498
   0.18750109  0.45624395  0.34638093
   0.43761372  0.62275192  0.16881250
   0.06267250  0.20495821  0.69805371
   0.56268228  0.37179208  0.65366625
   0.81242502  0.20588432  0.83105335
   0.18781278  0.62146956  0.65354772
   0.81271175  0.70506800  0.56505686
   0.68784069  0.12169558  0.65353422
   0.93784281  0.62184154  0.78626500
   0.43720874  0.28898410  0.12671900
   0.06260606  0.53925987  0.39027037
   0.56247736  0.03874600  0.74215318
   0.31226411  0.70495463  0.56503660
   0.68756959  0.62240805  0.43492335
   0.81263248  0.87181577  0.78630235
   0.56246130  0.70534222  0.69791135
   0.31239718  0.03917509  0.87322985
   0.43687246  0.78964641  0.87323665
   0.56255291  0.53843357  0.12666260
   0.31249964  0.20543241  0.69793142
   0.18757183  0.78872491  0.74215894
   0.81250288  0.37186875  0.78626752
   0.31237952  0.03947401  0.39037882
   0.68737634  0.62168141  0.78593707
   0.68863522  0.95623281  0.21397889
   0.06231517  0.37182911  0.65384042
   0.56243335  0.70582586  0.34652884
   0.93729201  0.28844680  0.60960222
   0.06246714  0.70537018  0.21390957
   0.43651923  0.95675294  0.21407344
   0.93752169  0.78938186  0.39020160
   0.06243122  0.53869254  0.12692752
   0.31271464  0.20522943  0.56509177
   0.18755788  0.12244706  0.43494089
   0.43739755  0.28907031  0.25767134
   0.56242809  0.87179954  0.65350337
   0.81292124  0.20536664  0.69799926
   0.31255615  0.87243038  0.78600650
Direct configuration=     3
   0.43761918  0.78957309  0.25775923
   0.43721363  0.95563421  0.83116235
   0.18745635  0.62262816  0.43491415
   0.43735146  0.45533199  0.69794207
   0.56282052  0.70519958  0.56511444
   0.06241706  0.87199970  0.52139025
   0.06251256  0.20623078  0.34630918
   0.93809521  0.78864267  0.12665870
   0.81260010  0.03881425  0.74223073
   0.06260944  0.03925857  0.25773934
   0.06261081  0.03941852  0.39029155
   0.81242989  0.70550906  0.47870299
   0.68741697  0.62203642  0.65367500
   0.68743982  0.12212779  0.78631232
   0.93744755  0.62209141  0.52134987
   0.56246915  0.70621683  0.21373954
   0.81204875  0.03890867  0.12678722
   0.06245555  0.70600967  0.83105936
   0.31267424  0.87200907  0.52138514
   0.93753979  0.45547242  0.47873378
   0.31260019  0.37183102  0.78621629
   0.68750439  0.78855687  0.74217497
   0.93766051  0.45527652  0.56506771
   0.56251143  0.53848875  0.74217655
   0.93756905  0.45617233  0.21374938
   0.18755224  0.45620521  0.21379162
   0.68723019  0.28855044  0.60968136
   0.06257677  0.53867072  0.74213157
   0.31259889  0.53874327  0.74225547
   0.56239605  0.37240741  0.43508084
   0.06254831  0.37254485  0.16885000
   0.81270927  0.70597207  0.34640349
   0.31234892  0.87259256  0.43499766
   0.43758434  0.95560841  0.34639106
   0.81226520  0.87305164  0.30213037
   0.81241262  0.03950965  0.87322820
   0.68744420  0.12196219  0.52127752
   0.06290348  0.03871361  0.60966193
   0.31214648  0.53831760  0.60971345
   0.93750116  0.95477306  0.69806177
   0.06225468  0.70545117  0.56505723
   0.56240718  0.87226515  0.43490879
   0.81128035  0.53769501  0.12673191
   0.68732260  0.62238506  0.16893026
   0.18760206  0.28838321  0.60964077
   0.06253095  0.70484928  0.69788740
   0.56272718  0.70589278  0.83116052
   0.56261343  0.03827772  0.12669288
   0.68751162  0.45628675  0.83105373
   0.81267040  0.03911199  0.39033411
   0.43730821  0.12299573  0.30212090
   0.31240502  0.70590371  0.34646121
   0.93759756  0.95500753  0.56501732
   0.06249120  0.37288783  0.30208230
   0.68748463  0.95597657  0.83105420
   0.43722293  0.62196268  0.78624080
   0.43749143  0.78883823  0.74219429
   0.06246567  0.87276088  0.30203992
   0.06243334  0.87227656  0.43498171
   0.43763504  0.78938714  0.39028345
   0.68737890  0.95485555  0.56500419
   0.93764818  0.95575606  0.47862069
   0.81225698  0.70609302  0.83104253
   0.31252362  0.53918735  0.39031110
   0.56258127  0.87228849  0.78624489
   0.31244782  0.20599825  0.83098834
   0.56255320  0.37274544  0.30208760
   0.93777773  0.78956945  0.87318674
   0.43701521  0.78875940  0.12672350
   0.31255314  0.70547660  0.47866957
   0.68735304  0.95526326  0.69799412
   0.81232605  0.20605413  0.21382324
   0.93745870  0.62289751  0.30202542
   0.06207366  0.03974892  0.87323125
   0.18745530  0.78960402  0.39033593
   0.06275593  0.37202794  0.52138621
   0.43762596  0.62203206  0.52137199
   0.56257557  0.70557427  0.47863359
   0.18734583  0.12287338  0.30211502
   0.18737202  0.12181426  0.65357751
   0.18763591  0.28946286  0.87312975
   0.56244284  0.37249104  0.16887007
   0.93777831  0.12191262  0.16905061
   0.93721622  0.62252147  0.43497553
   0.18735592  0.12198776  0.78623930
   0.68802206  0.78900960  0.12670709
   0.68751956  0.62202178  0.52136411
   0.81280568  0.37233452  0.16885241
   0.93726173  0.78841349  0.74208496
   0.43733743  0.45598882  0.34638810
   0.68719355  0.45501921  0.69802788
   0.31299301  0.87228346  0.16888588
   0.31304039  0.70580897  0.21383167
   0.68715011  0.28902218  0.39035184
   0.18696273  0.62193085  0.16866586
   0.18777821  0.28939989  0.39038342
   0.31243966  0.37227483  0.52140595
   0.56256167  0.20566726  0.83108623
   0.31230574  0.37260768  0.30205526
   0.93726766  0.95582215  0.21376867
   0.56253190  0.37201572  0.78625113
   0.18737914  0.45542475  0.69806679
   0.06260726  0.53931310  0.87309830
   0.43760027  0.45536088  0.56511362
   0.18710731  0.78935240  0.25779434
   0.56244747  0.87187980  0.52132673
   0.81267464  0.20622385  0.34643184
   0.81251794  0.87214615  0.52132024
   0.81237846  0.53930005  0.39027486
   0.43766446  0.28832388  0.60973025
   0.43783549  0.12232074  0.43496231
   0.81206325  0.70561032  0.21381190
   0.18735748  0.45546685  0.47859219
   0.68762611  0.95577428  0.34640022
   0.43766342  0.12171744  0.52138734
   0.93748469  0.45594440  0.83102074
   0.56269326  0.53903070  0.39028950
   0.18746280  0.12190188  0.52124155
   0.81188712  0.87203819  0.16890932
   0.18749998  0.28888990  0.74214352
   0.68780460  0.28906895  0.12670039
   0.56303059  0.03972015  0.87323178
   0.06243851  0.03837602  0.74222254
   0.43724284  0.28930440  0.87313066
   0.31264527  0.03881415  0.12674480
   0.93748571  0.12175250  0.52132581
   0.93753492  0.28874886  0.74213982
   0.68767536  0.12321401  0.30212256
   0.68722202  0.78934994  0.39038098
   0.93769680  0.12224472  0.78628071
   0.31258742  0.03957557  0.25789752
   0.56239001  0.37186040  0.52145038
   0.56262314  0.20638742  0.21372071
   0.18741737  0.62213750  0.78623596
   0.06223860  0.20516604  0.56499882
   0.18735775  0.28939434  0.25789851
   0.93744629  0.62157080  0.65354618
   0.68757510  0.28883193  0.87319503
   0.56248100  0.03923014  0.39037480
   0.06260055  0.87181819  0.65354885
   0.43727861  0.28866588  0.74209065
   0.18766079  0.95522876  0.47864862
   0.93757367  0.95589146  0.83107978
   0.43777450  0.95506659  0.56508177
   0.31233835  0.20614470  0.34641348
   0.93774098  0.45471104  0.69793788
   0.06277884  0.03931524  0.12682632
   0.81249917  0.20511291  0.56505558
   0.81216760  0.03853491  0.60969331
   0.68739166  0.95560271  0.47869062
   0.43782553  0.62234361  0.43494417
   0.81274798  0.53877229  0.60959011
   0.93816159  0.62188530  0.16869254
   0.18697587  0.78888260  0.12663485
   0.81257281  0.20557520  0.47864445
   0.43736246  0.45593371  0.21372898
   0.93748681  0.28932630  0.87317346
   0.68753904  0.45548353  0.47869940
   0.68749191  0.45532756  0.56509713
   0.56261452  0.53865940  0.60980268
   0.43736587  0.12207758  0.78625322
   0.68760422  0.78901463  0.87322588
   0.31265726  0.20568216  0.47872141
   0.56227130  0.03809515  0.60959663
   0.18743498  0.95620523  0.34647773
   0.68769342  0.78947766  0.25769745
   0.81278484  0.87244120  0.43502308
   0.06234716  0.20580125  0.47861167
   0.31265733  0.70533294  0.69799117
   0.43740141  0.12128547  0.65355695
   0.31285355  0.87277592  0.30209146
   0.31235962  0.53880762  0.87316139
   0.68768785  0.12178145  0.16883416
   0.56238578  0.87280177  0.30211243
   0.81225282  0.70503432  0.69799921
   0.68766167  0.45617114  0.34642515
   0.06254280  0.53974052  0.25786159
   0.43753091  0.62186956  0.65358576
   0.68745208  0.28860443  0.74220288
   0.56254782  0.03930612  0.25788277
   0.43753953  0.12197617  0.16893156
   0.31256759  0.87133512  0.65368828
   0.06235535  0.53822491  0.60974411
   0.18773702  0.95589349  0.21377277
   0.93760222  0.12172490  0.65359921
   0.43761440  0.45558599  0.47867538
   0.43766582  0.62227224  0.30205719
   0.81274628  0.53931822  0.25781932
   0.06253791  0.70639523  0.34637613
   0.56262400  0.53930431  0.25781861
   0.18738790  0.95511275  0.56507430
   0.18749420  0.45585255  0.83092303
   0.68719010  0.78854452  0.60967035
   0.56219027  0.20507630  0.69799469
   0.06240251  0.20565857  0.21393320
   0.31372689  0.53773605  0.12669324
   0.18700904  0.12165277  0.16891881
   0.31267666  0.37249349  0.43494813
   0.18767497  0.95568309  0.83113897
   0.43735679  0.95549625  0.47862119
   0.31230926  0.03869843  0.74217476
   0.56274358  0.20534654  0.56500312
   0.93754691  0.78925976  0.25785118
   0.06250082  0.70543396  0.47869151
   0.31268763  0.03804330  0.60965638
   0.18779069  0.78838885  0.60969108