 288 288   0   0
  0.1280206E+02  0.9726678E-09  0.8423550E-09  0.4500000E-08  0.2500000E-15
  1.000000000000000E-004
  CAR 
 unknown system                          
      6.81671009     -6.01669472  301      4.29364181      1.00000000
     -6.017  0.0000E+00  0.0000E+00
     -5.974  0.0000E+00  0.0000E+00
     -5.931  0.0000E+00  0.0000E+00
     -5.888  0.0000E+00  0.0000E+00
     -5.846  0.0000E+00  0.0000E+00
     -5.803  0.0000E+00  0.0000E+00
     -5.760  0.0000E+00  0.0000E+00
     -5.717  0.0000E+00  0.0000E+00
     -5.674  0.0000E+00  0.0000E+00
     -5.632  0.0000E+00  0.0000E+00
     -5.589  0.0000E+00  0.0000E+00
     -5.546  0.0000E+00  0.0000E+00
     -5.503  0.0000E+00  0.0000E+00
     -5.461  0.0000E+00  0.0000E+00
     -5.418  0.0000E+00  0.0000E+00
     -5.375  0.1622E-15  0.6939E-17
     -5.332  0.4152E-14  0.1846E-15
     -5.289  0.8964E-13  0.4019E-14
     -5.247  0.1636E-11  0.7402E-13
     -5.204  0.2546E-10  0.1163E-11
     -5.161  0.3376E-09  0.1560E-10
     -5.118  0.3814E-08  0.1787E-09
     -5.076  0.3674E-07  0.1750E-08
     -5.033  0.3019E-06  0.1467E-07
     -4.990  0.2119E-05  0.1053E-06
     -4.947  0.1272E-04  0.6494E-06
     -4.904  0.6538E-04  0.3446E-05
     -4.862  0.2886E-03  0.1579E-04
     -4.819  0.1097E-02  0.6273E-04
     -4.776  0.3610E-02  0.2172E-03
     -4.733  0.1034E-01  0.6596E-03
     -4.691  0.2601E-01  0.1772E-02
     -4.648  0.5796E-01  0.4252E-02
     -4.605  0.1157E+00  0.9202E-02
     -4.562  0.2094E+00  0.1816E-01
     -4.519  0.3468E+00  0.3299E-01
     -4.477  0.5304E+00  0.5568E-01
     -4.434  0.7536E+00  0.8792E-01
     -4.391  0.9995E+00  0.1307E+00
     -4.348  0.1243E+01  0.1839E+00
     -4.306  0.1458E+01  0.2462E+00
     -4.263  0.1623E+01  0.3157E+00
     -4.220  0.1731E+01  0.3897E+00
     -4.177  0.1795E+01  0.4665E+00
     -4.134  0.1846E+01  0.5455E+00
     -4.092  0.1923E+01  0.6277E+00
     -4.049  0.2059E+01  0.7158E+00
     -4.006  0.2267E+01  0.8128E+00
     -3.963  0.2530E+01  0.9211E+00
     -3.921  0.2805E+01  0.1041E+01
     -3.878  0.3038E+01  0.1171E+01
     -3.835  0.3181E+01  0.1307E+01
     -3.792  0.3216E+01  0.1445E+01
     -3.749  0.3165E+01  0.1580E+01
     -3.707  0.3081E+01  0.1712E+01
     -3.664  0.3027E+01  0.1841E+01
     -3.621  0.3057E+01  0.1972E+01
     -3.578  0.3191E+01  0.2109E+01
     -3.536  0.3407E+01  0.2254E+01
     -3.493  0.3655E+01  0.2411E+01
     -3.450  0.3878E+01  0.2577E+01
     -3.407  0.4035E+01  0.2749E+01
     -3.364  0.4119E+01  0.2925E+01
     -3.322  0.4145E+01  0.3103E+01
     -3.279  0.4146E+01  0.3280E+01
     -3.236  0.4157E+01  0.3458E+01
     -3.193  0.4205E+01  0.3638E+01
     -3.151  0.4305E+01  0.3822E+01
     -3.108  0.4456E+01  0.4013E+01
     -3.065  0.4645E+01  0.4211E+01
     -3.022  0.4851E+01  0.4419E+01
     -2.979  0.5041E+01  0.4634E+01
     -2.937  0.5190E+01  0.4856E+01
     -2.894  0.5285E+01  0.5083E+01
     -2.851  0.5341E+01  0.5311E+01
     -2.808  0.5386E+01  0.5541E+01
     -2.766  0.5454E+01  0.5775E+01
     -2.723  0.5560E+01  0.6013E+01
     -2.680  0.5677E+01  0.6255E+01
     -2.637  0.5742E+01  0.6501E+01
     -2.594  0.5697E+01  0.6745E+01
     -2.552  0.5548E+01  0.6982E+01
     -2.509  0.5389E+01  0.7213E+01
     -2.466  0.5366E+01  0.7442E+01
     -2.423  0.5599E+01  0.7682E+01
     -2.381  0.6102E+01  0.7943E+01
     -2.338  0.6750E+01  0.8231E+01
     -2.295  0.7333E+01  0.8545E+01
     -2.252  0.7650E+01  0.8872E+01
     -2.209  0.7617E+01  0.9198E+01
     -2.167  0.7315E+01  0.9511E+01
     -2.124  0.6950E+01  0.9809E+01
     -2.081  0.6756E+01  0.1010E+02
     -2.038  0.6876E+01  0.1039E+02
     -1.996  0.7304E+01  0.1070E+02
     -1.953  0.7898E+01  0.1104E+02
     -1.910  0.8454E+01  0.1140E+02
     -1.867  0.8806E+01  0.1178E+02
     -1.824  0.8901E+01  0.1216E+02
     -1.782  0.8814E+01  0.1254E+02
     -1.739  0.8692E+01  0.1291E+02
     -1.696  0.8666E+01  0.1328E+02
     -1.653  0.8785E+01  0.1366E+02
     -1.611  0.9015E+01  0.1404E+02
     -1.568  0.9289E+01  0.1444E+02
     -1.525  0.9567E+01  0.1485E+02
     -1.482  0.9839E+01  0.1527E+02
     -1.439  0.1010E+02  0.1570E+02
     -1.397  0.1032E+02  0.1614E+02
     -1.354  0.1045E+02  0.1659E+02
     -1.311  0.1054E+02  0.1704E+02
     -1.268  0.1071E+02  0.1750E+02
     -1.226  0.1118E+02  0.1798E+02
     -1.183  0.1207E+02  0.1849E+02
     -1.140  0.1328E+02  0.1906E+02
     -1.097  0.1450E+02  0.1968E+02
     -1.054  0.1535E+02  0.2034E+02
     -1.012  0.1566E+02  0.2101E+02
     -0.969  0.1560E+02  0.2168E+02
     -0.926  0.1556E+02  0.2234E+02
     -0.883  0.1596E+02  0.2302E+02
     -0.841  0.1699E+02  0.2375E+02
     -0.798  0.1862E+02  0.2455E+02
     -0.755  0.2072E+02  0.2543E+02
     -0.712  0.2334E+02  0.2643E+02
     -0.669  0.2665E+02  0.2757E+02
     -0.627  0.3079E+02  0.2889E+02
     -0.584  0.3560E+02  0.3041E+02
     -0.541  0.4053E+02  0.3215E+02
     -0.498  0.4490E+02  0.3407E+02
     -0.456  0.4833E+02  0.3613E+02
     -0.413  0.5084E+02  0.3831E+02
     -0.370  0.5272E+02  0.4056E+02
     -0.327  0.5427E+02  0.4289E+02
     -0.284  0.5554E+02  0.4526E+02
     -0.242  0.5645E+02  0.4768E+02
     -0.199  0.5693E+02  0.5011E+02
     -0.156  0.5700E+02  0.5255E+02
     -0.113  0.5687E+02  0.5498E+02
     -0.071  0.5680E+02  0.5741E+02
     -0.028  0.5706E+02  0.5985E+02
      0.015  0.5787E+02  0.6233E+02
      0.058  0.5939E+02  0.6487E+02
      0.101  0.6168E+02  0.6751E+02
      0.143  0.6466E+02  0.7027E+02
      0.186  0.6815E+02  0.7319E+02
      0.229  0.7190E+02  0.7627E+02
      0.272  0.7564E+02  0.7950E+02
      0.314  0.7905E+02  0.8288E+02
      0.357  0.8190E+02  0.8639E+02
      0.400  0.8409E+02  0.8998E+02
      0.443  0.8565E+02  0.9365E+02
      0.486  0.8670E+02  0.9736E+02
      0.528  0.8727E+02  0.1011E+03
      0.571  0.8733E+02  0.1048E+03
      0.614  0.8693E+02  0.1085E+03
      0.657  0.8613E+02  0.1122E+03
      0.699  0.8499E+02  0.1159E+03
      0.742  0.8351E+02  0.1194E+03
      0.785  0.8168E+02  0.1229E+03
      0.828  0.7964E+02  0.1263E+03
      0.871  0.7773E+02  0.1297E+03
      0.913  0.7635E+02  0.1329E+03
      0.956  0.7572E+02  0.1362E+03
      0.999  0.7576E+02  0.1394E+03
      1.042  0.7611E+02  0.1427E+03
      1.084  0.7633E+02  0.1459E+03
      1.127  0.7616E+02  0.1492E+03
      1.170  0.7559E+02  0.1524E+03
      1.213  0.7480E+02  0.1556E+03
      1.256  0.7400E+02  0.1588E+03
      1.298  0.7329E+02  0.1619E+03
      1.341  0.7260E+02  0.1650E+03
      1.384  0.7175E+02  0.1681E+03
      1.427  0.7055E+02  0.1711E+03
      1.469  0.6897E+02  0.1741E+03
      1.512  0.6728E+02  0.1769E+03
      1.555  0.6604E+02  0.1798E+03
      1.598  0.6581E+02  0.1826E+03
      1.641  0.6688E+02  0.1854E+03
      1.683  0.6912E+02  0.1884E+03
      1.726  0.7209E+02  0.1915E+03
      1.769  0.7530E+02  0.1947E+03
      1.812  0.7842E+02  0.1981E+03
      1.854  0.8132E+02  0.2015E+03
      1.897  0.8393E+02  0.2051E+03
      1.940  0.8624E+02  0.2088E+03
      1.983  0.8829E+02  0.2126E+03
      2.026  0.9014E+02  0.2165E+03
      2.068  0.9182E+02  0.2204E+03
      2.111  0.9326E+02  0.2244E+03
      2.154  0.9442E+02  0.2284E+03
      2.197  0.9541E+02  0.2325E+03
      2.239  0.9661E+02  0.2366E+03
      2.282  0.9848E+02  0.2408E+03
      2.325  0.1013E+03  0.2452E+03
      2.368  0.1052E+03  0.2497E+03
      2.411  0.1096E+03  0.2544E+03
      2.453  0.1141E+03  0.2592E+03
      2.496  0.1180E+03  0.2643E+03
      2.539  0.1212E+03  0.2695E+03
      2.582  0.1237E+03  0.2748E+03
      2.624  0.1257E+03  0.2801E+03
      2.667  0.1276E+03  0.2856E+03
      2.710  0.1296E+03  0.2911E+03
      2.753  0.1317E+03  0.2968E+03
      2.796  0.1342E+03  0.3025E+03
      2.838  0.1369E+03  0.3084E+03
      2.881  0.1397E+03  0.3143E+03
      2.924  0.1416E+03  0.3204E+03
      2.967  0.1418E+03  0.3265E+03
      3.009  0.1395E+03  0.3324E+03
      3.052  0.1342E+03  0.3382E+03
      3.095  0.1266E+03  0.3436E+03
      3.138  0.1177E+03  0.3486E+03
      3.181  0.1087E+03  0.3533E+03
      3.223  0.1008E+03  0.3576E+03
      3.266  0.9449E+02  0.3616E+03
      3.309  0.9007E+02  0.3655E+03
      3.352  0.8724E+02  0.3692E+03
      3.394  0.8556E+02  0.3729E+03
      3.437  0.8461E+02  0.3765E+03
      3.480  0.8401E+02  0.3801E+03
      3.523  0.8346E+02  0.3837E+03
      3.566  0.8284E+02  0.3872E+03
      3.608  0.8234E+02  0.3907E+03
      3.651  0.8246E+02  0.3943E+03
      3.694  0.8371E+02  0.3978E+03
      3.737  0.8637E+02  0.4015E+03
      3.779  0.9022E+02  0.4054E+03
      3.822  0.9469E+02  0.4094E+03
      3.865  0.9907E+02  0.4137E+03
      3.908  0.1029E+03  0.4181E+03
      3.951  0.1058E+03  0.4226E+03
      3.993  0.1079E+03  0.4272E+03
      4.036  0.1090E+03  0.4319E+03
      4.079  0.1093E+03  0.4366E+03
      4.122  0.1087E+03  0.4412E+03
      4.164  0.1077E+03  0.4458E+03
      4.207  0.1065E+03  0.4504E+03
      4.250  0.1051E+03  0.4549E+03
      4.293  0.1038E+03  0.4593E+03
      4.336  0.1027E+03  0.4637E+03
      4.378  0.1019E+03  0.4681E+03
      4.421  0.1015E+03  0.4724E+03
      4.464  0.1010E+03  0.4767E+03
      4.507  0.1003E+03  0.4810E+03
      4.549  0.9923E+02  0.4853E+03
      4.592  0.9798E+02  0.4895E+03
      4.635  0.9712E+02  0.4936E+03
      4.678  0.9713E+02  0.4978E+03
      4.721  0.9823E+02  0.5020E+03
      4.763  0.1003E+03  0.5063E+03
      4.806  0.1028E+03  0.5107E+03
      4.849  0.1054E+03  0.5152E+03
      4.892  0.1076E+03  0.5198E+03
      4.934  0.1090E+03  0.5244E+03
      4.977  0.1093E+03  0.5291E+03
      5.020  0.1078E+03  0.5337E+03
      5.063  0.1037E+03  0.5382E+03
      5.106  0.9606E+02  0.5423E+03
      5.148  0.8427E+02  0.5459E+03
      5.191  0.6891E+02  0.5488E+03
      5.234  0.5178E+02  0.5510E+03
      5.277  0.3534E+02  0.5525E+03
      5.319  0.2171E+02  0.5535E+03
      5.362  0.1192E+02  0.5540E+03
      5.405  0.5826E+01  0.5542E+03
      5.448  0.2527E+01  0.5543E+03
      5.491  0.9710E+00  0.5544E+03
      5.533  0.3305E+00  0.5544E+03
      5.576  0.9970E-01  0.5544E+03
      5.619  0.2667E-01  0.5544E+03
      5.662  0.6332E-02  0.5544E+03
      5.704  0.1334E-02  0.5544E+03
      5.747  0.2488E-03  0.5544E+03
      5.790  0.4101E-04  0.5544E+03
      5.833  0.5947E-05  0.5544E+03
      5.876  0.7553E-06  0.5544E+03
      5.918  0.8363E-07  0.5544E+03
      5.961  0.8036E-08  0.5544E+03
      6.004  0.6675E-09  0.5544E+03
      6.047  0.4777E-10  0.5544E+03
      6.089  0.2936E-11  0.5544E+03
      6.132  0.1542E-12  0.5544E+03
      6.175  0.6618E-14  0.5544E+03
      6.218  0.2595E-15  0.5544E+03
      6.261  0.0000E+00  0.5544E+03
      6.303  0.0000E+00  0.5544E+03
      6.346  0.0000E+00  0.5544E+03
      6.389  0.0000E+00  0.5544E+03
      6.432  0.0000E+00  0.5544E+03
      6.474  0.0000E+00  0.5544E+03
      6.517  0.0000E+00  0.5544E+03
      6.560  0.0000E+00  0.5544E+03
      6.603  0.0000E+00  0.5544E+03
      6.646  0.0000E+00  0.5544E+03
      6.688  0.0000E+00  0.5544E+03
      6.731  0.0000E+00  0.5544E+03
      6.774  0.0000E+00  0.5544E+03
      6.817  0.0000E+00  0.5544E+03
