<?xml version="1.0" encoding="ISO-8859-1"?>
<modeling>
 <generator>
  <i name="program" type="string">vasp </i>
  <i name="version" type="string">5.4.4.18Apr17-6-g9f103f2a35  </i>
  <i name="subversion" type="string">(build Sep 27 2018 12:46:37) complex + VL-xray_ parallel </i>
  <i name="platform" type="string">LLNL_Quartz_ifc </i>
  <i name="date" type="string">2021 09 26 </i>
  <i name="time" type="string">19:15:37 </i>
 </generator>
 <incar>
  <i type="int" name="ISTART">     2</i>
  <i type="string" name="PREC">accurate</i>
  <i type="string" name="ALGO"> Fast</i>
  <i type="int" name="ICHARG">     2</i>
  <i type="int" name="INIWAV">     1</i>
  <i type="int" name="NELM">   200</i>
  <i type="int" name="NELMIN">     4</i>
  <i type="int" name="IBRION">     2</i>
  <i name="EDIFF">      0.00000100</i>
  <i type="int" name="NSW">     5</i>
  <i type="int" name="ISIF">     2</i>
  <i type="int" name="ISYM">     2</i>
  <i name="ENCUT">    450.00000000</i>
  <i name="POTIM">      0.25000000</i>
  <i type="string" name="LREAL"> Auto</i>
  <i type="int" name="ISMEAR">     0</i>
  <i name="SIGMA">      0.15000000</i>
  <i type="logical" name="LWAVE"> F  </i>
  <i type="logical" name="LCHARG"> F  </i>
  <i type="int" name="ICORELEVEL">     0</i>
  <i type="int" name="CLNT">     1</i>
  <i type="int" name="CLN">     1</i>
  <i type="int" name="INCAR     ">     0</i>
  <i name="CLZ">      0.00000000</i>
  <v type="int" name="KPOINT_BSE">    -1     0     0     0</v>
  <i type="int" name="NELM">   200</i>
 </incar>
 <structure name="primitive_cell" >
  <crystal>
   <varray name="basis" >
    <v>       9.72667804       0.00000000       0.00000000 </v>
    <v>       0.00000000       8.42355028       0.00000000 </v>
    <v>       0.00000000       0.00000000      45.00000000 </v>
   </varray>
   <i name="volume">   3686.99226691 </i>
   <varray name="rec_basis" >
    <v>       0.10281002       0.00000000       0.00000000 </v>
    <v>       0.00000000       0.11871479       0.00000000 </v>
    <v>       0.00000000       0.00000000       0.02222222 </v>
   </varray>
  </crystal>
  <varray name="positions" >
   <v>       0.05395252      -0.29888787       0.21121715 </v>
   <v>      -0.05986942      -0.21254326       0.25520933 </v>
   <v>       0.06523450      -0.46216891       0.25502356 </v>
   <v>      -0.05866812      -0.38778263       0.16645343 </v>
   <v>       0.06728285      -0.13739882       0.16659719 </v>
   <v>       0.30369014      -0.29891086       0.21121730 </v>
   <v>      -0.19592277      -0.29904128       0.21123074 </v>
   <v>      -0.07095623       0.45120700       0.21126889 </v>
   <v>      -0.07061447      -0.04859692       0.21122307 </v>
   <v>       0.17855001      -0.04855054       0.21131436 </v>
   <v>       0.17945197       0.45105328       0.21128924 </v>
   <v>       0.19043073      -0.21198359       0.25530942 </v>
   <v>       0.19201825      -0.38778974       0.16653645 </v>
   <v>      -0.18269891      -0.13797570       0.16659461 </v>
   <v>      -0.18406240      -0.46190948       0.25533797 </v>
   <v>       0.06508391       0.03740915       0.25505363 </v>
   <v>       0.06688752       0.36251790       0.16657807 </v>
   <v>       0.31514971      -0.46225727       0.25515562 </v>
   <v>       0.31799217      -0.13737395       0.16574699 </v>
   <v>      -0.30888441      -0.21257089       0.25528568 </v>
   <v>      -0.30839971      -0.38764330       0.16646149 </v>
   <v>      -0.06442897      -0.21759828       0.12417716 </v>
   <v>      -0.05838945       0.11225083       0.16649674 </v>
   <v>      -0.05958910       0.28762722       0.25514510 </v>
   <v>      -0.18470039       0.03755653       0.25506656 </v>
   <v>       0.18638225      -0.21745833       0.12422395 </v>
   <v>      -0.18308340       0.36226326       0.16669202 </v>
   <v>       0.05725317      -0.47381623       0.12401051 </v>
   <v>       0.17852624      -0.37652252       0.29940181 </v>
   <v>      -0.32080901       0.45117912       0.21130450 </v>
   <v>       0.42876724       0.45126075       0.21131318 </v>
   <v>       0.05439167       0.20087414       0.21124998 </v>
   <v>      -0.32091085      -0.04850056       0.21128319 </v>
   <v>      -0.07181058      -0.37679324       0.29959425 </v>
   <v>       0.42965901      -0.04891142       0.21135196 </v>
   <v>       0.19143217       0.11133778       0.16641369 </v>
   <v>       0.19030889       0.28722348       0.25513674 </v>
   <v>       0.05277537      -0.12579072       0.29954379 </v>
   <v>       0.31525067       0.03761535       0.25513120 </v>
   <v>       0.44029342      -0.21254115       0.25513287 </v>
   <v>       0.31694189       0.36216318       0.16657453 </v>
   <v>       0.44140253      -0.38770257       0.16644851 </v>
   <v>       0.05785572       0.02694877       0.12402443 </v>
   <v>      -0.19272874      -0.47295640       0.12386249 </v>
   <v>       0.05309856       0.37367937       0.29944488 </v>
   <v>      -0.19513100       0.20122626       0.21117101 </v>
   <v>      -0.44594162      -0.29883789       0.21115442 </v>
   <v>       0.30734300      -0.47287648       0.12390100 </v>
   <v>       0.30509849       0.20054306       0.21107963 </v>
   <v>      -0.19694644      -0.12658372       0.29938334 </v>
   <v>       0.30314202      -0.12608284       0.29958669 </v>
   <v>      -0.43455709      -0.46201929       0.25515664 </v>
   <v>      -0.43353265      -0.13762258       0.16648877 </v>
   <v>      -0.30847009       0.11223025       0.16659964 </v>
   <v>      -0.31255248      -0.21788877       0.12420423 </v>
   <v>      -0.30903873       0.28754923       0.25532113 </v>
   <v>      -0.19056723       0.02794917       0.12398279 </v>
   <v>       0.30901348       0.02643211       0.12393992 </v>
   <v>      -0.06492089       0.28220051       0.12409918 </v>
   <v>       0.30290738       0.37381479       0.29954400 </v>
   <v>      -0.19676693       0.37336269       0.29946865 </v>
   <v>       0.18534216       0.28297215       0.12424588 </v>
   <v>       0.42845481      -0.37649826       0.29939271 </v>
   <v>      -0.32225861      -0.37631440       0.29952745 </v>
   <v>       0.43646476      -0.21687084       0.12395643 </v>
   <v>       0.17836687       0.12411697       0.29954913 </v>
   <v>      -0.07206301       0.12362894       0.29961920 </v>
   <v>       0.44077144       0.28737366       0.25503955 </v>
   <v>       0.44154470       0.11126570       0.16635582 </v>
   <v>      -0.43489526       0.03782127       0.25509551 </v>
   <v>      -0.43275091       0.36194165       0.16659056 </v>
   <v>       0.06515211      -0.29123268       0.34396042 </v>
   <v>      -0.31402157       0.28254813       0.12409197 </v>
   <v>      -0.44132514      -0.47313052       0.12397061 </v>
   <v>      -0.18544796      -0.29109668       0.34388694 </v>
   <v>      -0.05966040       0.45939694       0.34405476 </v>
   <v>      -0.44501718       0.20067192       0.21103596 </v>
   <v>      -0.44760106      -0.12695815       0.29965698 </v>
   <v>       0.43640149       0.28305081       0.12416788 </v>
   <v>       0.19010454       0.45895067       0.34406281 </v>
   <v>      -0.05982312      -0.04068737       0.34400801 </v>
   <v>       0.42856132       0.12357648       0.29943656 </v>
   <v>      -0.32233978       0.12358851       0.29953192 </v>
   <v>       0.31501392      -0.29083377       0.34393216 </v>
   <v>       0.18972547      -0.04113348       0.34393481 </v>
   <v>      -0.44031037       0.02794169       0.12383184 </v>
   <v>      -0.44676612       0.37404396       0.29955651 </v>
   <v>      -0.31036115       0.45870697       0.34391134 </v>
   <v>       0.06452386       0.20868101       0.34379283 </v>
   <v>      -0.31002539      -0.04124649       0.34399239 </v>
   <v>       0.44010915       0.45828128       0.34412746 </v>
   <v>       0.44003010      -0.04161074       0.34401778 </v>
   <v>      -0.43521044      -0.29104488       0.34393715 </v>
   <v>      -0.18527461       0.20797072       0.34399947 </v>
   <v>       0.31458115       0.20878108       0.34389777 </v>
   <v>       0.06180203      -0.45859504       0.38842273 </v>
   <v>      -0.06348714      -0.20867819       0.38846298 </v>
   <v>       0.18605963      -0.20896674       0.38836017 </v>
   <v>      -0.18878432      -0.45848485       0.38831990 </v>
   <v>       0.31146141      -0.45893284       0.38843638 </v>
   <v>       0.06140560       0.04140508       0.38837673 </v>
   <v>      -0.43520425       0.20890153       0.34394625 </v>
   <v>      -0.06357371       0.29129452       0.38849892 </v>
   <v>      -0.31347680      -0.20884328       0.38840342 </v>
   <v>       0.18621544       0.29116189       0.38834107 </v>
   <v>      -0.18839648       0.04198126       0.38831692 </v>
   <v>       0.43642332      -0.20878585       0.38838970 </v>
   <v>       0.31132792       0.04168870       0.38845960 </v>
   <v>      -0.31346764       0.29120903       0.38842820 </v>
   <v>      -0.43811161      -0.45863175       0.38855611 </v>
   <v>       0.43617866       0.29082405       0.38845101 </v>
   <v>      -0.43843787       0.04126699       0.38842544 </v>
   <v>      -0.06714028      -0.37514378       0.43320000 </v>
   <v>       0.18315820      -0.37500770       0.43313992 </v>
   <v>       0.05834370      -0.12514228       0.43307540 </v>
   <v>       0.05843623       0.37491852       0.43308789 </v>
   <v>      -0.19146177      -0.12490124       0.43310996 </v>
   <v>       0.30834854      -0.12502544       0.43311740 </v>
   <v>      -0.19138154       0.37529678       0.43308074 </v>
   <v>      -0.31652775      -0.37523784       0.43308418 </v>
   <v>       0.30881170       0.37514059       0.43302379 </v>
   <v>       0.43322838      -0.37502293       0.43313477 </v>
   <v>      -0.06657862       0.12437782       0.43307364 </v>
   <v>       0.18338213       0.12472396       0.43304508 </v>
   <v>      -0.44139274      -0.12483428       0.43309740 </v>
   <v>      -0.31630600       0.12504126       0.43293110 </v>
   <v>       0.43350112       0.12479765       0.43306060 </v>
   <v>      -0.44136473       0.37515144       0.43306953 </v>
   <v>       0.06793653      -0.28937729       0.47747827 </v>
   <v>      -0.05738224       0.46055727       0.47728396 </v>
   <v>      -0.18214902      -0.28924005       0.47748934 </v>
   <v>      -0.05733124      -0.03947397       0.47728777 </v>
   <v>       0.19265702       0.46057685       0.47750702 </v>
   <v>       0.31772743      -0.28961763       0.47732762 </v>
   <v>       0.19272605      -0.03920391       0.47750931 </v>
   <v>      -0.30715800       0.46078784       0.47747417 </v>
   <v>       0.06800089       0.21063883       0.47748554 </v>
   <v>      -0.30715774      -0.03929449       0.47746188 </v>
   <v>       0.44267091       0.46081342       0.47752392 </v>
   <v>       0.44272580      -0.03930409       0.47748115 </v>
   <v>      -0.18223395       0.21073746       0.47747357 </v>
   <v>      -0.43237379      -0.28937867       0.47748742 </v>
   <v>       0.31786354       0.21046882       0.47732045 </v>
   <v>      -0.43220763       0.21061050       0.47750343 </v>
   <v>       0.05728051      -0.46084752      -0.47744034 </v>
   <v>      -0.06777823      -0.21109932      -0.47744527 </v>
   <v>       0.18229271      -0.21056378      -0.47744688 </v>
   <v>      -0.19278071      -0.46070433      -0.47741441 </v>
   <v>       0.30701393      -0.46124610      -0.47751842 </v>
   <v>       0.05714187       0.03911874      -0.47745925 </v>
   <v>      -0.06754726       0.28839373      -0.47764167 </v>
   <v>      -0.31817271      -0.21101532      -0.47751674 </v>
   <v>       0.18244351       0.28918459      -0.47745130 </v>
   <v>       0.30706876       0.03835142      -0.47771054 </v>
   <v>       0.43210631      -0.21097633      -0.47763208 </v>
   <v>      -0.19273819       0.03928585      -0.47744305 </v>
   <v>      -0.31765354       0.28864578      -0.47765046 </v>
   <v>      -0.44276751      -0.46090425      -0.47744269 </v>
   <v>       0.43241735       0.28870530      -0.47768087 </v>
   <v>       0.06763729      -0.27669632      -0.12376605 </v>
   <v>      -0.44268669       0.03888219      -0.47755950 </v>
   <v>      -0.18329751      -0.27622428      -0.12364933 </v>
   <v>      -0.06035727       0.46845237      -0.12390483 </v>
   <v>       0.18978533       0.46814192      -0.12391024 </v>
   <v>      -0.06020180      -0.03163190      -0.12389290 </v>
   <v>       0.31817186      -0.27624441      -0.12374781 </v>
   <v>       0.18974743      -0.03199332      -0.12390958 </v>
   <v>       0.06813120       0.22301845      -0.12383543 </v>
   <v>      -0.31019710       0.46796164      -0.12390808 </v>
   <v>      -0.31027521      -0.03157416      -0.12391120 </v>
   <v>       0.43989753       0.46800430      -0.12406150 </v>
   <v>       0.43965310      -0.03180648      -0.12390800 </v>
   <v>      -0.18246709       0.22380213      -0.12383012 </v>
   <v>      -0.43244459      -0.27531431      -0.12376623 </v>
   <v>       0.31733401       0.22363816      -0.12388339 </v>
   <v>      -0.05829844      -0.37475118      -0.43318929 </v>
   <v>       0.06675423      -0.12487143      -0.43311766 </v>
   <v>       0.19169961      -0.37503810      -0.43310693 </v>
   <v>      -0.18346885      -0.12493432      -0.43309789 </v>
   <v>       0.06666183       0.37499272      -0.43310441 </v>
   <v>       0.31652534      -0.12521905      -0.43313891 </v>
   <v>      -0.43165976       0.22388645      -0.12385394 </v>
   <v>      -0.30844756      -0.37501242      -0.43308822 </v>
   <v>      -0.18344985       0.37508595      -0.43311395 </v>
   <v>      -0.05837757       0.12516663      -0.43317441 </v>
   <v>       0.31647939       0.37497861      -0.43313261 </v>
   <v>       0.19165516       0.12500459      -0.43308492 </v>
   <v>       0.44166067      -0.37504710      -0.43310889 </v>
   <v>      -0.43340241      -0.12509570      -0.43314233 </v>
   <v>      -0.30843668       0.12504135      -0.43309146 </v>
   <v>       0.44149549       0.12505685      -0.43307347 </v>
   <v>      -0.43334128       0.37503068      -0.43313725 </v>
   <v>      -0.06606146      -0.36245024      -0.16608899 </v>
   <v>       0.18320103      -0.36227373      -0.16640598 </v>
   <v>       0.05849089      -0.11216285      -0.16644068 </v>
   <v>       0.05871129       0.38812323      -0.16642911 </v>
   <v>      -0.19150389      -0.11240893      -0.16647538 </v>
   <v>       0.30858177      -0.11226069      -0.16639390 </v>
   <v>      -0.19183720       0.38765066      -0.16648349 </v>
   <v>       0.30850113       0.38756733      -0.16651081 </v>
   <v>      -0.31636298      -0.36215299      -0.16649422 </v>
   <v>       0.43368776      -0.36208916      -0.16648230 </v>
   <v>      -0.06642433       0.13760605      -0.16648327 </v>
   <v>       0.18384144       0.13787890      -0.16643461 </v>
   <v>      -0.44132830      -0.11241062      -0.16650388 </v>
   <v>      -0.31647297       0.13781499      -0.16645107 </v>
   <v>       0.43359640       0.13786497      -0.16649164 </v>
   <v>      -0.44121357       0.38761604      -0.16649643 </v>
   <v>       0.06332931      -0.29145420      -0.38838110 </v>
   <v>      -0.18650642      -0.29134543      -0.38839562 </v>
   <v>      -0.06178230       0.45841050      -0.38836689 </v>
   <v>       0.18829482       0.45860251      -0.38849438 </v>
   <v>      -0.06181753      -0.04160050      -0.38850114 </v>
   <v>       0.18828107      -0.04147247      -0.38852780 </v>
   <v>       0.31360510      -0.29133111      -0.38841583 </v>
   <v>      -0.31176562       0.45845115      -0.38847374 </v>
   <v>       0.06352500       0.20862163      -0.38844971 </v>
   <v>      -0.31157783      -0.04124866      -0.38850936 </v>
   <v>       0.43839836       0.45854414      -0.38841090 </v>
   <v>       0.43844871      -0.04113752      -0.38843057 </v>
   <v>      -0.18659755       0.20852604      -0.38844172 </v>
   <v>      -0.43644343      -0.29129806      -0.38845177 </v>
   <v>       0.31318012       0.20835188      -0.38850470 </v>
   <v>      -0.05547140      -0.20041500      -0.21113348 </v>
   <v>       0.07054602      -0.45057828      -0.21125778 </v>
   <v>       0.19449636      -0.20058350      -0.21117900 </v>
   <v>      -0.43716210       0.20807575      -0.38867446 </v>
   <v>      -0.18005237      -0.45071981      -0.21106613 </v>
   <v>       0.31976666      -0.45040206      -0.21107691 </v>
   <v>       0.06942547       0.04938522      -0.21099147 </v>
   <v>      -0.05492114       0.29880238      -0.21122363 </v>
   <v>      -0.30501919      -0.20063729      -0.21110009 </v>
   <v>      -0.18075447       0.04962564      -0.21093304 </v>
   <v>       0.19479521       0.29898733      -0.21121789 </v>
   <v>       0.44467607      -0.20072191      -0.21114935 </v>
   <v>       0.32000436       0.04947481      -0.21112422 </v>
   <v>      -0.43015661      -0.45031848      -0.21095979 </v>
   <v>      -0.30487656       0.29901880      -0.21122184 </v>
   <v>       0.44477230       0.29902461      -0.21118035 </v>
   <v>      -0.43071096       0.04973961      -0.21101651 </v>
   <v>       0.05977285      -0.45924447      -0.34410037 </v>
   <v>      -0.06524248      -0.20937024      -0.34409693 </v>
   <v>       0.18481679      -0.20937280      -0.34411343 </v>
   <v>      -0.19024460      -0.45928678      -0.34418255 </v>
   <v>       0.30980350      -0.45936589      -0.34405856 </v>
   <v>       0.06005548       0.04043935      -0.34398108 </v>
   <v>      -0.06521418       0.29094546      -0.34412215 </v>
   <v>      -0.31536128      -0.20964571      -0.34410921 </v>
   <v>       0.18465625       0.29065273      -0.34410840 </v>
   <v>      -0.19024823       0.04063308      -0.34409364 </v>
   <v>       0.43456045      -0.20949691      -0.34404955 </v>
   <v>       0.30984054       0.04079150      -0.34409584 </v>
   <v>      -0.44024377      -0.45943088      -0.34410787 </v>
   <v>      -0.31502083       0.29086942      -0.34394208 </v>
   <v>       0.43502934       0.29081214      -0.34392564 </v>
   <v>      -0.44046152       0.04078111      -0.34413833 </v>
   <v>       0.05930127      -0.28769504      -0.25498167 </v>
   <v>      -0.06556051       0.46259188      -0.25504136 </v>
   <v>       0.18444896       0.46244224      -0.25510411 </v>
   <v>      -0.19003908      -0.28813470      -0.25515400 </v>
   <v>       0.30978339      -0.28785499      -0.25519369 </v>
   <v>      -0.06664754      -0.03772396      -0.25533368 </v>
   <v>       0.18385857      -0.03747873      -0.25525759 </v>
   <v>       0.05987719       0.21270716      -0.25507031 </v>
   <v>      -0.31582811       0.46286195      -0.25506479 </v>
   <v>       0.43464585       0.46276425      -0.25513654 </v>
   <v>      -0.31552351      -0.03730576      -0.25513274 </v>
   <v>       0.43385786      -0.03738969      -0.25523280 </v>
   <v>       0.30969432       0.21238479      -0.25506680 </v>
   <v>      -0.18951161       0.21153265      -0.25539727 </v>
   <v>      -0.44019965      -0.28806593      -0.25513980 </v>
   <v>      -0.43983215       0.21233767      -0.25518996 </v>
   <v>      -0.05315294      -0.37356193      -0.29949684 </v>
   <v>       0.07234994      -0.12357589      -0.29963761 </v>
   <v>       0.19709829      -0.37375736      -0.29966277 </v>
   <v>      -0.17788708      -0.12390058      -0.29956001 </v>
   <v>       0.07195951       0.37631301      -0.29949227 </v>
   <v>       0.32194288      -0.12364810      -0.29945208 </v>
   <v>      -0.17805903       0.37630477      -0.29977536 </v>
   <v>      -0.30296027      -0.37371286      -0.29955940 </v>
   <v>      -0.05289049       0.12631244      -0.29963721 </v>
   <v>       0.32243602       0.37635287      -0.29956772 </v>
   <v>       0.19710099       0.12625389      -0.29963500 </v>
   <v>       0.44691537      -0.37373190      -0.29960762 </v>
   <v>      -0.42848858      -0.12372340      -0.29943380 </v>
   <v>      -0.30278827       0.12632642      -0.29955531 </v>
   <v>       0.44723287       0.12595243      -0.29958880 </v>
   <v>      -0.42769230       0.37633826      -0.29959337 </v>
  </varray>
 </structure>
 <varray name="primitive_index" >
  <v type="int" >        1 </v>
  <v type="int" >      238 </v>
  <v type="int" >      220 </v>
  <v type="int" >      193 </v>
  <v type="int" >      208 </v>
  <v type="int" >      192 </v>
  <v type="int" >       81 </v>
  <v type="int" >      242 </v>
  <v type="int" >       71 </v>
  <v type="int" >      109 </v>
  <v type="int" >       10 </v>
  <v type="int" >       89 </v>
  <v type="int" >       35 </v>
  <v type="int" >       32 </v>
  <v type="int" >      288 </v>
  <v type="int" >      263 </v>
  <v type="int" >       55 </v>
  <v type="int" >      243 </v>
  <v type="int" >      283 </v>
  <v type="int" >      128 </v>
  <v type="int" >      117 </v>
  <v type="int" >      155 </v>
  <v type="int" >      158 </v>
  <v type="int" >      252 </v>
  <v type="int" >      222 </v>
  <v type="int" >      262 </v>
  <v type="int" >      183 </v>
  <v type="int" >      265 </v>
  <v type="int" >      162 </v>
  <v type="int" >      205 </v>
  <v type="int" >       28 </v>
  <v type="int" >      160 </v>
  <v type="int" >      161 </v>
  <v type="int" >       38 </v>
  <v type="int" >       15 </v>
  <v type="int" >      126 </v>
  <v type="int" >       45 </v>
  <v type="int" >      147 </v>
  <v type="int" >      278 </v>
  <v type="int" >      226 </v>
  <v type="int" >      255 </v>
  <v type="int" >      227 </v>
  <v type="int" >       48 </v>
  <v type="int" >       14 </v>
  <v type="int" >       26 </v>
  <v type="int" >       70 </v>
  <v type="int" >      251 </v>
  <v type="int" >      197 </v>
  <v type="int" >       61 </v>
  <v type="int" >      277 </v>
  <v type="int" >      108 </v>
  <v type="int" >       33 </v>
  <v type="int" >      191 </v>
  <v type="int" >       90 </v>
  <v type="int" >       25 </v>
  <v type="int" >      203 </v>
  <v type="int" >       99 </v>
  <v type="int" >       23 </v>
  <v type="int" >      133 </v>
  <v type="int" >       52 </v>
  <v type="int" >      104 </v>
  <v type="int" >      189 </v>
  <v type="int" >      100 </v>
  <v type="int" >      144 </v>
  <v type="int" >       83 </v>
  <v type="int" >      142 </v>
  <v type="int" >      145 </v>
  <v type="int" >        5 </v>
  <v type="int" >      143 </v>
  <v type="int" >      261 </v>
  <v type="int" >      122 </v>
  <v type="int" >      112 </v>
  <v type="int" >      267 </v>
  <v type="int" >       43 </v>
  <v type="int" >      118 </v>
  <v type="int" >      190 </v>
  <v type="int" >       63 </v>
  <v type="int" >      286 </v>
  <v type="int" >      279 </v>
  <v type="int" >      120 </v>
  <v type="int" >       92 </v>
  <v type="int" >      169 </v>
  <v type="int" >      170 </v>
  <v type="int" >      257 </v>
  <v type="int" >      254 </v>
  <v type="int" >      214 </v>
  <v type="int" >      124 </v>
  <v type="int" >       34 </v>
  <v type="int" >      153 </v>
  <v type="int" >       24 </v>
  <v type="int" >       95 </v>
  <v type="int" >      236 </v>
  <v type="int" >      123 </v>
  <v type="int" >      172 </v>
  <v type="int" >      258 </v>
  <v type="int" >      247 </v>
  <v type="int" >      198 </v>
  <v type="int" >      229 </v>
  <v type="int" >       86 </v>
  <v type="int" >       57 </v>
  <v type="int" >      246 </v>
  <v type="int" >       50 </v>
  <v type="int" >      273 </v>
  <v type="int" >      156 </v>
  <v type="int" >      105 </v>
  <v type="int" >       17 </v>
  <v type="int" >       79 </v>
  <v type="int" >      134 </v>
  <v type="int" >      232 </v>
  <v type="int" >      171 </v>
  <v type="int" >      248 </v>
  <v type="int" >      244 </v>
  <v type="int" >      282 </v>
  <v type="int" >      168 </v>
  <v type="int" >      211 </v>
  <v type="int" >      256 </v>
  <v type="int" >       46 </v>
  <v type="int" >      240 </v>
  <v type="int" >       29 </v>
  <v type="int" >       94 </v>
  <v type="int" >      215 </v>
  <v type="int" >      281 </v>
  <v type="int" >      285 </v>
  <v type="int" >      223 </v>
  <v type="int" >      239 </v>
  <v type="int" >      115 </v>
  <v type="int" >      184 </v>
  <v type="int" >      136 </v>
  <v type="int" >       62 </v>
  <v type="int" >      166 </v>
  <v type="int" >      268 </v>
  <v type="int" >      179 </v>
  <v type="int" >      132 </v>
  <v type="int" >      217 </v>
  <v type="int" >      176 </v>
  <v type="int" >      249 </v>
  <v type="int" >      185 </v>
  <v type="int" >       91 </v>
  <v type="int" >       19 </v>
  <v type="int" >      130 </v>
  <v type="int" >      206 </v>
  <v type="int" >      207 </v>
  <v type="int" >      175 </v>
  <v type="int" >       11 </v>
  <v type="int" >      178 </v>
  <v type="int" >      116 </v>
  <v type="int" >      107 </v>
  <v type="int" >      241 </v>
  <v type="int" >      230 </v>
  <v type="int" >      218 </v>
  <v type="int" >      209 </v>
  <v type="int" >       18 </v>
  <v type="int" >      225 </v>
  <v type="int" >      266 </v>
  <v type="int" >      187 </v>
  <v type="int" >       93 </v>
  <v type="int" >       87 </v>
  <v type="int" >      141 </v>
  <v type="int" >      111 </v>
  <v type="int" >       58 </v>
  <v type="int" >      181 </v>
  <v type="int" >      101 </v>
  <v type="int" >      151 </v>
  <v type="int" >      125 </v>
  <v type="int" >      274 </v>
  <v type="int" >        2 </v>
  <v type="int" >      154 </v>
  <v type="int" >      212 </v>
  <v type="int" >       27 </v>
  <v type="int" >      234 </v>
  <v type="int" >      173 </v>
  <v type="int" >       97 </v>
  <v type="int" >       41 </v>
  <v type="int" >      131 </v>
  <v type="int" >       39 </v>
  <v type="int" >       72 </v>
  <v type="int" >       12 </v>
  <v type="int" >      148 </v>
  <v type="int" >      276 </v>
  <v type="int" >      250 </v>
  <v type="int" >       40 </v>
  <v type="int" >       13 </v>
  <v type="int" >      264 </v>
  <v type="int" >      146 </v>
  <v type="int" >      259 </v>
  <v type="int" >      216 </v>
  <v type="int" >      233 </v>
  <v type="int" >       21 </v>
  <v type="int" >       98 </v>
  <v type="int" >      235 </v>
  <v type="int" >       68 </v>
  <v type="int" >       16 </v>
  <v type="int" >       59 </v>
  <v type="int" >       66 </v>
  <v type="int" >      177 </v>
  <v type="int" >        6 </v>
  <v type="int" >       75 </v>
  <v type="int" >        7 </v>
  <v type="int" >       73 </v>
  <v type="int" >      150 </v>
  <v type="int" >      271 </v>
  <v type="int" >      152 </v>
  <v type="int" >      129 </v>
  <v type="int" >      188 </v>
  <v type="int" >      174 </v>
  <v type="int" >      221 </v>
  <v type="int" >      269 </v>
  <v type="int" >      103 </v>
  <v type="int" >      180 </v>
  <v type="int" >       82 </v>
  <v type="int" >      245 </v>
  <v type="int" >      194 </v>
  <v type="int" >      201 </v>
  <v type="int" >       51 </v>
  <v type="int" >      280 </v>
  <v type="int" >      102 </v>
  <v type="int" >      228 </v>
  <v type="int" >        3 </v>
  <v type="int" >        4 </v>
  <v type="int" >      260 </v>
  <v type="int" >      167 </v>
  <v type="int" >       30 </v>
  <v type="int" >       77 </v>
  <v type="int" >      149 </v>
  <v type="int" >      284 </v>
  <v type="int" >       36 </v>
  <v type="int" >      275 </v>
  <v type="int" >      106 </v>
  <v type="int" >       60 </v>
  <v type="int" >       67 </v>
  <v type="int" >      199 </v>
  <v type="int" >       88 </v>
  <v type="int" >      253 </v>
  <v type="int" >       54 </v>
  <v type="int" >      114 </v>
  <v type="int" >       85 </v>
  <v type="int" >      121 </v>
  <v type="int" >      182 </v>
  <v type="int" >      127 </v>
  <v type="int" >       44 </v>
  <v type="int" >      196 </v>
  <v type="int" >      157 </v>
  <v type="int" >      113 </v>
  <v type="int" >       42 </v>
  <v type="int" >       49 </v>
  <v type="int" >      135 </v>
  <v type="int" >       69 </v>
  <v type="int" >      210 </v>
  <v type="int" >      200 </v>
  <v type="int" >      213 </v>
  <v type="int" >       53 </v>
  <v type="int" >      186 </v>
  <v type="int" >       31 </v>
  <v type="int" >       76 </v>
  <v type="int" >      159 </v>
  <v type="int" >      140 </v>
  <v type="int" >      204 </v>
  <v type="int" >      119 </v>
  <v type="int" >      110 </v>
  <v type="int" >      202 </v>
  <v type="int" >       84 </v>
  <v type="int" >      287 </v>
  <v type="int" >      237 </v>
  <v type="int" >        9 </v>
  <v type="int" >      137 </v>
  <v type="int" >       78 </v>
  <v type="int" >       80 </v>
  <v type="int" >       20 </v>
  <v type="int" >       64 </v>
  <v type="int" >       96 </v>
  <v type="int" >      272 </v>
  <v type="int" >      138 </v>
  <v type="int" >      164 </v>
  <v type="int" >      195 </v>
  <v type="int" >       74 </v>
  <v type="int" >      163 </v>
  <v type="int" >       65 </v>
  <v type="int" >      219 </v>
  <v type="int" >      231 </v>
  <v type="int" >       56 </v>
  <v type="int" >      139 </v>
  <v type="int" >      270 </v>
  <v type="int" >      165 </v>
  <v type="int" >        8 </v>
  <v type="int" >       22 </v>
  <v type="int" >      224 </v>
  <v type="int" >       37 </v>
  <v type="int" >       47 </v>
 </varray>
 <kpoints>
  <generation param="Gamma">
   <v type="int" name="divisions">       4        4        1 </v>
   <v name="usershift">      0.00000000       0.00000000       0.00000000 </v>
   <v name="genvec1">      0.25000000       0.00000000       0.00000000 </v>
   <v name="genvec2">      0.00000000       0.25000000       0.00000000 </v>
   <v name="genvec3">      0.00000000       0.00000000       1.00000000 </v>
   <v name="shift">      0.00000000       0.00000000       0.00000000 </v>
  </generation>
  <varray name="kpointlist" >
   <v>       0.00000000       0.00000000       0.00000000 </v>
   <v>       0.25000000       0.00000000       0.00000000 </v>
   <v>       0.50000000       0.00000000       0.00000000 </v>
   <v>       0.00000000       0.25000000       0.00000000 </v>
   <v>       0.25000000       0.25000000       0.00000000 </v>
   <v>       0.50000000       0.25000000       0.00000000 </v>
   <v>      -0.25000000       0.25000000       0.00000000 </v>
   <v>       0.00000000       0.50000000       0.00000000 </v>
   <v>       0.25000000       0.50000000       0.00000000 </v>
   <v>       0.50000000       0.50000000       0.00000000 </v>
  </varray>
  <varray name="weights" >
   <v>       0.06250000 </v>
   <v>       0.12500000 </v>
   <v>       0.06250000 </v>
   <v>       0.12500000 </v>
   <v>       0.12500000 </v>
   <v>       0.12500000 </v>
   <v>       0.12500000 </v>
   <v>       0.06250000 </v>
   <v>       0.12500000 </v>
   <v>       0.06250000 </v>
  </varray>
 </kpoints>
 <parameters>
  <separator name="general" >
   <i type="string" name="SYSTEM">unknown system</i>
   <i type="logical" name="LCOMPAT"> F  </i>
  </separator>
  <separator name="electronic" >
   <i type="string" name="PREC">accura</i>
   <i name="ENMAX">    450.00000000</i>
   <i name="ENAUG">    838.43500000</i>
   <i name="EDIFF">      0.00000100</i>
   <i type="int" name="IALGO">    68</i>
   <i type="int" name="IWAVPR">    11</i>
   <i type="int" name="NBANDS">  1386</i>
   <i name="NELECT">   2297.00000000</i>
   <i type="int" name="TURBO">     0</i>
   <i type="int" name="IRESTART">     0</i>
   <i type="int" name="NREBOOT">     0</i>
   <i type="int" name="NMIN">     0</i>
   <i name="EREF">      0.00000000</i>
   <separator name="electronic smearing" >
    <i type="int" name="ISMEAR">     0</i>
    <i name="SIGMA">      0.15000000</i>
    <i name="KSPACING">      0.50000000</i>
    <i type="logical" name="KGAMMA"> T  </i>
   </separator>
   <separator name="electronic projectors" >
    <i type="logical" name="LREAL"> T  </i>
    <v name="ROPT">     -0.00025000     -0.00025000</v>
    <i type="int" name="LMAXPAW">  -100</i>
    <i type="int" name="LMAXMIX">     2</i>
    <i type="logical" name="NLSPLINE"> F  </i>
   </separator>
   <separator name="electronic startup" >
    <i type="int" name="ISTART">     0</i>
    <i type="int" name="ICHARG">     2</i>
    <i type="int" name="INIWAV">     1</i>
   </separator>
   <separator name="electronic spin" >
    <i type="int" name="ISPIN">     1</i>
    <i type="logical" name="LNONCOLLINEAR"> F  </i>
    <v name="MAGMOM">      1.00000000      1.00000000      1.00000000      1.00000000      1.00000000      1.00000000      1.00000000      1.00000000      1.00000000      1.00000000      1.00000000      1.00000000      1.00000000      1.00000000      1.00000000      1.00000000      1.00000000      1.00000000      1.00000000      1.00000000
      1.00000000      1.00000000      1.00000000      1.00000000      1.00000000      1.00000000      1.00000000      1.00000000      1.00000000      1.00000000      1.00000000      1.00000000      1.00000000      1.00000000      1.00000000      1.00000000      1.00000000      1.00000000      1.00000000      1.00000000
      1.00000000      1.00000000      1.00000000      1.00000000      1.00000000      1.00000000      1.00000000      1.00000000      1.00000000      1.00000000      1.00000000      1.00000000      1.00000000      1.00000000      1.00000000      1.00000000      1.00000000      1.00000000      1.00000000      1.00000000
      1.00000000      1.00000000      1.00000000      1.00000000      1.00000000      1.00000000      1.00000000      1.00000000      1.00000000      1.00000000      1.00000000      1.00000000      1.00000000      1.00000000      1.00000000      1.00000000      1.00000000      1.00000000      1.00000000      1.00000000
      1.00000000      1.00000000      1.00000000      1.00000000      1.00000000      1.00000000      1.00000000      1.00000000      1.00000000      1.00000000      1.00000000      1.00000000      1.00000000      1.00000000      1.00000000      1.00000000      1.00000000      1.00000000      1.00000000      1.00000000
      1.00000000      1.00000000      1.00000000      1.00000000      1.00000000      1.00000000      1.00000000      1.00000000      1.00000000      1.00000000      1.00000000      1.00000000      1.00000000      1.00000000      1.00000000      1.00000000      1.00000000      1.00000000      1.00000000      1.00000000
      1.00000000      1.00000000      1.00000000      1.00000000      1.00000000      1.00000000      1.00000000      1.00000000      1.00000000      1.00000000      1.00000000      1.00000000      1.00000000      1.00000000      1.00000000      1.00000000      1.00000000      1.00000000      1.00000000      1.00000000
      1.00000000      1.00000000      1.00000000      1.00000000      1.00000000      1.00000000      1.00000000      1.00000000      1.00000000      1.00000000      1.00000000      1.00000000      1.00000000      1.00000000      1.00000000      1.00000000      1.00000000      1.00000000      1.00000000      1.00000000
      1.00000000      1.00000000      1.00000000      1.00000000      1.00000000      1.00000000      1.00000000      1.00000000      1.00000000      1.00000000      1.00000000      1.00000000      1.00000000      1.00000000      1.00000000      1.00000000      1.00000000      1.00000000      1.00000000      1.00000000
      1.00000000      1.00000000      1.00000000      1.00000000      1.00000000      1.00000000      1.00000000      1.00000000      1.00000000      1.00000000      1.00000000      1.00000000      1.00000000      1.00000000      1.00000000      1.00000000      1.00000000      1.00000000      1.00000000      1.00000000
      1.00000000      1.00000000      1.00000000      1.00000000      1.00000000      1.00000000      1.00000000      1.00000000      1.00000000      1.00000000      1.00000000      1.00000000      1.00000000      1.00000000      1.00000000      1.00000000      1.00000000      1.00000000      1.00000000      1.00000000
      1.00000000      1.00000000      1.00000000      1.00000000      1.00000000      1.00000000      1.00000000      1.00000000      1.00000000      1.00000000      1.00000000      1.00000000      1.00000000      1.00000000      1.00000000      1.00000000      1.00000000      1.00000000      1.00000000      1.00000000
      1.00000000      1.00000000      1.00000000      1.00000000      1.00000000      1.00000000      1.00000000      1.00000000      1.00000000      1.00000000      1.00000000      1.00000000      1.00000000      1.00000000      1.00000000      1.00000000      1.00000000      1.00000000      1.00000000      1.00000000
      1.00000000      1.00000000      1.00000000      1.00000000      1.00000000      1.00000000      1.00000000      1.00000000      1.00000000      1.00000000      1.00000000      1.00000000      1.00000000      1.00000000      1.00000000      1.00000000      1.00000000      1.00000000      1.00000000      1.00000000
      1.00000000      1.00000000      1.00000000      1.00000000      1.00000000      1.00000000      1.00000000      1.00000000</v>
    <i name="NUPDOWN">     -1.00000000</i>
    <i type="logical" name="LSORBIT"> F  </i>
    <v name="SAXIS">      0.00000000      0.00000000      1.00000000</v>
    <i type="logical" name="LSPIRAL"> F  </i>
    <v name="QSPIRAL">      0.00000000      0.00000000      0.00000000</v>
    <i type="logical" name="LZEROZ"> F  </i>
   </separator>
   <separator name="electronic exchange-correlation" >
    <i type="logical" name="LASPH"> F  </i>
    <i type="logical" name="LMETAGGA"> F  </i>
   </separator>
   <separator name="electronic convergence" >
    <i type="int" name="NELM">   200</i>
    <i type="int" name="NELMDL">     0</i>
    <i type="int" name="NELMIN">     4</i>
    <i name="ENINI">    450.00000000</i>
    <separator name="electronic convergence detail" >
     <i type="logical" name="LDIAG"> T  </i>
     <i type="logical" name="LSUBROT"> F  </i>
     <i name="WEIMIN">      0.00100000</i>
     <i name="EBREAK">      0.00000000</i>
     <i name="DEPER">      0.30000000</i>
     <i type="int" name="NRMM">     4</i>
     <i name="TIME">      0.40000000</i>
    </separator>
   </separator>
   <separator name="electronic mixer" >
    <i name="AMIX">      0.40000000</i>
    <i name="BMIX">      1.00000000</i>
    <i name="AMIN">      0.10000000</i>
    <i name="AMIX_MAG">      1.60000000</i>
    <i name="BMIX_MAG">      1.00000000</i>
    <separator name="electronic mixer details" >
     <i type="int" name="IMIX">     4</i>
     <i type="logical" name="MIXFIRST"> F  </i>
     <i type="int" name="MAXMIX">   -45</i>
     <i name="WC">    100.00000000</i>
     <i type="int" name="INIMIX">     1</i>
     <i type="int" name="MIXPRE">     1</i>
     <i type="int" name="MREMOVE">     5</i>
    </separator>
   </separator>
   <separator name="electronic dipolcorrection" >
    <i type="logical" name="LDIPOL"> F  </i>
    <i type="logical" name="LMONO"> F  </i>
    <i type="int" name="IDIPOL">     0</i>
    <i name="EPSILON">      1.00000000</i>
    <v name="DIPOL">   -100.00000000   -100.00000000   -100.00000000</v>
    <i name="EFIELD">      0.00000000</i>
   </separator>
  </separator>
  <separator name="grids" >
   <i type="int" name="NGX">    70</i>
   <i type="int" name="NGY">    60</i>
   <i type="int" name="NGZ">   320</i>
   <i type="int" name="NGXF">   140</i>
   <i type="int" name="NGYF">   120</i>
   <i type="int" name="NGZF">   640</i>
   <i type="logical" name="ADDGRID"> F  </i>
  </separator>
  <separator name="ionic" >
   <i type="int" name="NSW">     5</i>
   <i type="int" name="IBRION">     2</i>
   <i type="int" name="MDALGO">     0</i>
   <i type="int" name="ISIF">     2</i>
   <i name="PSTRESS">      0.00000000</i>
   <i name="EDIFFG">      0.00001000</i>
   <i type="int" name="NFREE">     1</i>
   <i name="POTIM">      0.25000000</i>
   <i name="SMASS">     -3.00000000</i>
   <i name="SCALEE">      1.00000000</i>
  </separator>
  <separator name="ionic md" >
   <i name="TEBEG">      0.00010000</i>
   <i name="TEEND">      0.00010000</i>
   <i type="int" name="NBLOCK">     1</i>
   <i type="int" name="KBLOCK">     5</i>
   <i type="int" name="NPACO">   256</i>
   <i name="APACO">     16.00000000</i>
  </separator>
  <separator name="symmetry" >
   <i type="int" name="ISYM">     2</i>
   <i name="SYMPREC">      0.00001000</i>
  </separator>
  <separator name="dos" >
   <i type="int" name="LORBIT">     0</i>
   <v name="RWIGS">     -1.00000000     -1.00000000</v>
   <i type="int" name="NEDOS">   301</i>
   <i name="EMIN">     10.00000000</i>
   <i name="EMAX">    -10.00000000</i>
   <i name="EFERMI">      0.00000000</i>
  </separator>
  <separator name="writing" >
   <i type="int" name="NWRITE">     2</i>
   <i type="logical" name="LWAVE"> F  </i>
   <i type="logical" name="LDOWNSAMPLE"> F  </i>
   <i type="logical" name="LCHARG"> F  </i>
   <i type="logical" name="LPARD"> F  </i>
   <i type="logical" name="LVTOT"> F  </i>
   <i type="logical" name="LVHAR"> F  </i>
   <i type="logical" name="LELF"> F  </i>
   <i type="logical" name="LOPTICS"> F  </i>
   <v name="STM">      0.00000000      0.00000000      0.00000000      0.00000000      0.00000000      0.00000000      0.00000000</v>
  </separator>
  <separator name="performance" >
   <i type="int" name="NPAR">    14</i>
   <i type="int" name="NSIM">     4</i>
   <i type="int" name="NBLK">    -1</i>
   <i type="logical" name="LPLANE"> T  </i>
   <i type="logical" name="LSCALAPACK"> T  </i>
   <i type="logical" name="LSCAAWARE"> T  </i>
   <i type="logical" name="LSCALU"> F  </i>
   <i type="logical" name="LASYNC"> F  </i>
   <i type="logical" name="LORBITALREAL"> F  </i>
  </separator>
  <separator name="miscellaneous" >
   <i type="int" name="IDIOT">     3</i>
   <i type="int" name="ISPECIAL">     0</i>
   <i type="logical" name="LMUSIC"> F  </i>
   <v name="POMASS">     55.84700000     54.93800000</v>
   <v name="DARWINR">      0.00000000      0.00000000</v>
   <v name="DARWINV">      1.00000000      1.00000000</v>
   <i type="logical" name="LCORR"> T  </i>
  </separator>
  <i type="logical" name="GGA_COMPAT"> T  </i>
  <i type="logical" name="LBERRY"> F  </i>
  <i type="int" name="ICORELEVEL">     0</i>
  <i type="logical" name="LDAU"> F  </i>
  <i type="int" name="I_CONSTRAINED_M">     0</i>
  <separator name="electronic exchange-correlation" >
   <i type="string" name="GGA">--</i>
   <i type="int" name="VOSKOWN">     0</i>
   <i type="logical" name="LHFCALC"> F  </i>
   <i type="string" name="PRECFOCK"></i>
   <i type="logical" name="LSYMGRAD"> F  </i>
   <i type="logical" name="LHFONE"> F  </i>
   <i type="logical" name="LRHFCALC"> F  </i>
   <i type="logical" name="LTHOMAS"> F  </i>
   <i type="logical" name="LMODELHF"> F  </i>
   <i name="ENCUT4O">     -1.00000000</i>
   <i type="int" name="EXXOEP">     0</i>
   <i type="int" name="FOURORBIT">     0</i>
   <i name="AEXX">      0.00000000</i>
   <i name="HFALPHA">      0.00000000</i>
   <i name="MCALPHA">      0.00000000</i>
   <i name="ALDAX">      1.00000000</i>
   <i name="AGGAX">      1.00000000</i>
   <i name="ALDAC">      1.00000000</i>
   <i name="AGGAC">      1.00000000</i>
   <i type="int" name="NKREDX">     1</i>
   <i type="int" name="NKREDY">     1</i>
   <i type="int" name="NKREDZ">     1</i>
   <i type="logical" name="SHIFTRED"> F  </i>
   <i type="logical" name="ODDONLY"> F  </i>
   <i type="logical" name="EVENONLY"> F  </i>
   <i type="int" name="LMAXFOCK">     0</i>
   <i type="int" name="NMAXFOCKAE">     0</i>
   <i type="logical" name="LFOCKAEDFT"> F  </i>
   <i name="HFSCREEN">      0.00000000</i>
   <i name="HFSCREENC">      0.00000000</i>
   <i type="int" name="NBANDSGWLOW">     0</i>
  </separator>
  <separator name="vdW DFT" >
   <i type="logical" name="LUSE_VDW"> F  </i>
   <i name="Zab_VDW">     -0.84910000</i>
   <i name="PARAM1">      0.12340000</i>
   <i name="PARAM2">      1.00000000</i>
   <i name="PARAM3">      0.00000000</i>
  </separator>
  <separator name="model GW" >
   <i type="int" name="MODEL_GW">     0</i>
   <i name="MODEL_EPS0">      7.68123389</i>
   <i name="MODEL_ALPHA">      1.00000000</i>
  </separator>
  <separator name="linear response parameters" >
   <i type="logical" name="LEPSILON"> F  </i>
   <i type="logical" name="LRPA"> F  </i>
   <i type="logical" name="LNABLA"> F  </i>
   <i type="logical" name="LVEL"> F  </i>
   <i type="int" name="KINTER">     0</i>
   <i name="CSHIFT">      0.10000000</i>
   <i name="OMEGAMAX">     -1.00000000</i>
   <i name="DEG_THRESHOLD">      0.00200000</i>
   <i name="RTIME">     -0.10000000</i>
   <i name="WPLASMAI">      0.00000000</i>
   <v name="DFIELD">      0.00000000      0.00000000      0.00000000</v>
   <v name="WPLASMA">      0.00000000      0.00000000      0.00000000      0.00000000      0.00000000      0.00000000      0.00000000      0.00000000      0.00000000</v>
  </separator>
  <separator name="orbital magnetization" >
   <i type="logical" name="NUCIND"> F  </i>
   <v name="MAGPOS">      0.00000000      0.00000000      0.00000000</v>
   <i type="logical" name="LNICSALL"> T  </i>
   <i type="logical" name="ORBITALMAG"> F  </i>
   <i type="logical" name="LMAGBLOCH"> F  </i>
   <i type="logical" name="LCHIMAG"> F  </i>
   <i type="logical" name="LGAUGE"> T  </i>
   <i type="int" name="MAGATOM">     0</i>
   <v name="MAGDIPOL">      0.00000000      0.00000000      0.00000000</v>
   <v name="AVECCONST">      0.00000000      0.00000000      0.00000000</v>
  </separator>
  <separator name="response functions" >
   <i type="logical" name="LADDER"> F  </i>
   <i type="logical" name="LRPAFORCE"> F  </i>
   <i type="logical" name="LFXC"> F  </i>
   <i type="logical" name="LHARTREE"> T  </i>
   <i type="int" name="IBSE">     0</i>
   <v type="int" name="KPOINT">    -1     0     0     0</v>
   <i type="logical" name="LTCTE"> F  </i>
   <i type="logical" name="LTETE"> F  </i>
   <i type="logical" name="LTRIPLET"> F  </i>
   <i type="logical" name="LFXCEPS"> F  </i>
   <i type="logical" name="LFXHEG"> F  </i>
   <i type="int" name="NATURALO">     2</i>
   <i type="logical" name="L2ORDER"> F  </i>
   <i type="logical" name="LMP2LT"> F  </i>
   <i type="logical" name="LUSEW"> F  </i>
   <i name="ENCUTGW">     -2.00000000</i>
   <i name="ENCUTGWSOFT">     -2.00000000</i>
   <i name="ENCUTLF">     -1.00000000</i>
   <i type="int" name="LMAXMP2">    -1</i>
   <i name="SCISSOR">      0.00000000</i>
   <i type="int" name="NOMEGA">     0</i>
   <i type="int" name="NOMEGAR">     0</i>
   <i type="int" name="NBANDSGW">    -1</i>
   <i type="int" name="NBANDSO">    -1</i>
   <i type="int" name="NBANDSV">    -1</i>
   <i type="int" name="NELM">   200</i>
   <i type="int" name="NELMHF">     1</i>
   <i type="int" name="DIM">     3</i>
   <i type="int" name="ANTIRES">     0</i>
   <i name="OMEGAMAX">    -30.00000000</i>
   <i name="OMEGAMIN">    -30.00000000</i>
   <i name="OMEGATL">   -200.00000000</i>
   <i type="int" name="OMEGAGRID">   140</i>
   <i name="CSHIFT">     -0.10000000</i>
   <i type="logical" name="SELFENERGY"> F  </i>
   <i type="logical" name="LSPECTRAL"> F  </i>
   <i type="logical" name="LSPECTRALGW"> F  </i>
   <i type="logical" name="LSINGLES"> F  </i>
   <i type="logical" name="LFERMIGW"> F  </i>
   <i type="logical" name="ODDONLYGW"> F  </i>
   <i type="logical" name="EVENONLYGW"> F  </i>
   <i type="int" name="NKREDLFX">     1</i>
   <i type="int" name="NKREDLFY">     1</i>
   <i type="int" name="NKREDLFZ">     1</i>
   <i type="int" name="MAXMEM">  2800</i>
   <i type="int" name="TELESCOPE">     0</i>
   <i type="int" name="TAUPAR">     1</i>
   <i type="int" name="OMEGAPAR">    -1</i>
   <i name="LAMBDA">      1.00000000</i>
  </separator>
  <separator name="External order field" >
   <i name="OFIELD_KAPPA">      0.00000000</i>
   <v name="OFIELD_K">      0.00000000      0.00000000      0.00000000</v>
   <i name="OFIELD_Q6_NEAR">      0.00000000</i>
   <i name="OFIELD_Q6_FAR">      0.00000000</i>
   <i name="OFIELD_A">      0.00000000</i>
  </separator>
 </parameters>
 <atominfo>
  <atoms>     288 </atoms>
  <types>       2 </types>
  <array name="atoms" >
   <dimension dim="1">ion</dimension>
   <field type="string">element</field>
   <field type="int">atomtype</field>
   <set>
    <rc><c>Fe</c><c>   1</c></rc>
    <rc><c>Fe</c><c>   1</c></rc>
    <rc><c>Fe</c><c>   1</c></rc>
    <rc><c>Fe</c><c>   1</c></rc>
    <rc><c>Fe</c><c>   1</c></rc>
    <rc><c>Fe</c><c>   1</c></rc>
    <rc><c>Fe</c><c>   1</c></rc>
    <rc><c>Fe</c><c>   1</c></rc>
    <rc><c>Fe</c><c>   1</c></rc>
    <rc><c>Fe</c><c>   1</c></rc>
    <rc><c>Fe</c><c>   1</c></rc>
    <rc><c>Fe</c><c>   1</c></rc>
    <rc><c>Fe</c><c>   1</c></rc>
    <rc><c>Fe</c><c>   1</c></rc>
    <rc><c>Fe</c><c>   1</c></rc>
    <rc><c>Fe</c><c>   1</c></rc>
    <rc><c>Fe</c><c>   1</c></rc>
    <rc><c>Fe</c><c>   1</c></rc>
    <rc><c>Fe</c><c>   1</c></rc>
    <rc><c>Fe</c><c>   1</c></rc>
    <rc><c>Fe</c><c>   1</c></rc>
    <rc><c>Fe</c><c>   1</c></rc>
    <rc><c>Fe</c><c>   1</c></rc>
    <rc><c>Fe</c><c>   1</c></rc>
    <rc><c>Fe</c><c>   1</c></rc>
    <rc><c>Fe</c><c>   1</c></rc>
    <rc><c>Fe</c><c>   1</c></rc>
    <rc><c>Fe</c><c>   1</c></rc>
    <rc><c>Fe</c><c>   1</c></rc>
    <rc><c>Fe</c><c>   1</c></rc>
    <rc><c>Fe</c><c>   1</c></rc>
    <rc><c>Fe</c><c>   1</c></rc>
    <rc><c>Fe</c><c>   1</c></rc>
    <rc><c>Fe</c><c>   1</c></rc>
    <rc><c>Fe</c><c>   1</c></rc>
    <rc><c>Fe</c><c>   1</c></rc>
    <rc><c>Fe</c><c>   1</c></rc>
    <rc><c>Fe</c><c>   1</c></rc>
    <rc><c>Fe</c><c>   1</c></rc>
    <rc><c>Fe</c><c>   1</c></rc>
    <rc><c>Fe</c><c>   1</c></rc>
    <rc><c>Fe</c><c>   1</c></rc>
    <rc><c>Fe</c><c>   1</c></rc>
    <rc><c>Fe</c><c>   1</c></rc>
    <rc><c>Fe</c><c>   1</c></rc>
    <rc><c>Fe</c><c>   1</c></rc>
    <rc><c>Fe</c><c>   1</c></rc>
    <rc><c>Fe</c><c>   1</c></rc>
    <rc><c>Fe</c><c>   1</c></rc>
    <rc><c>Fe</c><c>   1</c></rc>
    <rc><c>Fe</c><c>   1</c></rc>
    <rc><c>Fe</c><c>   1</c></rc>
    <rc><c>Fe</c><c>   1</c></rc>
    <rc><c>Fe</c><c>   1</c></rc>
    <rc><c>Fe</c><c>   1</c></rc>
    <rc><c>Fe</c><c>   1</c></rc>
    <rc><c>Fe</c><c>   1</c></rc>
    <rc><c>Fe</c><c>   1</c></rc>
    <rc><c>Fe</c><c>   1</c></rc>
    <rc><c>Fe</c><c>   1</c></rc>
    <rc><c>Fe</c><c>   1</c></rc>
    <rc><c>Fe</c><c>   1</c></rc>
    <rc><c>Fe</c><c>   1</c></rc>
    <rc><c>Fe</c><c>   1</c></rc>
    <rc><c>Fe</c><c>   1</c></rc>
    <rc><c>Fe</c><c>   1</c></rc>
    <rc><c>Fe</c><c>   1</c></rc>
    <rc><c>Fe</c><c>   1</c></rc>
    <rc><c>Fe</c><c>   1</c></rc>
    <rc><c>Fe</c><c>   1</c></rc>
    <rc><c>Fe</c><c>   1</c></rc>
    <rc><c>Fe</c><c>   1</c></rc>
    <rc><c>Fe</c><c>   1</c></rc>
    <rc><c>Fe</c><c>   1</c></rc>
    <rc><c>Fe</c><c>   1</c></rc>
    <rc><c>Fe</c><c>   1</c></rc>
    <rc><c>Fe</c><c>   1</c></rc>
    <rc><c>Fe</c><c>   1</c></rc>
    <rc><c>Fe</c><c>   1</c></rc>
    <rc><c>Fe</c><c>   1</c></rc>
    <rc><c>Fe</c><c>   1</c></rc>
    <rc><c>Fe</c><c>   1</c></rc>
    <rc><c>Fe</c><c>   1</c></rc>
    <rc><c>Fe</c><c>   1</c></rc>
    <rc><c>Fe</c><c>   1</c></rc>
    <rc><c>Fe</c><c>   1</c></rc>
    <rc><c>Fe</c><c>   1</c></rc>
    <rc><c>Fe</c><c>   1</c></rc>
    <rc><c>Fe</c><c>   1</c></rc>
    <rc><c>Fe</c><c>   1</c></rc>
    <rc><c>Fe</c><c>   1</c></rc>
    <rc><c>Fe</c><c>   1</c></rc>
    <rc><c>Fe</c><c>   1</c></rc>
    <rc><c>Fe</c><c>   1</c></rc>
    <rc><c>Fe</c><c>   1</c></rc>
    <rc><c>Fe</c><c>   1</c></rc>
    <rc><c>Fe</c><c>   1</c></rc>
    <rc><c>Fe</c><c>   1</c></rc>
    <rc><c>Fe</c><c>   1</c></rc>
    <rc><c>Fe</c><c>   1</c></rc>
    <rc><c>Fe</c><c>   1</c></rc>
    <rc><c>Fe</c><c>   1</c></rc>
    <rc><c>Fe</c><c>   1</c></rc>
    <rc><c>Fe</c><c>   1</c></rc>
    <rc><c>Fe</c><c>   1</c></rc>
    <rc><c>Fe</c><c>   1</c></rc>
    <rc><c>Fe</c><c>   1</c></rc>
    <rc><c>Fe</c><c>   1</c></rc>
    <rc><c>Fe</c><c>   1</c></rc>
    <rc><c>Fe</c><c>   1</c></rc>
    <rc><c>Fe</c><c>   1</c></rc>
    <rc><c>Fe</c><c>   1</c></rc>
    <rc><c>Fe</c><c>   1</c></rc>
    <rc><c>Fe</c><c>   1</c></rc>
    <rc><c>Fe</c><c>   1</c></rc>
    <rc><c>Fe</c><c>   1</c></rc>
    <rc><c>Fe</c><c>   1</c></rc>
    <rc><c>Fe</c><c>   1</c></rc>
    <rc><c>Fe</c><c>   1</c></rc>
    <rc><c>Fe</c><c>   1</c></rc>
    <rc><c>Fe</c><c>   1</c></rc>
    <rc><c>Fe</c><c>   1</c></rc>
    <rc><c>Fe</c><c>   1</c></rc>
    <rc><c>Fe</c><c>   1</c></rc>
    <rc><c>Fe</c><c>   1</c></rc>
    <rc><c>Fe</c><c>   1</c></rc>
    <rc><c>Fe</c><c>   1</c></rc>
    <rc><c>Fe</c><c>   1</c></rc>
    <rc><c>Fe</c><c>   1</c></rc>
    <rc><c>Fe</c><c>   1</c></rc>
    <rc><c>Fe</c><c>   1</c></rc>
    <rc><c>Fe</c><c>   1</c></rc>
    <rc><c>Fe</c><c>   1</c></rc>
    <rc><c>Fe</c><c>   1</c></rc>
    <rc><c>Fe</c><c>   1</c></rc>
    <rc><c>Fe</c><c>   1</c></rc>
    <rc><c>Fe</c><c>   1</c></rc>
    <rc><c>Fe</c><c>   1</c></rc>
    <rc><c>Fe</c><c>   1</c></rc>
    <rc><c>Fe</c><c>   1</c></rc>
    <rc><c>Fe</c><c>   1</c></rc>
    <rc><c>Fe</c><c>   1</c></rc>
    <rc><c>Fe</c><c>   1</c></rc>
    <rc><c>Fe</c><c>   1</c></rc>
    <rc><c>Fe</c><c>   1</c></rc>
    <rc><c>Fe</c><c>   1</c></rc>
    <rc><c>Fe</c><c>   1</c></rc>
    <rc><c>Fe</c><c>   1</c></rc>
    <rc><c>Fe</c><c>   1</c></rc>
    <rc><c>Fe</c><c>   1</c></rc>
    <rc><c>Fe</c><c>   1</c></rc>
    <rc><c>Fe</c><c>   1</c></rc>
    <rc><c>Fe</c><c>   1</c></rc>
    <rc><c>Fe</c><c>   1</c></rc>
    <rc><c>Fe</c><c>   1</c></rc>
    <rc><c>Fe</c><c>   1</c></rc>
    <rc><c>Fe</c><c>   1</c></rc>
    <rc><c>Fe</c><c>   1</c></rc>
    <rc><c>Fe</c><c>   1</c></rc>
    <rc><c>Fe</c><c>   1</c></rc>
    <rc><c>Fe</c><c>   1</c></rc>
    <rc><c>Fe</c><c>   1</c></rc>
    <rc><c>Fe</c><c>   1</c></rc>
    <rc><c>Fe</c><c>   1</c></rc>
    <rc><c>Fe</c><c>   1</c></rc>
    <rc><c>Fe</c><c>   1</c></rc>
    <rc><c>Fe</c><c>   1</c></rc>
    <rc><c>Fe</c><c>   1</c></rc>
    <rc><c>Fe</c><c>   1</c></rc>
    <rc><c>Fe</c><c>   1</c></rc>
    <rc><c>Fe</c><c>   1</c></rc>
    <rc><c>Fe</c><c>   1</c></rc>
    <rc><c>Fe</c><c>   1</c></rc>
    <rc><c>Fe</c><c>   1</c></rc>
    <rc><c>Fe</c><c>   1</c></rc>
    <rc><c>Fe</c><c>   1</c></rc>
    <rc><c>Fe</c><c>   1</c></rc>
    <rc><c>Fe</c><c>   1</c></rc>
    <rc><c>Fe</c><c>   1</c></rc>
    <rc><c>Fe</c><c>   1</c></rc>
    <rc><c>Fe</c><c>   1</c></rc>
    <rc><c>Fe</c><c>   1</c></rc>
    <rc><c>Fe</c><c>   1</c></rc>
    <rc><c>Fe</c><c>   1</c></rc>
    <rc><c>Fe</c><c>   1</c></rc>
    <rc><c>Fe</c><c>   1</c></rc>
    <rc><c>Fe</c><c>   1</c></rc>
    <rc><c>Fe</c><c>   1</c></rc>
    <rc><c>Fe</c><c>   1</c></rc>
    <rc><c>Fe</c><c>   1</c></rc>
    <rc><c>Fe</c><c>   1</c></rc>
    <rc><c>Fe</c><c>   1</c></rc>
    <rc><c>Fe</c><c>   1</c></rc>
    <rc><c>Fe</c><c>   1</c></rc>
    <rc><c>Fe</c><c>   1</c></rc>
    <rc><c>Fe</c><c>   1</c></rc>
    <rc><c>Fe</c><c>   1</c></rc>
    <rc><c>Fe</c><c>   1</c></rc>
    <rc><c>Fe</c><c>   1</c></rc>
    <rc><c>Fe</c><c>   1</c></rc>
    <rc><c>Fe</c><c>   1</c></rc>
    <rc><c>Fe</c><c>   1</c></rc>
    <rc><c>Fe</c><c>   1</c></rc>
    <rc><c>Fe</c><c>   1</c></rc>
    <rc><c>Fe</c><c>   1</c></rc>
    <rc><c>Fe</c><c>   1</c></rc>
    <rc><c>Fe</c><c>   1</c></rc>
    <rc><c>Fe</c><c>   1</c></rc>
    <rc><c>Fe</c><c>   1</c></rc>
    <rc><c>Fe</c><c>   1</c></rc>
    <rc><c>Fe</c><c>   1</c></rc>
    <rc><c>Fe</c><c>   1</c></rc>
    <rc><c>Fe</c><c>   1</c></rc>
    <rc><c>Fe</c><c>   1</c></rc>
    <rc><c>Fe</c><c>   1</c></rc>
    <rc><c>Fe</c><c>   1</c></rc>
    <rc><c>Fe</c><c>   1</c></rc>
    <rc><c>Fe</c><c>   1</c></rc>
    <rc><c>Fe</c><c>   1</c></rc>
    <rc><c>Fe</c><c>   1</c></rc>
    <rc><c>Fe</c><c>   1</c></rc>
    <rc><c>Fe</c><c>   1</c></rc>
    <rc><c>Fe</c><c>   1</c></rc>
    <rc><c>Fe</c><c>   1</c></rc>
    <rc><c>Fe</c><c>   1</c></rc>
    <rc><c>Fe</c><c>   1</c></rc>
    <rc><c>Fe</c><c>   1</c></rc>
    <rc><c>Fe</c><c>   1</c></rc>
    <rc><c>Fe</c><c>   1</c></rc>
    <rc><c>Fe</c><c>   1</c></rc>
    <rc><c>Fe</c><c>   1</c></rc>
    <rc><c>Fe</c><c>   1</c></rc>
    <rc><c>Fe</c><c>   1</c></rc>
    <rc><c>Fe</c><c>   1</c></rc>
    <rc><c>Fe</c><c>   1</c></rc>
    <rc><c>Fe</c><c>   1</c></rc>
    <rc><c>Fe</c><c>   1</c></rc>
    <rc><c>Fe</c><c>   1</c></rc>
    <rc><c>Fe</c><c>   1</c></rc>
    <rc><c>Fe</c><c>   1</c></rc>
    <rc><c>Fe</c><c>   1</c></rc>
    <rc><c>Fe</c><c>   1</c></rc>
    <rc><c>Fe</c><c>   1</c></rc>
    <rc><c>Fe</c><c>   1</c></rc>
    <rc><c>Fe</c><c>   1</c></rc>
    <rc><c>Fe</c><c>   1</c></rc>
    <rc><c>Fe</c><c>   1</c></rc>
    <rc><c>Fe</c><c>   1</c></rc>
    <rc><c>Fe</c><c>   1</c></rc>
    <rc><c>Fe</c><c>   1</c></rc>
    <rc><c>Fe</c><c>   1</c></rc>
    <rc><c>Fe</c><c>   1</c></rc>
    <rc><c>Fe</c><c>   1</c></rc>
    <rc><c>Fe</c><c>   1</c></rc>
    <rc><c>Fe</c><c>   1</c></rc>
    <rc><c>Fe</c><c>   1</c></rc>
    <rc><c>Fe</c><c>   1</c></rc>
    <rc><c>Fe</c><c>   1</c></rc>
    <rc><c>Fe</c><c>   1</c></rc>
    <rc><c>Fe</c><c>   1</c></rc>
    <rc><c>Fe</c><c>   1</c></rc>
    <rc><c>Fe</c><c>   1</c></rc>
    <rc><c>Fe</c><c>   1</c></rc>
    <rc><c>Fe</c><c>   1</c></rc>
    <rc><c>Fe</c><c>   1</c></rc>
    <rc><c>Fe</c><c>   1</c></rc>
    <rc><c>Fe</c><c>   1</c></rc>
    <rc><c>Fe</c><c>   1</c></rc>
    <rc><c>Fe</c><c>   1</c></rc>
    <rc><c>Fe</c><c>   1</c></rc>
    <rc><c>Fe</c><c>   1</c></rc>
    <rc><c>Fe</c><c>   1</c></rc>
    <rc><c>Fe</c><c>   1</c></rc>
    <rc><c>Fe</c><c>   1</c></rc>
    <rc><c>Fe</c><c>   1</c></rc>
    <rc><c>Fe</c><c>   1</c></rc>
    <rc><c>Fe</c><c>   1</c></rc>
    <rc><c>Fe</c><c>   1</c></rc>
    <rc><c>Fe</c><c>   1</c></rc>
    <rc><c>Fe</c><c>   1</c></rc>
    <rc><c>Fe</c><c>   1</c></rc>
    <rc><c>Mn</c><c>   2</c></rc>
    <rc><c>Mn</c><c>   2</c></rc>
    <rc><c>Mn</c><c>   2</c></rc>
    <rc><c>Mn</c><c>   2</c></rc>
    <rc><c>Mn</c><c>   2</c></rc>
    <rc><c>Mn</c><c>   2</c></rc>
    <rc><c>Mn</c><c>   2</c></rc>
   </set>
  </array>
  <array name="atomtypes" >
   <dimension dim="1">type</dimension>
   <field type="int">atomspertype</field>
   <field type="string">element</field>
   <field>mass</field>
   <field>valence</field>
   <field type="string">pseudopotential</field>
   <set>
    <rc><c> 281</c><c>Fe</c><c>     55.84700000</c><c>      8.00000000</c><c>  PAW_PBE Fe_GW 31Mar2010               </c></rc>
    <rc><c>   7</c><c>Mn</c><c>     54.93800000</c><c>      7.00000000</c><c>  PAW_PBE Mn_GW 31Mar2010               </c></rc>
   </set>
  </array>
 </atominfo>
 <structure name="initialpos" >
  <crystal>
   <varray name="basis" >
    <v>       9.72667804       0.00000000       0.00000000 </v>
    <v>       0.00000000       8.42355028       0.00000000 </v>
    <v>       0.00000000       0.00000000      45.00000000 </v>
   </varray>
   <i name="volume">   3686.99226691 </i>
   <varray name="rec_basis" >
    <v>       0.10281002       0.00000000       0.00000000 </v>
    <v>       0.00000000       0.11871479       0.00000000 </v>
    <v>       0.00000000       0.00000000       0.02222222 </v>
   </varray>
  </crystal>
  <varray name="positions" >
   <v>       0.05395252       0.70111213       0.21121715 </v>
   <v>       0.31817186       0.72375559       0.87625219 </v>
   <v>       0.68842217       0.95875134       0.61149064 </v>
   <v>       0.43839836       0.45854414       0.61158910 </v>
   <v>       0.44077144       0.28737366       0.25503955 </v>
   <v>       0.05871129       0.38812323       0.83357089 </v>
   <v>       0.30858177       0.88773931       0.83360610 </v>
   <v>       0.44691537       0.62626810       0.70039238 </v>
   <v>       0.05987719       0.21270716       0.74492969 </v>
   <v>       0.17945197       0.45105328       0.21128924 </v>
   <v>       0.56779237       0.21061050       0.47750343 </v>
   <v>       0.06675423       0.87512857       0.56688234 </v>
   <v>       0.56834024       0.22388645       0.87614606 </v>
   <v>       0.80727126       0.52704360       0.12386249 </v>
   <v>       0.42965901       0.95108858       0.21135196 </v>
   <v>       0.56665872       0.37503068       0.56686275 </v>
   <v>       0.81160352       0.04198126       0.38831692 </v>
   <v>       0.68182729       0.78898468       0.52248326 </v>
   <v>       0.44267091       0.46081342       0.47752392 </v>
   <v>       0.43385786       0.96261031       0.74476720 </v>
   <v>       0.44166067       0.62495290       0.56689111 </v>
   <v>       0.57151142       0.87627660       0.70056620 </v>
   <v>       0.30901348       0.02643211       0.12393992 </v>
   <v>       0.68997461       0.95875351       0.34399239 </v>
   <v>       0.68744752       0.78211123       0.12420423 </v>
   <v>       0.05309856       0.37367937       0.29944488 </v>
   <v>       0.68980290       0.46796164       0.87609192 </v>
   <v>       0.42876724       0.45126075       0.21131318 </v>
   <v>       0.80861846       0.37529678       0.43308074 </v>
   <v>       0.56355657       0.70870194       0.61154823 </v>
   <v>       0.55975623       0.54056912       0.65589213 </v>
   <v>       0.81730109       0.86202430       0.16659461 </v>
   <v>       0.56544291       0.53798071       0.25515664 </v>
   <v>       0.68963885       0.45870697       0.34391134 </v>
   <v>       0.19201825       0.61221026       0.16653645 </v>
   <v>       0.19449636       0.79941650       0.78882100 </v>
   <v>       0.44723287       0.12595243       0.70041120 </v>
   <v>       0.92818942       0.62320676       0.29959425 </v>
   <v>       0.31733401       0.22363816       0.87611661 </v>
   <v>       0.31652534       0.87478095       0.56686109 </v>
   <v>       0.81753291       0.22380213       0.87616988 </v>
   <v>       0.80975540       0.54071322       0.65581745 </v>
   <v>       0.55867486       0.52686948       0.12397061 </v>
   <v>       0.56928904       0.04973961       0.78898349 </v>
   <v>       0.19030889       0.28722348       0.25513674 </v>
   <v>       0.80853823       0.87509876       0.43310996 </v>
   <v>       0.57230770       0.37633826       0.70040663 </v>
   <v>       0.05785572       0.02694877       0.12402443 </v>
   <v>       0.30980350       0.54063411       0.65594144 </v>
   <v>       0.56479575       0.20890153       0.34394625 </v>
   <v>       0.18828107       0.95852753       0.61147220 </v>
   <v>       0.30290738       0.37381479       0.29954400 </v>
   <v>       0.43456045       0.79050309       0.65595045 </v>
   <v>       0.19479521       0.29898733       0.78878211 </v>
   <v>       0.06688752       0.36251790       0.16657807 </v>
   <v>       0.69703973       0.62628714       0.70044060 </v>
   <v>       0.31146141       0.54106716       0.38843638 </v>
   <v>       0.06763729       0.72330368       0.87623395 </v>
   <v>       0.93393854       0.63754976       0.83391101 </v>
   <v>       0.31976666       0.54959794       0.78892309 </v>
   <v>       0.30509849       0.20054306       0.21107963 </v>
   <v>       0.06793653       0.71062271       0.47747827 </v>
   <v>       0.55498282       0.20067192       0.21103596 </v>
   <v>       0.30969432       0.21238479       0.74493320 </v>
   <v>       0.07195951       0.37631301       0.70050773 </v>
   <v>       0.18320103       0.63772627       0.83359402 </v>
   <v>       0.06942547       0.04938522       0.78900853 </v>
   <v>       0.44149549       0.12505685       0.56692653 </v>
   <v>       0.93478582       0.29094546       0.65587785 </v>
   <v>       0.80486900       0.20122626       0.21117101 </v>
   <v>       0.92938553       0.95140308       0.21122307 </v>
   <v>       0.94170156       0.62524882       0.56681071 </v>
   <v>       0.80816280       0.38765066       0.83351651 </v>
   <v>       0.19709829       0.62624264       0.70033723 </v>
   <v>       0.80849611       0.88759107       0.83352462 </v>
   <v>       0.68497917       0.29086942       0.65605792 </v>
   <v>       0.31318012       0.20835188       0.61149530 </v>
   <v>       0.43464585       0.46276425       0.74486346 </v>
   <v>       0.43642332       0.79121415       0.38838970 </v>
   <v>       0.68447649       0.96269424       0.74486726 </v>
   <v>       0.80407723       0.70095872       0.21123074 </v>
   <v>       0.81349358       0.70865457       0.61160438 </v>
   <v>       0.43646476       0.78312916       0.12395643 </v>
   <v>       0.30978339       0.71214501       0.74480631 </v>
   <v>       0.32000436       0.04947481       0.78887578 </v>
   <v>       0.81121568       0.54151515       0.38831990 </v>
   <v>       0.68234646       0.28864578       0.52234954 </v>
   <v>       0.69498081       0.79936271       0.78889991 </v>
   <v>       0.19043073       0.78801641       0.25530942 </v>
   <v>       0.69152991       0.11223025       0.16659964 </v>
   <v>       0.69284226       0.96070551       0.47746188 </v>
   <v>       0.94017688       0.95931263       0.34400801 </v>
   <v>       0.80726181       0.03928585       0.52255695 </v>
   <v>       0.68347225       0.62476216       0.43308418 </v>
   <v>       0.44010915       0.45828128       0.34412746 </v>
   <v>       0.81048839       0.21153265       0.74460273 </v>
   <v>       0.43965310       0.96819352       0.87609200 </v>
   <v>       0.56659759       0.87490430       0.56685767 </v>
   <v>       0.80943277       0.02794917       0.12398279 </v>
   <v>       0.42845481       0.62350174       0.29939271 </v>
   <v>       0.81670249       0.72377572       0.87635067 </v>
   <v>       0.68823438       0.45845115       0.61152626 </v>
   <v>       0.55878643       0.38761604       0.83350357 </v>
   <v>       0.80323307       0.37336269       0.29946865 </v>
   <v>       0.18621544       0.29116189       0.38834107 </v>
   <v>       0.81994763       0.54928019       0.78893387 </v>
   <v>       0.18229271       0.78943622       0.52255312 </v>
   <v>       0.30314202       0.87391716       0.29958669 </v>
   <v>       0.17855001       0.95144946       0.21131436 </v>
   <v>       0.18444896       0.46244224       0.74489589 </v>
   <v>       0.43241735       0.28870530       0.52231913 </v>
   <v>       0.06515211       0.70876732       0.34396042 </v>
   <v>       0.18481679       0.79062720       0.65588657 </v>
   <v>       0.44467607       0.79927809       0.78885065 </v>
   <v>       0.68369400       0.12504126       0.43293110 </v>
   <v>       0.93222177       0.78890068       0.52255473 </v>
   <v>       0.69160029       0.61235670       0.16646149 </v>
   <v>       0.81455204       0.70890332       0.34388694 </v>
   <v>       0.93443949       0.46259188       0.74495864 </v>
   <v>       0.19010454       0.45895067       0.34406281 </v>
   <v>       0.56984339       0.54968152       0.78904021 </v>
   <v>       0.56724909       0.36194165       0.16659056 </v>
   <v>       0.56478956       0.70895512       0.34393715 </v>
   <v>       0.55323388       0.37404396       0.29955651 </v>
   <v>       0.18978533       0.46814192       0.87608976 </v>
   <v>       0.19143217       0.11133778       0.16641369 </v>
   <v>       0.44477230       0.29902461       0.78881965 </v>
   <v>       0.69111559       0.78742911       0.25528568 </v>
   <v>       0.93357567       0.13760605       0.83351673 </v>
   <v>       0.44272580       0.96069591       0.47748115 </v>
   <v>       0.56755541       0.72468569       0.87623377 </v>
   <v>       0.19265702       0.46057685       0.47750702 </v>
   <v>       0.93507911       0.28220051       0.12409918 </v>
   <v>       0.31132792       0.04168870       0.38845960 </v>
   <v>       0.06005548       0.04043935       0.65601892 </v>
   <v>       0.55863527       0.37515144       0.43306953 </v>
   <v>       0.68417189       0.46286195       0.74493521 </v>
   <v>       0.56016785       0.21233767       0.74481004 </v>
   <v>       0.94710951       0.12631244       0.70036279 </v>
   <v>       0.55953848       0.04078111       0.65586167 </v>
   <v>       0.55723249       0.53909575       0.52255731 </v>
   <v>       0.17836687       0.12411697       0.29954913 </v>
   <v>       0.44154470       0.11126570       0.16635582 </v>
   <v>       0.67774139       0.62368560       0.29952745 </v>
   <v>       0.92793699       0.12362894       0.29961920 </v>
   <v>       0.81655015       0.37508595       0.56688605 </v>
   <v>       0.05277537       0.87420928       0.29954379 </v>
   <v>       0.19169961       0.62496190       0.56689307 </v>
   <v>       0.94452860       0.79958500       0.78886652 </v>
   <v>       0.30850113       0.38756733       0.83348919 </v>
   <v>       0.93964273       0.46845237       0.87609517 </v>
   <v>       0.43368776       0.63791084       0.83351770 </v>
   <v>       0.06452386       0.20868101       0.34379283 </v>
   <v>       0.18974743       0.96800668       0.87609042 </v>
   <v>       0.93557103       0.78240172       0.12417716 </v>
   <v>       0.68652320       0.79115672       0.38840342 </v>
   <v>       0.93475752       0.79062976       0.65590307 </v>
   <v>       0.94161055       0.11225083       0.16649674 </v>
   <v>       0.43502934       0.29081214       0.65607436 </v>
   <v>       0.05439167       0.20087414       0.21124998 </v>
   <v>       0.67908915       0.95149944       0.21128319 </v>
   <v>       0.17852624       0.62347748       0.29940181 </v>
   <v>       0.82211292       0.87609942       0.70043999 </v>
   <v>       0.94684706       0.62643807       0.70050316 </v>
   <v>       0.19710099       0.12625389       0.70036500 </v>
   <v>       0.94261776       0.46055727       0.47728396 </v>
   <v>       0.81340245       0.20852604       0.61155828 </v>
   <v>       0.18315820       0.62499230       0.43313992 </v>
   <v>       0.42856132       0.12357648       0.29943656 </v>
   <v>       0.67766022       0.12358851       0.29953192 </v>
   <v>       0.56188839       0.54136825       0.38855611 </v>
   <v>       0.81472539       0.20797072       0.34399947 </v>
   <v>       0.43989753       0.46800430       0.87593850 </v>
   <v>       0.55867170       0.88758938       0.83349612 </v>
   <v>       0.31786354       0.21046882       0.47732045 </v>
   <v>       0.19272605       0.96079609       0.47750931 </v>
   <v>       0.05849089       0.88783715       0.83355932 </v>
   <v>       0.05728051       0.53915248       0.52255966 </v>
   <v>       0.94266876       0.96052603       0.47728777 </v>
   <v>       0.06332931       0.70854580       0.61161890 </v>
   <v>       0.55731331       0.03888219       0.52244050 </v>
   <v>       0.69512344       0.29901880       0.78877816 </v>
   <v>       0.81691660       0.36226326       0.16669202 </v>
   <v>       0.43350112       0.12479765       0.43306060 </v>
   <v>       0.06800089       0.21063883       0.47748554 </v>
   <v>       0.30984054       0.04079150       0.65590416 </v>
   <v>       0.43210631       0.78902367       0.52236792 </v>
   <v>       0.18384144       0.13787890       0.83356539 </v>
   <v>       0.18534216       0.28297215       0.12424588 </v>
   <v>       0.94033960       0.45939694       0.34405476 </v>
   <v>       0.56646735       0.86237742       0.16648877 </v>
   <v>       0.30369014       0.70108914       0.21121730 </v>
   <v>       0.94133188       0.61221737       0.16645343 </v>
   <v>       0.18829482       0.45860251       0.61150562 </v>
   <v>       0.07234994       0.87642411       0.70036239 </v>
   <v>       0.05977285       0.54075553       0.65589963 </v>
   <v>       0.30734300       0.52712352       0.12390100 </v>
   <v>       0.93651286       0.79132181       0.38846298 </v>
   <v>       0.94507886       0.29880238       0.78877637 </v>
   <v>       0.18465625       0.29065273       0.65589160 </v>
   <v>       0.93818247       0.95839950       0.61149886 </v>
   <v>       0.80996092       0.71186530       0.74484600 </v>
   <v>       0.69096127       0.28754923       0.25532113 </v>
   <v>       0.05930127       0.71230496       0.74501833 </v>
   <v>       0.67919099       0.45117912       0.21130450 </v>
   <v>       0.81776605       0.21073746       0.47747357 </v>
   <v>       0.56762621       0.71062133       0.47748742 </v>
   <v>       0.06728285       0.86260118       0.16659719 </v>
   <v>       0.93245274       0.28839373       0.52235833 </v>
   <v>       0.68463872       0.79035429       0.65589079 </v>
   <v>       0.05834370       0.87485772       0.43307540 </v>
   <v>       0.06813120       0.22301845       0.87616457 </v>
   <v>       0.80975177       0.04063308       0.65590636 </v>
   <v>       0.55968963       0.02794169       0.12383184 </v>
   <v>       0.30881170       0.37514059       0.43302379 </v>
   <v>       0.31647939       0.37497861       0.56686739 </v>
   <v>       0.31772743       0.71038237       0.47732762 </v>
   <v>       0.05714187       0.03911874       0.52254075 </v>
   <v>       0.32194288       0.87635190       0.70054792 </v>
   <v>       0.06523450       0.53783109       0.25502356 </v>
   <v>       0.68352703       0.13781499       0.83354893 </v>
   <v>       0.81529961       0.03755653       0.25506656 </v>
   <v>       0.18338213       0.12472396       0.43304508 </v>
   <v>       0.69721173       0.12632642       0.70044469 </v>
   <v>       0.18244351       0.28918459       0.52254870 </v>
   <v>       0.44029342       0.78745885       0.25513287 </v>
   <v>       0.44140253       0.61229743       0.16644851 </v>
   <v>       0.06352500       0.20862163       0.61155029 </v>
   <v>       0.18605963       0.79103326       0.38836017 </v>
   <v>       0.30701393       0.53875390       0.52248158 </v>
   <v>       0.82194097       0.37630477       0.70022464 </v>
   <v>       0.68653236       0.29120903       0.38842820 </v>
   <v>       0.19165516       0.12500459       0.56691508 </v>
   <v>       0.68972479       0.96842584       0.87608880 </v>
   <v>       0.69156332       0.12504135       0.56690854 </v>
   <v>       0.44003010       0.95838926       0.34401778 </v>
   <v>       0.18385857       0.96252127       0.74474241 </v>
   <v>       0.94013058       0.78745674       0.25520933 </v>
   <v>       0.55860726       0.87516572       0.43309740 </v>
   <v>       0.30834854       0.87497456       0.43311740 </v>
   <v>       0.80721929       0.53929567       0.52258559 </v>
   <v>       0.92904377       0.45120700       0.21126889 </v>
   <v>       0.31514971       0.53774273       0.25515562 </v>
   <v>       0.56156213       0.04126699       0.38842544 </v>
   <v>       0.93821770       0.45841050       0.61163311 </v>
   <v>       0.06140560       0.04140508       0.38837673 </v>
   <v>       0.06180203       0.54140496       0.38842273 </v>
   <v>       0.43617866       0.29082405       0.38845101 </v>
   <v>       0.69284200       0.46078784       0.47747417 </v>
   <v>       0.06666183       0.37499272       0.56689559 </v>
   <v>       0.55405838       0.70116211       0.21115442 </v>
   <v>       0.94041090       0.28762722       0.25514510 </v>
   <v>       0.81924553       0.04962564       0.78906696 </v>
   <v>       0.18972547       0.95886652       0.34393481 </v>
   <v>       0.31694189       0.36216318       0.16657453 </v>
   <v>       0.05843623       0.37491852       0.43308789 </v>
   <v>       0.31501392       0.70916623       0.34393216 </v>
   <v>       0.31458115       0.20878108       0.34389777 </v>
   <v>       0.94162243       0.12516663       0.56682559 </v>
   <v>       0.43844871       0.95886248       0.61156943 </v>
   <v>       0.56510474       0.03782127       0.25509551 </v>
   <v>       0.18638225       0.78254167       0.12422395 </v>
   <v>       0.06508391       0.03740915       0.25505363 </v>
   <v>       0.69155244       0.62498758       0.56691178 </v>
   <v>       0.05725317       0.52618377       0.12401051 </v>
   <v>       0.30706876       0.03835142       0.52228946 </v>
   <v>       0.68597843       0.28254813       0.12409197 </v>
   <v>       0.81785098       0.71075995       0.47748934 </v>
   <v>       0.43359640       0.13786497       0.83350836 </v>
   <v>       0.32243602       0.37635287       0.70043228 </v>
   <v>       0.68363702       0.63784701       0.83350578 </v>
   <v>       0.55980035       0.71193407       0.74486020 </v>
   <v>       0.93642629       0.29129452       0.38849892 </v>
   <v>       0.93979820       0.96836810       0.87610710 </v>
   <v>       0.56283790       0.20807575       0.61132554 </v>
   <v>       0.81653115       0.87506568       0.56690211 </v>
   <v>       0.80305356       0.87341628       0.29938334 </v>
   <v>       0.31525067       0.03761535       0.25513120 </v>
   <v>       0.43640149       0.28305081       0.12416788 </v>
   <v>       0.31360510       0.70866889       0.61158417 </v>
   <v>       0.43322838       0.62497707       0.43313477 </v>
   <v>       0.93285972       0.62485622       0.43320000 </v>
   <v>       0.31799217       0.86262605       0.16574699 </v>
   <v>       0.07054602       0.54942172       0.78874222 </v>
   <v>       0.93342138       0.12437782       0.43307364 </v>
   <v>       0.55239894       0.87304185       0.29965698 </v>
   <v>       0.93335246       0.96227604       0.74466632 </v>
   <v>       0.81593760       0.53809052       0.25533797 </v>
  </varray>
 </structure>
 <calculation>
  <scstep>
   <time name="dav">   54.43   54.44</time>
   <time name="total">   54.57   54.66</time>
   <energy>
    <i name="alphaZ">  16403.00255340 </i>
    <i name="ewald"> 713251.38539745 </i>
    <i name="hartreedc">-904922.14456337 </i>
    <i name="XCdc">  -6389.74844049 </i>
    <i name="pawpsdc"> 163151.95320885 </i>
    <i name="pawaedc">-160818.84594568 </i>
    <i name="eentropy">     -1.05514831 </i>
    <i name="bandstr">  38622.92597426 </i>
    <i name="atom"> 169914.59583762 </i>
    <i name="e_fr_energy">  29212.06887373 </i>
    <i name="e_wo_entrp">  29213.12402204 </i>
    <i name="e_0_energy">  29212.59644788 </i>
   </energy>
  </scstep>
  <scstep>
   <time name="dav">   53.91   53.95</time>
   <time name="total">   53.92   53.96</time>
   <energy>
    <i name="e_fr_energy">   1191.94750639 </i>
    <i name="e_wo_entrp">   1193.41985920 </i>
    <i name="e_0_energy">   1192.68368279 </i>
   </energy>
  </scstep>
  <scstep>
   <time name="dav">   71.04   71.09</time>
   <time name="total">   71.05   71.10</time>
   <energy>
    <i name="e_fr_energy">  -1940.80648441 </i>
    <i name="e_wo_entrp">  -1937.23592634 </i>
    <i name="e_0_energy">  -1939.02120537 </i>
   </energy>
  </scstep>
  <scstep>
   <time name="dav">   88.94   88.98</time>
   <time name="total">   88.95   88.98</time>
   <energy>
    <i name="e_fr_energy">  -2607.40643332 </i>
    <i name="e_wo_entrp">  -2603.78667689 </i>
    <i name="e_0_energy">  -2605.59655510 </i>
   </energy>
  </scstep>
  <scstep>
   <time name="dav">   84.63   84.67</time>
   <time name="total">   86.66   86.70</time>
   <energy>
    <i name="e_fr_energy">  -2727.29013108 </i>
    <i name="e_wo_entrp">  -2723.49949222 </i>
    <i name="e_0_energy">  -2725.39481165 </i>
   </energy>
  </scstep>
  <scstep>
   <time name="diag">    8.18    8.18</time>
   <time name="diis">   37.89   37.89</time>
   <time name="orth">    2.29    2.29</time>
   <time name="total">   50.52   50.57</time>
   <energy>
    <i name="e_fr_energy">  -5759.90198295 </i>
    <i name="e_wo_entrp">  -5756.63428300 </i>
    <i name="e_0_energy">  -5758.26813297 </i>
   </energy>
  </scstep>
  <scstep>
   <time name="diag">    8.29    8.29</time>
   <time name="diis">   36.15   36.16</time>
   <time name="orth">    2.29    2.29</time>
   <time name="total">   48.87   48.92</time>
[...]
       <r>     5.8756     0.0000  2772.0000 </r>
       <r>     5.9184     0.0000  2772.0000 </r>
       <r>     5.9611     0.0000  2772.0000 </r>
       <r>     6.0039     0.0000  2772.0000 </r>
       <r>     6.0467     0.0000  2772.0000 </r>
       <r>     6.0895     0.0000  2772.0000 </r>
       <r>     6.1323     0.0000  2772.0000 </r>
       <r>     6.1750     0.0000  2772.0000 </r>
       <r>     6.2178     0.0000  2772.0000 </r>
       <r>     6.2606     0.0000  2772.0000 </r>
       <r>     6.3034     0.0000  2772.0000 </r>
       <r>     6.3462     0.0000  2772.0000 </r>
       <r>     6.3889     0.0000  2772.0000 </r>
       <r>     6.4317     0.0000  2772.0000 </r>
       <r>     6.4745     0.0000  2772.0000 </r>
       <r>     6.5173     0.0000  2772.0000 </r>
       <r>     6.5600     0.0000  2772.0000 </r>
       <r>     6.6028     0.0000  2772.0000 </r>
       <r>     6.6456     0.0000  2772.0000 </r>
       <r>     6.6884     0.0000  2772.0000 </r>
       <r>     6.7312     0.0000  2772.0000 </r>
       <r>     6.7739     0.0000  2772.0000 </r>
       <r>     6.8167     0.0000  2772.0000 </r>
      </set>
     </set>
    </array>
   </total>
  </dos>
 </calculation>
 <structure name="finalpos" >
  <crystal>
   <varray name="basis" >
    <v>       9.72667804       0.00000000       0.00000000 </v>
    <v>       0.00000000       8.42355028       0.00000000 </v>
    <v>       0.00000000       0.00000000      45.00000000 </v>
   </varray>
   <i name="volume">   3686.99226691 </i>
   <varray name="rec_basis" >
    <v>       0.10281002       0.00000000       0.00000000 </v>
    <v>       0.00000000       0.11871479       0.00000000 </v>
    <v>       0.00000000       0.00000000       0.02222222 </v>
   </varray>
  </crystal>
  <varray name="positions" >
   <v>       0.05781423       0.70095721       0.21098978 </v>
   <v>       0.31601253       0.72041798       0.87576213 </v>
   <v>       0.68828509       0.95813784       0.61143355 </v>
   <v>       0.43840796       0.45801867       0.61147307 </v>
   <v>       0.43668867       0.28704716       0.25547846 </v>
   <v>       0.06101837       0.38690792       0.83417295 </v>
   <v>       0.31126781       0.88668089       0.83418919 </v>
   <v>       0.44232967       0.62652470       0.70038143 </v>
   <v>       0.06368473       0.21312805       0.74449240 </v>
   <v>       0.18270129       0.45089499       0.21107375 </v>
   <v>       0.56391283       0.20897788       0.47785873 </v>
   <v>       0.06409202       0.87479126       0.56689473 </v>
   <v>       0.56567401       0.21987752       0.87571497 </v>
   <v>       0.81007581       0.53024247       0.12438823 </v>
   <v>       0.43307650       0.95153393       0.21111427 </v>
   <v>       0.56425581       0.37451450       0.56675764 </v>
   <v>       0.81162742       0.04196723       0.38848666 </v>
   <v>       0.68616555       0.79079179       0.52216132 </v>
   <v>       0.43893239       0.45897697       0.47783467 </v>
   <v>       0.43804169       0.96279752       0.74450915 </v>
   <v>       0.43899309       0.62474570       0.56684304 </v>
   <v>       0.56751082       0.87647327       0.70033661 </v>
   <v>       0.31074689       0.03039302       0.12404212 </v>
   <v>       0.68670414       0.95792707       0.34407961 </v>
   <v>       0.68742827       0.77989249       0.12455731 </v>
   <v>       0.05763510       0.37334663       0.29957022 </v>
   <v>       0.68903519       0.47137358       0.87549881 </v>
   <v>       0.43284001       0.45136014       0.21105877 </v>
   <v>       0.81087366       0.37536266       0.43304548 </v>
   <v>       0.56321165       0.70808724       0.61152914 </v>
   <v>       0.56289992       0.54142979       0.65578036 </v>
   <v>       0.81448447       0.86371359       0.16586764 </v>
   <v>       0.56105576       0.53714301       0.25555174 </v>
   <v>       0.68678716       0.45793318       0.34409721 </v>
   <v>       0.18903426       0.61316899       0.16614329 </v>
   <v>       0.19186847       0.79926881       0.78876240 </v>
   <v>       0.44248328       0.12657607       0.70040894 </v>
   <v>       0.93286304       0.62308951       0.29969916 </v>
   <v>       0.31538937       0.22010271       0.87569674 </v>
   <v>       0.31403732       0.87469597       0.56678806 </v>
   <v>       0.81534658       0.22005970       0.87570072 </v>
   <v>       0.81282678       0.54179207       0.65578191 </v>
   <v>       0.55990072       0.52986161       0.12441793 </v>
   <v>       0.56680647       0.04953870       0.78894428 </v>
   <v>       0.18676697       0.28663055       0.25548237 </v>
   <v>       0.81064744       0.87525155       0.43307736 </v>
   <v>       0.56716843       0.37649148       0.70045171 </v>
   <v>       0.06094015       0.03003118       0.12437994 </v>
   <v>       0.31293012       0.54126893       0.65579557 </v>
   <v>       0.56182700       0.20782440       0.34415335 </v>
   <v>       0.18837285       0.95804388       0.61144138 </v>
   <v>       0.30722876       0.37350831       0.29957539 </v>
   <v>       0.43804639       0.79168837       0.65582004 </v>
   <v>       0.19188124       0.29846212       0.78887195 </v>
   <v>       0.06391915       0.36335239       0.16594264 </v>
   <v>       0.69214962       0.62665470       0.70036462 </v>
   <v>       0.31177866       0.54171974       0.38847596 </v>
   <v>       0.06537582       0.71990430       0.87588116 </v>
   <v>       0.93627851       0.63675660       0.83429514 </v>
   <v>       0.31734121       0.54975408       0.78894520 </v>
   <v>       0.30759797       0.20087348       0.21103413 </v>
   <v>       0.06385129       0.70888418       0.47792322 </v>
   <v>       0.55745775       0.20142338       0.21096942 </v>
   <v>       0.31378831       0.21335192       0.74443445 </v>
   <v>       0.06735859       0.37689631       0.70036279 </v>
   <v>       0.18627209       0.63676679       0.83405073 </v>
   <v>       0.06687728       0.04916554       0.78893123 </v>
   <v>       0.43914175       0.12463223       0.56681184 </v>
   <v>       0.93818411       0.29157764       0.65567310 </v>
   <v>       0.80748841       0.20136648       0.21107641 </v>
   <v>       0.93282886       0.95137398       0.21122716 </v>
   <v>       0.93903814       0.62490474       0.56681747 </v>
   <v>       0.81111616       0.38663965       0.83420456 </v>
   <v>       0.19218255       0.62659375       0.70035637 </v>
   <v>       0.81116764       0.88646298       0.83429347 </v>
   <v>       0.68801014       0.29126384       0.65580081 </v>
   <v>       0.31350509       0.20817819       0.61151786 </v>
   <v>       0.43825110       0.46260312       0.74442526 </v>
   <v>       0.43666385       0.79153894       0.38849860 </v>
   <v>       0.68768589       0.96257725       0.74450234 </v>
   <v>       0.80747292       0.70074642       0.21101095 </v>
   <v>       0.81326031       0.70802392       0.61142333 </v>
   <v>       0.43662094       0.77958805       0.12417992 </v>
   <v>       0.31309403       0.71292925       0.74443614 </v>
   <v>       0.31726420       0.04946669       0.78899260 </v>
   <v>       0.81172314       0.54191580       0.38844841 </v>
   <v>       0.68606235       0.29117316       0.52220128 </v>
   <v>       0.69190076       0.79932459       0.78888450 </v>
   <v>       0.18642112       0.78757451       0.25550916 </v>
   <v>       0.68886354       0.11406778       0.16611294 </v>
   <v>       0.68877338       0.95920569       0.47790845 </v>
   <v>       0.93701366       0.95830070       0.34408190 </v>
   <v>       0.81106781       0.04037651       0.52213386 </v>
   <v>       0.68506406       0.62512957       0.43308617 </v>
   <v>       0.43678904       0.45844323       0.34415434 </v>
   <v>       0.81329401       0.21345451       0.74448713 </v>
   <v>       0.43910353       0.97154705       0.87551713 </v>
   <v>       0.56413370       0.87457044       0.56678751 </v>
   <v>       0.81041904       0.02995878       0.12450262 </v>
   <v>       0.43239336       0.62308665       0.29971641 </v>
   <v>       0.81524162       0.72044269       0.87581475 </v>
   <v>       0.68826908       0.45796797       0.61140993 </v>
   <v>       0.56101038       0.38691910       0.83406052 </v>
   <v>       0.80809244       0.37318243       0.29965451 </v>
   <v>       0.18640882       0.29170928       0.38844464 </v>
   <v>       0.81658251       0.54956819       0.78906493 </v>
   <v>       0.18615435       0.79048543       0.52221963 </v>
   <v>       0.30717101       0.87358154       0.29965900 </v>
   <v>       0.18266474       0.95155983       0.21124608 </v>
   <v>       0.18870526       0.46301058       0.74445082 </v>
   <v>       0.43600288       0.29077505       0.52210431 </v>
   <v>       0.06209667       0.70851594       0.34418415 </v>
   <v>       0.18820077       0.79119360       0.65571978 </v>
   <v>       0.44170039       0.79946791       0.78878908 </v>
   <v>       0.68489903       0.12496143       0.43307386 </v>
   <v>       0.93614468       0.79017938       0.52219566 </v>
   <v>       0.68860918       0.61246294       0.16609239 </v>
   <v>       0.81167320       0.70842398       0.34416634 </v>
   <v>       0.93827669       0.46271677       0.74443082 </v>
   <v>       0.18693382       0.45828065       0.34408147 </v>
   <v>       0.56728248       0.54926228       0.78896090 </v>
   <v>       0.56473899       0.36347535       0.16590525 </v>
   <v>       0.56167330       0.70783837       0.34431781 </v>
   <v>       0.55805828       0.37329951       0.29956765 </v>
   <v>       0.18884022       0.47116875       0.87556168 </v>
   <v>       0.18844056       0.11278039       0.16617780 </v>
   <v>       0.44181676       0.29887582       0.78881634 </v>
   <v>       0.68609150       0.78724268       0.25542028 </v>
   <v>       0.93686796       0.13676540       0.83411199 </v>
   <v>       0.43892477       0.95904999       0.47782215 </v>
   <v>       0.56543354       0.72026266       0.87572921 </v>
   <v>       0.18862929       0.45903720       0.47785187 </v>
   <v>       0.93642713       0.27947956       0.12459003 </v>
   <v>       0.31141752       0.04168252       0.38855725 </v>
   <v>       0.06289758       0.04112033       0.65577518 </v>
   <v>       0.56087863       0.37526946       0.43301845 </v>
   <v>       0.68760882       0.46240992       0.74452023 </v>
   <v>       0.56348249       0.21353725       0.74444975 </v>
   <v>       0.94255639       0.12691530       0.70038799 </v>
   <v>       0.56315694       0.04109427       0.65579192 </v>
   <v>       0.56107862       0.54076947       0.52208986 </v>
   <v>       0.18262688       0.12350168       0.29953702 </v>
   <v>       0.43897000       0.11247847       0.16596921 </v>
   <v>       0.68285425       0.62318705       0.29970300 </v>
   <v>       0.93255859       0.12331629       0.29965111 </v>
   <v>       0.81416520       0.37480152       0.56687826 </v>
   <v>       0.05778987       0.87299559       0.29961461 </v>
   <v>       0.18899727       0.62486670       0.56691480 </v>
   <v>       0.94114698       0.79910324       0.78891717 </v>
   <v>       0.31125172       0.38682994       0.83418829 </v>
   <v>       0.93936263       0.47145209       0.87556163 </v>
   <v>       0.43664866       0.63708458       0.83410154 </v>
   <v>       0.06180395       0.20864599       0.34415758 </v>
   <v>       0.18881652       0.97117279       0.87555785 </v>
   <v>       0.93611480       0.77934974       0.12454789 </v>
   <v>       0.68637286       0.79183258       0.38851682 </v>
   <v>       0.93797606       0.79159764       0.65579947 </v>
   <v>       0.93861820       0.11392035       0.16616320 </v>
   <v>       0.43777526       0.29149001       0.65583800 </v>
   <v>       0.05840959       0.20100779       0.21105090 </v>
   <v>       0.68277773       0.95124993       0.21115551 </v>
   <v>       0.18262368       0.62309842       0.29966374 </v>
   <v>       0.81701608       0.87659761       0.70034956 </v>
   <v>       0.94243338       0.62678644       0.70042111 </v>
   <v>       0.19227008       0.12690159       0.70037340 </v>
   <v>       0.93910902       0.45883616       0.47786955 </v>
   <v>       0.81325055       0.20802270       0.61144480 </v>
   <v>       0.18683415       0.62500402       0.43304673 </v>
   <v>       0.43243544       0.12364157       0.29959082 </v>
   <v>       0.68295721       0.12270863       0.29960979 </v>
   <v>       0.56125070       0.54125030       0.38855095 </v>
   <v>       0.81183607       0.20845175       0.34429245 </v>
   <v>       0.43910657       0.47142411       0.87547140 </v>
   <v>       0.56104284       0.88671093       0.83422845 </v>
   <v>       0.31397246       0.20925356       0.47784940 </v>
   <v>       0.18842164       0.95907548       0.47780104 </v>
   <v>       0.06110752       0.88673239       0.83418080 </v>
   <v>       0.06109806       0.54054074       0.52206885 </v>
   <v>       0.93899361       0.95888656       0.47785754 </v>
   <v>       0.06343786       0.70794406       0.61140749 </v>
   <v>       0.56095157       0.04094750       0.52210799 </v>
   <v>       0.69186968       0.29877860       0.78875452 </v>
   <v>       0.81407290       0.36377159       0.16598148 </v>
   <v>       0.43576756       0.12489722       0.43304249 </v>
   <v>       0.06395185       0.20893297       0.47793647 </v>
   <v>       0.31304688       0.04136828       0.65579639 </v>
   <v>       0.43613250       0.79049278       0.52211465 </v>
   <v>       0.18666549       0.13684437       0.83410378 </v>
   <v>       0.18582123       0.27947501       0.12460194 </v>
   <v>       0.93677148       0.45848323       0.34410160 </v>
   <v>       0.56468970       0.86396631       0.16587453 </v>
   <v>       0.30751534       0.70029912       0.21107978 </v>
   <v>       0.93824947       0.61269990       0.16610824 </v>
   <v>       0.18831010       0.45812105       0.61143312 </v>
   <v>       0.06720402       0.87677534       0.70024244 </v>
   <v>       0.06308047       0.54150425       0.65587413 </v>
   <v>       0.30992897       0.53081094       0.12445016 </v>
   <v>       0.93637478       0.79195707       0.38847128 </v>
   <v>       0.94153662       0.29863216       0.78884041 </v>
   <v>       0.18797066       0.29149141       0.65584563 </v>
   <v>       0.93844728       0.95813413       0.61150945 </v>
   <v>       0.81354422       0.71308166       0.74455611 </v>
   <v>       0.68608832       0.28746026       0.25547339 </v>
   <v>       0.06386073       0.71299616       0.74444408 </v>
   <v>       0.68283275       0.45149735       0.21122113 </v>
   <v>       0.81389411       0.20885243       0.47782163 </v>
   <v>       0.56387870       0.70916962       0.47790306 </v>
   <v>       0.06397456       0.86397700       0.16603676 </v>
   <v>       0.93618826       0.29064591       0.52221571 </v>
   <v>       0.68758005       0.79162097       0.65580050 </v>
   <v>       0.06132413       0.87470338       0.43297542 </v>
   <v>       0.06566419       0.21961448       0.87577981 </v>
   <v>       0.81300268       0.04120496       0.65577080 </v>
   <v>       0.56010699       0.03020943       0.12434342 </v>
   <v>       0.31052746       0.37506982       0.43304920 </v>
   <v>       0.31414342       0.37467901       0.56676214 </v>
   <v>       0.31386202       0.70921840       0.47787663 </v>
   <v>       0.06122403       0.04062251       0.52206745 </v>
   <v>       0.31723929       0.87660859       0.70037682 </v>
   <v>       0.06182292       0.53696824       0.25554654 </v>
   <v>       0.68661888       0.13724656       0.83407519 </v>
   <v>       0.81092700       0.03681674       0.25563530 </v>
   <v>       0.18686365       0.12499287       0.43297375 </v>
   <v>       0.69231370       0.12640688       0.70033371 </v>
   <v>       0.18632867       0.29075015       0.52220845 </v>
   <v>       0.43643411       0.78757883       0.25553135 </v>
   <v>       0.43809406       0.61277077       0.16612826 </v>
   <v>       0.06317311       0.20798240       0.61140661 </v>
   <v>       0.18656545       0.79158025       0.38840176 </v>
   <v>       0.31129364       0.54080087       0.52212929 </v>
   <v>       0.81716943       0.37666100       0.70036777 </v>
   <v>       0.68642790       0.29170793       0.38842837 </v>
   <v>       0.18920631       0.12471620       0.56683782 </v>
   <v>       0.68900247       0.97162677       0.87552870 </v>
   <v>       0.68907354       0.12483489       0.56686825 </v>
   <v>       0.43689762       0.95852539       0.34416251 </v>
   <v>       0.18841447       0.96290230       0.74452523 </v>
   <v>       0.93678889       0.78724739       0.25548418 </v>
   <v>       0.56106187       0.87511698       0.43299785 </v>
   <v>       0.31087278       0.87504199       0.43308398 </v>
   <v>       0.81109196       0.54040619       0.52215845 </v>
   <v>       0.93272980       0.45167109       0.21123751 </v>
   <v>       0.31141520       0.53699208       0.25551223 </v>
   <v>       0.56143162       0.04147713       0.38847447 </v>
   <v>       0.93836926       0.45780763       0.61145105 </v>
   <v>       0.06159687       0.04179458       0.38845586 </v>
   <v>       0.06147983       0.54186066       0.38845047 </v>
   <v>       0.43653316       0.29156325       0.38849425 </v>
   <v>       0.68880400       0.45907170       0.47791244 </v>
   <v>       0.06413150       0.37479441       0.56689883 </v>
   <v>       0.55792351       0.70072010       0.21106730 </v>
   <v>       0.93680244       0.28724477       0.25560342 </v>
   <v>       0.81653115       0.04936487       0.78889376 </v>
   <v>       0.18711034       0.95831329       0.34414925 </v>
   <v>       0.31393448       0.36341695       0.16592413 </v>
   <v>       0.06138433       0.37472551       0.43300778 </v>
   <v>       0.31182615       0.70779159       0.34419722 </v>
   <v>       0.31176013       0.20798497       0.34419742 </v>
   <v>       0.93893908       0.12498197       0.56681211 </v>
   <v>       0.43819929       0.95799925       0.61148528 </v>
   <v>       0.56075337       0.03698689       0.25557424 </v>
   <v>       0.18681786       0.77880746       0.12430906 </v>
   <v>       0.06221995       0.03718995       0.25564089 </v>
   <v>       0.68915349       0.62468718       0.56689080 </v>
   <v>       0.06008813       0.52970827       0.12437591 </v>
   <v>       0.31116210       0.04115688       0.52214117 </v>
   <v>       0.68648397       0.27929772       0.12455625 </v>
   <v>       0.81381410       0.70906795       0.47790264 </v>
   <v>       0.43663917       0.13671287       0.83397514 </v>
   <v>       0.31743695       0.37627676       0.70035260 </v>
   <v>       0.68687093       0.63713091       0.83410026 </v>
   <v>       0.56331047       0.71279489       0.74450412 </v>
   <v>       0.93636711       0.29220605       0.38849018 </v>
   <v>       0.93914781       0.97126686       0.87553646 </v>
   <v>       0.56358649       0.20818871       0.61148009 </v>
   <v>       0.81413062       0.87489897       0.56689547 </v>
   <v>       0.80785388       0.87332469       0.29957013 </v>
   <v>       0.31148599       0.03693432       0.25558592 </v>
   <v>       0.43705910       0.27971626       0.12463490 </v>
   <v>       0.31321183       0.70801392       0.61146427 </v>
   <v>       0.43570813       0.62507753       0.43302539 </v>
   <v>       0.93562542       0.62513903       0.43309260 </v>
   <v>       0.31502532       0.86341986       0.16554600 </v>
   <v>       0.06723003       0.54928223       0.78880893 </v>
   <v>       0.93559564       0.12513701       0.43307075 </v>
   <v>       0.55708282       0.87362709       0.29966728 </v>
   <v>       0.93755726       0.96304443       0.74463827 </v>
   <v>       0.81188875       0.53674233       0.25539137 </v>
  </varray>
 </structure>
</modeling>
