unknown system                          
           1
     9.726678    0.000000    0.000000
     0.000000    8.423550    0.000000
     0.000000    0.000000   45.000000
   Fe   Mn
 281   7
Direct configuration=     1
   0.05395252  0.70111213  0.21121715
   0.31817186  0.72375559  0.87625219
   0.68842217  0.95875134  0.61149064
   0.43839836  0.45854414  0.61158910
   0.44077144  0.28737366  0.25503955
   0.05871129  0.38812323  0.83357089
   0.30858177  0.88773931  0.83360610
   0.44691537  0.62626810  0.70039238
   0.05987719  0.21270716  0.74492969
   0.17945197  0.45105328  0.21128924
   0.56779237  0.21061050  0.47750343
   0.06675423  0.87512857  0.56688234
   0.56834024  0.22388645  0.87614606
   0.80727126  0.52704360  0.12386249
   0.42965901  0.95108858  0.21135196
   0.56665872  0.37503068  0.56686275
   0.81160352  0.04198126  0.38831692
   0.68182729  0.78898468  0.52248326
   0.44267091  0.46081342  0.47752392
   0.43385786  0.96261031  0.74476720
   0.44166067  0.62495290  0.56689111
   0.57151142  0.87627660  0.70056620
   0.30901348  0.02643211  0.12393992
   0.68997461  0.95875351  0.34399239
   0.68744752  0.78211123  0.12420423
   0.05309856  0.37367937  0.29944488
   0.68980290  0.46796164  0.87609192
   0.42876724  0.45126075  0.21131318
   0.80861846  0.37529678  0.43308074
   0.56355657  0.70870194  0.61154823
   0.55975623  0.54056912  0.65589213
   0.81730109  0.86202430  0.16659461
   0.56544291  0.53798071  0.25515664
   0.68963885  0.45870697  0.34391134
   0.19201825  0.61221026  0.16653645
   0.19449636  0.79941650  0.78882100
   0.44723287  0.12595243  0.70041120
   0.92818942  0.62320676  0.29959425
   0.31733401  0.22363816  0.87611661
   0.31652534  0.87478095  0.56686109
   0.81753291  0.22380213  0.87616988
   0.80975540  0.54071322  0.65581745
   0.55867486  0.52686948  0.12397061
   0.56928904  0.04973961  0.78898349
   0.19030889  0.28722348  0.25513674
   0.80853823  0.87509876  0.43310996
   0.57230770  0.37633826  0.70040663
   0.05785572  0.02694877  0.12402443
   0.30980350  0.54063411  0.65594144
   0.56479575  0.20890153  0.34394625
   0.18828107  0.95852753  0.61147220
   0.30290738  0.37381479  0.29954400
   0.43456045  0.79050309  0.65595045
   0.19479521  0.29898733  0.78878211
   0.06688752  0.36251790  0.16657807
   0.69703973  0.62628714  0.70044060
   0.31146141  0.54106716  0.38843638
   0.06763729  0.72330368  0.87623395
   0.93393854  0.63754976  0.83391101
   0.31976666  0.54959794  0.78892309
   0.30509849  0.20054306  0.21107963
   0.06793653  0.71062271  0.47747827
   0.55498282  0.20067192  0.21103596
   0.30969432  0.21238479  0.74493320
   0.07195951  0.37631301  0.70050773
   0.18320103  0.63772627  0.83359402
   0.06942547  0.04938522  0.78900853
   0.44149549  0.12505685  0.56692653
   0.93478582  0.29094546  0.65587785
   0.80486900  0.20122626  0.21117101
   0.92938553  0.95140308  0.21122307
   0.94170156  0.62524882  0.56681071
   0.80816280  0.38765066  0.83351651
   0.19709829  0.62624264  0.70033723
   0.80849611  0.88759107  0.83352462
   0.68497917  0.29086942  0.65605792
   0.31318012  0.20835188  0.61149530
   0.43464585  0.46276425  0.74486346
   0.43642332  0.79121415  0.38838970
   0.68447649  0.96269424  0.74486726
   0.80407723  0.70095872  0.21123074
   0.81349358  0.70865457  0.61160438
   0.43646476  0.78312916  0.12395643
   0.30978339  0.71214501  0.74480631
   0.32000436  0.04947481  0.78887578
   0.81121568  0.54151515  0.38831990
   0.68234646  0.28864578  0.52234954
   0.69498081  0.79936271  0.78889991
   0.19043073  0.78801641  0.25530942
   0.69152991  0.11223025  0.16659964
   0.69284226  0.96070551  0.47746188
   0.94017688  0.95931263  0.34400801
   0.80726181  0.03928585  0.52255695
   0.68347225  0.62476216  0.43308418
   0.44010915  0.45828128  0.34412746
   0.81048839  0.21153265  0.74460273
   0.43965310  0.96819352  0.87609200
   0.56659759  0.87490430  0.56685767
   0.80943277  0.02794917  0.12398279
   0.42845481  0.62350174  0.29939271
   0.81670249  0.72377572  0.87635067
   0.68823438  0.45845115  0.61152626
   0.55878643  0.38761604  0.83350357
   0.80323307  0.37336269  0.29946865
   0.18621544  0.29116189  0.38834107
   0.81994763  0.54928019  0.78893387
   0.18229271  0.78943622  0.52255312
   0.30314202  0.87391716  0.29958669
   0.17855001  0.95144946  0.21131436
   0.18444896  0.46244224  0.74489589
   0.43241735  0.28870530  0.52231913
   0.06515211  0.70876732  0.34396042
   0.18481679  0.79062720  0.65588657
   0.44467607  0.79927809  0.78885065
   0.68369400  0.12504126  0.43293110
   0.93222177  0.78890068  0.52255473
   0.69160029  0.61235670  0.16646149
   0.81455204  0.70890332  0.34388694
   0.93443949  0.46259188  0.74495864
   0.19010454  0.45895067  0.34406281
   0.56984339  0.54968152  0.78904021
   0.56724909  0.36194165  0.16659056
   0.56478956  0.70895512  0.34393715
   0.55323388  0.37404396  0.29955651
   0.18978533  0.46814192  0.87608976
   0.19143217  0.11133778  0.16641369
   0.44477230  0.29902461  0.78881965
   0.69111559  0.78742911  0.25528568
   0.93357567  0.13760605  0.83351673
   0.44272580  0.96069591  0.47748115
   0.56755541  0.72468569  0.87623377
   0.19265702  0.46057685  0.47750702
   0.93507911  0.28220051  0.12409918
   0.31132792  0.04168870  0.38845960
   0.06005548  0.04043935  0.65601892
   0.55863527  0.37515144  0.43306953
   0.68417189  0.46286195  0.74493521
   0.56016785  0.21233767  0.74481004
   0.94710951  0.12631244  0.70036279
   0.55953848  0.04078111  0.65586167
   0.55723249  0.53909575  0.52255731
   0.17836687  0.12411697  0.29954913
   0.44154470  0.11126570  0.16635582
   0.67774139  0.62368560  0.29952745
   0.92793699  0.12362894  0.29961920
   0.81655015  0.37508595  0.56688605
   0.05277537  0.87420928  0.29954379
   0.19169961  0.62496190  0.56689307
   0.94452860  0.79958500  0.78886652
   0.30850113  0.38756733  0.83348919
   0.93964273  0.46845237  0.87609517
   0.43368776  0.63791084  0.83351770
   0.06452386  0.20868101  0.34379283
   0.18974743  0.96800668  0.87609042
   0.93557103  0.78240172  0.12417716
   0.68652320  0.79115672  0.38840342
   0.93475752  0.79062976  0.65590307
   0.94161055  0.11225083  0.16649674
   0.43502934  0.29081214  0.65607436
   0.05439167  0.20087414  0.21124998
   0.67908915  0.95149944  0.21128319
   0.17852624  0.62347748  0.29940181
   0.82211292  0.87609942  0.70043999
   0.94684706  0.62643807  0.70050316
   0.19710099  0.12625389  0.70036500
   0.94261776  0.46055727  0.47728396
   0.81340245  0.20852604  0.61155828
   0.18315820  0.62499230  0.43313992
   0.42856132  0.12357648  0.29943656
   0.67766022  0.12358851  0.29953192
   0.56188839  0.54136825  0.38855611
   0.81472539  0.20797072  0.34399947
   0.43989753  0.46800430  0.87593850
   0.55867170  0.88758938  0.83349612
   0.31786354  0.21046882  0.47732045
   0.19272605  0.96079609  0.47750931
   0.05849089  0.88783715  0.83355932
   0.05728051  0.53915248  0.52255966
   0.94266876  0.96052603  0.47728777
   0.06332931  0.70854580  0.61161890
   0.55731331  0.03888219  0.52244050
   0.69512344  0.29901880  0.78877816
   0.81691660  0.36226326  0.16669202
   0.43350112  0.12479765  0.43306060
   0.06800089  0.21063883  0.47748554
   0.30984054  0.04079150  0.65590416
   0.43210631  0.78902367  0.52236792
   0.18384144  0.13787890  0.83356539
   0.18534216  0.28297215  0.12424588
   0.94033960  0.45939694  0.34405476
   0.56646735  0.86237742  0.16648877
   0.30369014  0.70108914  0.21121730
   0.94133188  0.61221737  0.16645343
   0.18829482  0.45860251  0.61150562
   0.07234994  0.87642411  0.70036239
   0.05977285  0.54075553  0.65589963
   0.30734300  0.52712352  0.12390100
   0.93651286  0.79132181  0.38846298
   0.94507886  0.29880238  0.78877637
   0.18465625  0.29065273  0.65589160
   0.93818247  0.95839950  0.61149886
   0.80996092  0.71186530  0.74484600
   0.69096127  0.28754923  0.25532113
   0.05930127  0.71230496  0.74501833
   0.67919099  0.45117912  0.21130450
   0.81776605  0.21073746  0.47747357
   0.56762621  0.71062133  0.47748742
   0.06728285  0.86260118  0.16659719
   0.93245274  0.28839373  0.52235833
   0.68463872  0.79035429  0.65589079
   0.05834370  0.87485772  0.43307540
   0.06813120  0.22301845  0.87616457
   0.80975177  0.04063308  0.65590636
   0.55968963  0.02794169  0.12383184
   0.30881170  0.37514059  0.43302379
   0.31647939  0.37497861  0.56686739
   0.31772743  0.71038237  0.47732762
   0.05714187  0.03911874  0.52254075
   0.32194288  0.87635190  0.70054792
   0.06523450  0.53783109  0.25502356
   0.68352703  0.13781499  0.83354893
   0.81529961  0.03755653  0.25506656
   0.18338213  0.12472396  0.43304508
   0.69721173  0.12632642  0.70044469
   0.18244351  0.28918459  0.52254870
   0.44029342  0.78745885  0.25513287
   0.44140253  0.61229743  0.16644851
   0.06352500  0.20862163  0.61155029
   0.18605963  0.79103326  0.38836017
   0.30701393  0.53875390  0.52248158
   0.82194097  0.37630477  0.70022464
   0.68653236  0.29120903  0.38842820
   0.19165516  0.12500459  0.56691508
   0.68972479  0.96842584  0.87608880
   0.69156332  0.12504135  0.56690854
   0.44003010  0.95838926  0.34401778
   0.18385857  0.96252127  0.74474241
   0.94013058  0.78745674  0.25520933
   0.55860726  0.87516572  0.43309740
   0.30834854  0.87497456  0.43311740
   0.80721929  0.53929567  0.52258559
   0.92904377  0.45120700  0.21126889
   0.31514971  0.53774273  0.25515562
   0.56156213  0.04126699  0.38842544
   0.93821770  0.45841050  0.61163311
   0.06140560  0.04140508  0.38837673
   0.06180203  0.54140496  0.38842273
   0.43617866  0.29082405  0.38845101
   0.69284200  0.46078784  0.47747417
   0.06666183  0.37499272  0.56689559
   0.55405838  0.70116211  0.21115442
   0.94041090  0.28762722  0.25514510
   0.81924553  0.04962564  0.78906696
   0.18972547  0.95886652  0.34393481
   0.31694189  0.36216318  0.16657453
   0.05843623  0.37491852  0.43308789
   0.31501392  0.70916623  0.34393216
   0.31458115  0.20878108  0.34389777
   0.94162243  0.12516663  0.56682559
   0.43844871  0.95886248  0.61156943
   0.56510474  0.03782127  0.25509551
   0.18638225  0.78254167  0.12422395
   0.06508391  0.03740915  0.25505363
   0.69155244  0.62498758  0.56691178
   0.05725317  0.52618377  0.12401051
   0.30706876  0.03835142  0.52228946
   0.68597843  0.28254813  0.12409197
   0.81785098  0.71075995  0.47748934
   0.43359640  0.13786497  0.83350836
   0.32243602  0.37635287  0.70043228
   0.68363702  0.63784701  0.83350578
   0.55980035  0.71193407  0.74486020
   0.93642629  0.29129452  0.38849892
   0.93979820  0.96836810  0.87610710
   0.56283790  0.20807575  0.61132554
   0.81653115  0.87506568  0.56690211
   0.80305356  0.87341628  0.29938334
   0.31525067  0.03761535  0.25513120
   0.43640149  0.28305081  0.12416788
   0.31360510  0.70866889  0.61158417
   0.43322838  0.62497707  0.43313477
   0.93285972  0.62485622  0.43320000
   0.31799217  0.86262605  0.16574699
   0.07054602  0.54942172  0.78874222
   0.93342138  0.12437782  0.43307364
   0.55239894  0.87304185  0.29965698
   0.93335246  0.96227604  0.74466632
   0.81593760  0.53809052  0.25533797
Direct configuration=     2
   0.05450322  0.70109004  0.21118473
   0.31786393  0.72327963  0.87618230
   0.68840262  0.95866385  0.61148249
   0.43839973  0.45846920  0.61157255
   0.44018921  0.28732710  0.25510214
   0.05904030  0.38794992  0.83365674
   0.30896482  0.88758837  0.83368925
   0.44626142  0.62630469  0.70039081
   0.06042017  0.21276718  0.74486733
   0.17991535  0.45103071  0.21125851
   0.56723912  0.21037767  0.47755410
   0.06637458  0.87508047  0.56688411
   0.56796002  0.22331475  0.87608458
   0.80767121  0.52749978  0.12393746
   0.43014637  0.95115209  0.21131806
   0.56631605  0.37495707  0.56684776
   0.81160693  0.04197926  0.38834113
   0.68244596  0.78924239  0.52243735
   0.44213777  0.46055153  0.47756824
   0.43445451  0.96263701  0.74473040
   0.44128026  0.62492336  0.56688426
   0.57094090  0.87630464  0.70053346
   0.30926068  0.02699696  0.12395450
   0.68950822  0.95863566  0.34400482
   0.68744477  0.78179482  0.12425459
   0.05374551  0.37363192  0.29946276
   0.68969342  0.46844820  0.87600734
   0.42934804  0.45127493  0.21127690
   0.80894007  0.37530618  0.43307571
   0.56350739  0.70861428  0.61154551
   0.56020454  0.54069186  0.65587619
   0.81689942  0.86226521  0.16649094
   0.56481727  0.53786125  0.25521298
   0.68923218  0.45859663  0.34393784
   0.19159272  0.61234698  0.16648039
   0.19412161  0.79939544  0.78881265
   0.44655555  0.12604137  0.70041087
   0.92885591  0.62319004  0.29960921
   0.31705669  0.22313398  0.87605674
   0.31617053  0.87476883  0.56685068
   0.81722113  0.22326844  0.87610298
   0.81019340  0.54086707  0.65581238
   0.55884968  0.52729617  0.12403440
   0.56893501  0.04971096  0.78897790
   0.18980379  0.28713893  0.25518603
   0.80883902  0.87512055  0.43310531
   0.57157480  0.37636011  0.70041306
   0.05829558  0.02738835  0.12407513
   0.31024937  0.54072464  0.65592064
   0.56437238  0.20874793  0.34397579
   0.18829416  0.95845856  0.61146781
   0.30352364  0.37377109  0.29954847
   0.43505757  0.79067212  0.65593185
   0.19437966  0.29891243  0.78879492
   0.06646421  0.36263691  0.16648746
   0.69634236  0.62633955  0.70042976
   0.31150666  0.54116022  0.38844202
   0.06731479  0.72281890  0.87618364
   0.93427224  0.63743665  0.83396579
   0.31942078  0.54962021  0.78892624
   0.30545493  0.20059018  0.21107314
   0.06735395  0.71037478  0.47754172
   0.55533576  0.20077909  0.21102647
   0.31027815  0.21252271  0.74486208
   0.07130339  0.37639619  0.70048706
   0.18363899  0.63758944  0.83365915
   0.06906208  0.04935389  0.78899750
   0.44115983  0.12499630  0.56691018
   0.93527044  0.29103562  0.65584865
   0.80524255  0.20124626  0.21115752
   0.92987657  0.95139893  0.21122365
   0.94132174  0.62519975  0.56681167
   0.80858397  0.38750648  0.83361463
   0.19639727  0.62629271  0.70033996
   0.80887709  0.88743020  0.83363427
   0.68541141  0.29092567  0.65602125
   0.31322646  0.20832711  0.61149851
   0.43515999  0.46274127  0.74480097
   0.43645762  0.79126047  0.38840523
   0.68493418  0.96267756  0.74481522
   0.80456148  0.70092844  0.21119940
   0.81346032  0.70856463  0.61157856
   0.43648703  0.78262418  0.12398830
   0.31025551  0.71225684  0.74475352
   0.31961359  0.04947365  0.78889244
   0.81128805  0.54157228  0.38833822
   0.68287637  0.28900620  0.52232840
   0.69454158  0.79935727  0.78889771
   0.18985893  0.78795340  0.25533791
   0.69114966  0.11249229  0.16653023
   0.69226201  0.96049163  0.47752557
   0.93972578  0.95916832  0.34401854
   0.80780457  0.03944139  0.52249661
   0.68369925  0.62481455  0.43308447
   0.43963568  0.45830438  0.34413130
   0.81088849  0.21180672  0.74458624
   0.43957472  0.96867175  0.87601002
   0.56624622  0.87485669  0.56684767
   0.80957342  0.02823575  0.12405692
   0.42901647  0.62344255  0.29943888
   0.81649416  0.72330040  0.87627424
   0.68823933  0.45838224  0.61150967
   0.55910358  0.38751665  0.83358300
   0.80392605  0.37333699  0.29949516
   0.18624302  0.29123995  0.38835584
   0.81946774  0.54932126  0.78895256
   0.18284341  0.78958584  0.52250557
   0.30371658  0.87386930  0.29959700
   0.17913680  0.95146520  0.21130462
   0.18505594  0.46252329  0.74483242
   0.43292867  0.28900046  0.52228849
   0.06471638  0.70873147  0.34399232
   0.18529936  0.79070797  0.65586278
   0.44425172  0.79930516  0.78884187
   0.68386585  0.12502988  0.43295146
   0.93278121  0.78908303  0.52250352
   0.69117374  0.61237185  0.16640886
   0.81414150  0.70883496  0.34392678
   0.93498670  0.46260969  0.74488337
   0.18965237  0.45885512  0.34406547
   0.56947818  0.54962173  0.78902890
   0.56689113  0.36216036  0.16649283
   0.56434516  0.70879587  0.34399144
   0.55392187  0.37393780  0.29955810
   0.18965055  0.46857356  0.87601445
   0.19100555  0.11154350  0.16638005
   0.44435082  0.29900339  0.78881918
   0.69039912  0.78740252  0.25530487
   0.93404517  0.13748617  0.83360162
   0.44218374  0.96046119  0.47752978
   0.56725281  0.72405493  0.87616181
   0.19208264  0.46035729  0.47755620
   0.93527135  0.28181249  0.12416918
   0.31134070  0.04168782  0.38847353
   0.06046078  0.04053646  0.65598416
   0.55895519  0.37516827  0.43306224
   0.68466202  0.46279749  0.74487603
   0.56064054  0.21250874  0.74475866
   0.94646021  0.12639841  0.70036638
   0.56005450  0.04082577  0.65585172
   0.55778097  0.53933444  0.52249065
   0.17897438  0.12402923  0.29954740
   0.44117753  0.11143865  0.16630068
   0.67847052  0.62361450  0.29955249
   0.92859606  0.12358436  0.29962375
   0.81621004  0.37504539  0.56688494
   0.05349047  0.87403620  0.29955389
   0.19131424  0.62494832  0.56689616
   0.94404636  0.79951630  0.78887374
   0.30889338  0.38746217  0.83358889
   0.93960278  0.46888015  0.87601908
   0.43411000  0.63779301  0.83360096
   0.06413598  0.20867602  0.34384484
   0.18961468  0.96845819  0.87601447
   0.93564857  0.78196649  0.12423003
   0.68650176  0.79125310  0.38841959
   0.93521651  0.79076779  0.65588829
   0.94118382  0.11248891  0.16644917
   0.43542093  0.29090881  0.65604066
   0.05496465  0.20089320  0.21122159
   0.67961517  0.95146386  0.21126498
   0.17911056  0.62342342  0.29943917
   0.82138608  0.87617046  0.70042709
   0.94621763  0.62648775  0.70049146
   0.19641207  0.12634625  0.70036620
   0.94211739  0.46031183  0.47736747
   0.81338079  0.20845426  0.61154210
   0.18368241  0.62499397  0.43312663
   0.42911380  0.12358576  0.29945856
   0.67841561  0.12346303  0.29954302
   0.56179745  0.54135143  0.38855538
   0.81431335  0.20803932  0.34404125
   0.43978473  0.46849199  0.87587189
   0.55900984  0.88746411  0.83360056
   0.31730865  0.21029551  0.47739588
   0.19211221  0.96055072  0.47755091
   0.05886404  0.88767961  0.83364794
   0.05782492  0.53935045  0.52248967
   0.94214466  0.96029223  0.47736903
   0.06334479  0.70845999  0.61158875
   0.55783215  0.03917672  0.52239308
   0.69465943  0.29898455  0.78877479
   0.81651107  0.36247836  0.16659069
   0.43382433  0.12481185  0.43305802
   0.06742347  0.21039557  0.47754985
   0.31029779  0.04087375  0.65588879
   0.43268047  0.78923318  0.52233180
   0.18424416  0.13773137  0.83364217
   0.18541048  0.28247343  0.12429666
   0.93983076  0.45926664  0.34406144
   0.56621385  0.86260401  0.16640118
   0.30423564  0.70097648  0.21119769
   0.94089230  0.61228618  0.16640421
   0.18829700  0.45853385  0.61149528
   0.07161610  0.87647419  0.70034528
   0.06024454  0.54086230  0.65589600
   0.30771178  0.52764937  0.12397931
   0.93649317  0.79141241  0.38846417
   0.94457371  0.29877810  0.78878550
   0.18512891  0.29077233  0.65588504
   0.93822023  0.95836166  0.61150037
   0.81047192  0.71203877  0.74480466
   0.69026636  0.28753654  0.25534284
   0.05995148  0.71240353  0.74493644
   0.67971033  0.45122450  0.21129261
   0.81721389  0.21046864  0.47752321
   0.56709179  0.71041431  0.47754669
   0.06681106  0.86279738  0.16651727
   0.93298545  0.28871490  0.52233799
   0.68505817  0.79053493  0.65587791
   0.05876873  0.87483571  0.43306114
   0.06777939  0.22253303  0.87610970
   0.81021538  0.04071463  0.65588703
   0.55974915  0.02826508  0.12390480
   0.30905638  0.37513050  0.43302741
   0.31614626  0.37493589  0.56685238
   0.31717620  0.71021638  0.47740592
   0.05772402  0.03933319  0.52247325
   0.32127212  0.87638851  0.70052352
   0.06474799  0.53770805  0.25509814
   0.68396795  0.13773393  0.83362398
   0.81467605  0.03745103  0.25514766
   0.18387862  0.12476231  0.43303491
   0.69651324  0.12633790  0.70042886
   0.18299756  0.28940785  0.52250017
   0.43974306  0.78747596  0.25518970
   0.44093072  0.61236493  0.16640284
   0.06347482  0.20853047  0.61152980
   0.18613176  0.79111127  0.38836610
   0.30762425  0.53904581  0.52243134
   0.82126052  0.37635557  0.70024505
   0.68651746  0.29128018  0.38842823
   0.19130594  0.12496346  0.56690406
   0.68962178  0.96888232  0.87600892
   0.69120826  0.12501191  0.56690280
   0.43958339  0.95840868  0.34403842
   0.18450827  0.96257561  0.74471144
   0.93965403  0.78742688  0.25524853
   0.55895730  0.87515877  0.43308320
   0.30870851  0.87498418  0.43311263
   0.80777156  0.53945404  0.52252468
   0.92956942  0.45127319  0.21126441
   0.31461715  0.53763568  0.25520648
   0.56154352  0.04129696  0.38843243
   0.93823931  0.45832453  0.61160715
   0.06143288  0.04146063  0.38838802
   0.06175608  0.54146994  0.38842669
   0.43622921  0.29092946  0.38845717
   0.69226615  0.46054310  0.47753667
   0.06630098  0.37496444  0.56689605
   0.55460957  0.70109908  0.21114200
   0.93989631  0.28757268  0.25521046
   0.81885845  0.04958845  0.78904226
   0.18935253  0.95878763  0.34396539
   0.31651302  0.36234197  0.16648178
   0.05885665  0.37489099  0.43307647
   0.31455933  0.70897020  0.34396996
   0.31417885  0.20866755  0.34394050
   0.94123976  0.12514030  0.56682367
   0.43841314  0.95873938  0.61155743
   0.56448421  0.03770228  0.25516378
   0.18644437  0.78200915  0.12423609
   0.06467549  0.03737789  0.25513737
   0.69121033  0.62494474  0.56690879
   0.05765745  0.52668639  0.12406262
   0.30765250  0.03875150  0.52226831
   0.68605052  0.28208460  0.12415818
   0.81727529  0.71051866  0.47754828
   0.43403032  0.13770067  0.83357493
   0.32172312  0.37634202  0.70042092
   0.68409820  0.63774489  0.83359055
   0.56030092  0.71205683  0.74480942
   0.93641785  0.29142451  0.38849767
   0.93970545  0.96878148  0.87602572
   0.56294465  0.20809186  0.61134758
   0.81618882  0.87504190  0.56690116
   0.80373812  0.87340322  0.29940998
   0.31471380  0.03751823  0.25519605
   0.43649527  0.28257528  0.12423448
   0.31354902  0.70857549  0.61156707
   0.43358201  0.62499139  0.43311917
   0.93325413  0.62489655  0.43318469
   0.31756908  0.86273926  0.16571833
   0.07007314  0.54940183  0.78875174
   0.93373144  0.12448609  0.43307323
   0.55306689  0.87312531  0.29965845
   0.93395210  0.96238562  0.74466232
   0.81536021  0.53789826  0.25534558
Direct configuration=     3
   0.05615534  0.70102376  0.21108745
   0.31694012  0.72185173  0.87597264
   0.68834398  0.95840139  0.61145807
   0.43840384  0.45824440  0.61152292
   0.43844252  0.28718741  0.25528991
   0.06002731  0.38742998  0.83391432
   0.31011396  0.88713556  0.83393871
   0.44429956  0.62641447  0.70038613
   0.06204911  0.21294724  0.74468025
   0.18130548  0.45096299  0.21116632
   0.56557938  0.20967921  0.47770610
   0.06523563  0.87493616  0.56688941
   0.56681935  0.22159965  0.87590015
   0.80887105  0.52886833  0.12416238
   0.43160844  0.95134262  0.21121637
   0.56528804  0.37473624  0.56680279
   0.81161715  0.04197325  0.38841375
   0.68430195  0.79001551  0.52229962
   0.44053835  0.45976586  0.47770118
   0.43624443  0.96271710  0.74462000
   0.44013901  0.62483471  0.56686369
   0.56922937  0.87638879  0.70043523
   0.31000227  0.02869152  0.12399822
   0.68810905  0.95828209  0.34404214
   0.68743654  0.78084560  0.12440564
   0.05568633  0.37348957  0.29951638
   0.68936498  0.46990791  0.87575359
   0.43109046  0.45131745  0.21116805
   0.80990489  0.37533436  0.43306063
   0.56335982  0.70835130  0.61153734
   0.56154948  0.54106007  0.65582837
   0.81569441  0.86298792  0.16617993
   0.56294036  0.53750286  0.25538202
   0.68801217  0.45826558  0.34401736
   0.19031610  0.61275715  0.16631218
   0.19299734  0.79933225  0.78878757
   0.44452357  0.12630817  0.70040991
   0.93085538  0.62313987  0.29965410
   0.31622473  0.22162145  0.87587710
   0.31510611  0.87473248  0.56681943
   0.81628577  0.22166735  0.87590226
   0.81150740  0.54132862  0.65579718
   0.55937413  0.52857627  0.12422577
   0.56787291  0.04962501  0.78896112
   0.18828848  0.28688526  0.25533390
   0.80974138  0.87518592  0.43309136
   0.56937612  0.37642566  0.70043234
   0.05961516  0.02870706  0.12422722
   0.31158701  0.54099623  0.65585823
   0.56310229  0.20828711  0.34406439
   0.18833343  0.95825164  0.61145462
   0.30537242  0.37363997  0.29956191
   0.43654892  0.79117920  0.65587606
   0.19313300  0.29868774  0.78883336
   0.06519428  0.36299391  0.16621560
   0.69425028  0.62649681  0.70039726
   0.31164238  0.54143941  0.38845896
   0.06634728  0.72136458  0.87603271
   0.93527332  0.63709732  0.83413013
   0.31838312  0.54968701  0.78893570
   0.30652426  0.20073154  0.21105367
   0.06560620  0.70963101  0.47773208
   0.55639458  0.20110058  0.21099800
   0.31202965  0.21293647  0.74464870
   0.06933502  0.37664574  0.70042505
   0.18495285  0.63717895  0.83385454
   0.06797191  0.04925991  0.78896443
   0.44015285  0.12481464  0.56686111
   0.93672430  0.29130607  0.65576105
   0.80636318  0.20130625  0.21111705
   0.93134970  0.95138648  0.21122540
   0.94018228  0.62505255  0.56681456
   0.80984748  0.38707395  0.83390899
   0.19429422  0.62644292  0.70034815
   0.81002003  0.88694758  0.83396320
   0.68670812  0.29109441  0.65591126
   0.31336549  0.20825280  0.61150817
   0.43670238  0.46267233  0.74461350
   0.43656052  0.79139942  0.38845182
   0.68630722  0.96262751  0.74465910
   0.80601422  0.70083762  0.21110537
   0.81336052  0.70829483  0.61150110
   0.43655385  0.78110921  0.12408392
   0.31167187  0.71259236  0.74459515
   0.31844129  0.04947018  0.78894242
   0.81150515  0.54174369  0.38839321
   0.68446611  0.29008747  0.52226497
   0.69322387  0.79934096  0.78889112
   0.18814354  0.78776434  0.25542336
   0.69000894  0.11327842  0.16632201
   0.69052126  0.95984997  0.47771662
   0.93837249  0.95873540  0.34405016
   0.80943286  0.03990799  0.52231561
   0.68438026  0.62497174  0.43308532
   0.43821527  0.45837366  0.34414280
   0.81208879  0.21262893  0.74453679
   0.43933961  0.97010646  0.87576408
   0.56519212  0.87471386  0.56681765
   0.80999536  0.02909551  0.12427931
   0.43070147  0.62326496  0.29957736
   0.81586917  0.72187447  0.87604496
   0.68825417  0.45817553  0.61145990
   0.56005503  0.38721848  0.83382127
   0.80600499  0.37325987  0.29957467
   0.18632575  0.29147414  0.38840015
   0.81802807  0.54944447  0.78900863
   0.18449550  0.79003471  0.52236289
   0.30544026  0.87372571  0.29962794
   0.18089716  0.95151242  0.21127541
   0.18687687  0.46276644  0.74464201
   0.43446263  0.28988594  0.52219659
   0.06340920  0.70862393  0.34408804
   0.18674710  0.79095029  0.65579143
   0.44297866  0.79938637  0.78881553
   0.68438139  0.12499572  0.43301253
   0.93445950  0.78963008  0.52234991
   0.68989408  0.61241730  0.16625095
   0.81290987  0.70862989  0.34404632
   0.93662833  0.46266312  0.74465756
   0.18829587  0.45856847  0.34407345
   0.56838258  0.54944237  0.78899497
   0.56581726  0.36281651  0.16619964
   0.56301196  0.70831810  0.34415429
   0.55598585  0.37361931  0.29956287
   0.18924621  0.46986850  0.87578853
   0.18972567  0.11216068  0.16627913
   0.44308638  0.29893973  0.78881776
   0.68824971  0.78732276  0.25536246
   0.93545368  0.13712652  0.83385628
   0.44055758  0.95975703  0.47767567
   0.56634503  0.72216267  0.87594596
   0.19035949  0.45969859  0.47770373
   0.93584806  0.28064841  0.12437918
   0.31137903  0.04168517  0.38851530
   0.06167669  0.04082780  0.65587988
   0.55991494  0.37521876  0.43304039
   0.68613241  0.46260410  0.74469849
   0.56205861  0.21302194  0.74460452
   0.94451228  0.12665633  0.70037717
   0.56160255  0.04095974  0.65582188
   0.55942643  0.54005049  0.52229066
   0.18079690  0.12376599  0.29954222
   0.44007602  0.11195750  0.16613529
   0.68065791  0.62340121  0.29962759
   0.93057328  0.12345060  0.29963740
   0.81518971  0.37492371  0.56688161
   0.05563578  0.87351696  0.29958418
   0.19015812  0.62490759  0.56690546
   0.94259964  0.79931020  0.78889541
   0.31007014  0.38714671  0.83388797
   0.93948295  0.47016349  0.87579082
   0.43537674  0.63743952  0.83385074
   0.06297234  0.20866104  0.34400089
   0.18921642  0.96981271  0.87578663
   0.93588121  0.78066079  0.12438863
   0.68643744  0.79154225  0.38846811
   0.93659346  0.79118186  0.65584397
   0.93990363  0.11320317  0.16630648
   0.43659569  0.29119882  0.65593953
   0.05668360  0.20095038  0.21113642
   0.68119322  0.95135712  0.21121036
   0.18086354  0.62326126  0.29955122
   0.81920554  0.87638360  0.70038840
   0.94432937  0.62663679  0.70045636
   0.19434531  0.12662335  0.70036979
   0.94061628  0.45957550  0.47761800
   0.81331580  0.20823892  0.61149355
   0.18525506  0.62499898  0.43308676
   0.43077122  0.12361361  0.29952456
   0.68068177  0.12308660  0.29957634
   0.56152464  0.54130097  0.38855317
   0.81307724  0.20824511  0.34416659
   0.43944634  0.46995505  0.87567205
   0.56002427  0.88708829  0.83391386
   0.31564396  0.20977560  0.47762218
   0.19027069  0.95981461  0.47767572
   0.05998349  0.88720696  0.83391383
   0.05945815  0.53994438  0.52227969
   0.94057236  0.95959083  0.47761279
   0.06339123  0.70820255  0.61149830
   0.55938867  0.04006030  0.52225083
   0.69326740  0.29888178  0.78876468
   0.81529447  0.36312365  0.16628671
   0.43479396  0.12485445  0.43305027
   0.06569121  0.20966576  0.47774276
   0.31166953  0.04112051  0.65584268
   0.43440296  0.78986169  0.52222344
   0.18545235  0.13728878  0.83387250
   0.18561544  0.28097728  0.12444899
   0.93830425  0.45887573  0.34408148
   0.56545333  0.86328377  0.16613839
   0.30587214  0.70063849  0.21113885
   0.93957358  0.61249262  0.16625653
   0.18830354  0.45832787  0.61146427
   0.06941457  0.87662446  0.70029396
   0.06165961  0.54118262  0.65588508
   0.30881811  0.52922692  0.12421426
   0.93643409  0.79168418  0.38846772
   0.94305826  0.29870528  0.78881290
   0.18654688  0.29113114  0.65586538
   0.93833353  0.95824813  0.61150490
   0.81200493  0.71255915  0.74468064
   0.68818161  0.28749848  0.25540798
   0.06190211  0.71269924  0.74469076
   0.68126835  0.45136064  0.21125694
   0.81555739  0.20966219  0.47767211