 288 288   0   0
  0.1280206E+02  0.9726678E-09  0.8423550E-09  0.4500000E-08  0.2500000E-15
  1.000000000000000E-004
  CAR 
 unknown system                          
      6.77500747     -6.05519169  301      4.29878316      1.00000000
     -6.055  0.0000E+00  0.0000E+00
     -6.012  0.0000E+00  0.0000E+00
     -5.970  0.0000E+00  0.0000E+00
     -5.927  0.0000E+00  0.0000E+00
     -5.884  0.0000E+00  0.0000E+00
     -5.841  0.0000E+00  0.0000E+00
     -5.799  0.0000E+00  0.0000E+00
     -5.756  0.0000E+00  0.0000E+00
     -5.713  0.0000E+00  0.0000E+00
     -5.670  0.0000E+00  0.0000E+00
     -5.628  0.0000E+00  0.0000E+00
     -5.585  0.0000E+00  0.0000E+00
     -5.542  0.0000E+00  0.0000E+00
     -5.499  0.0000E+00  0.0000E+00
     -5.456  0.0000E+00  0.0000E+00
     -5.414  0.1622E-15  0.6939E-17
     -5.371  0.4121E-14  0.1832E-15
     -5.328  0.8807E-13  0.3950E-14
     -5.285  0.1607E-11  0.7267E-13
     -5.243  0.2496E-10  0.1140E-11
     -5.200  0.3301E-09  0.1526E-10
     -5.157  0.3719E-08  0.1743E-09
     -5.114  0.3569E-07  0.1701E-08
     -5.072  0.2920E-06  0.1419E-07
     -5.029  0.2037E-05  0.1013E-06
     -4.986  0.1213E-04  0.6201E-06
     -4.943  0.6177E-04  0.3262E-05
     -4.900  0.2694E-03  0.1478E-04
     -4.858  0.1010E-02  0.5798E-04
     -4.815  0.3270E-02  0.1978E-03
     -4.772  0.9203E-02  0.5914E-03
     -4.729  0.2273E-01  0.1563E-02
     -4.687  0.4983E-01  0.3694E-02
     -4.644  0.9825E-01  0.7896E-02
     -4.601  0.1765E+00  0.1544E-01
     -4.558  0.2921E+00  0.2794E-01
     -4.516  0.4488E+00  0.4713E-01
     -4.473  0.6440E+00  0.7467E-01
     -4.430  0.8672E+00  0.1118E+00
     -4.387  0.1101E+01  0.1588E+00
     -4.344  0.1322E+01  0.2154E+00
     -4.302  0.1512E+01  0.2800E+00
     -4.259  0.1656E+01  0.3509E+00
     -4.216  0.1755E+01  0.4259E+00
     -4.173  0.1826E+01  0.5040E+00
     -4.131  0.1896E+01  0.5851E+00
     -4.088  0.1993E+01  0.6703E+00
     -4.045  0.2142E+01  0.7619E+00
     -4.002  0.2344E+01  0.8621E+00
     -3.960  0.2581E+01  0.9725E+00
     -3.917  0.2819E+01  0.1093E+01
     -3.874  0.3016E+01  0.1222E+01
     -3.831  0.3138E+01  0.1356E+01
     -3.789  0.3175E+01  0.1492E+01
     -3.746  0.3145E+01  0.1627E+01
     -3.703  0.3091E+01  0.1759E+01
     -3.660  0.3063E+01  0.1890E+01
     -3.617  0.3104E+01  0.2023E+01
     -3.575  0.3229E+01  0.2161E+01
     -3.532  0.3425E+01  0.2307E+01
     -3.489  0.3656E+01  0.2463E+01
     -3.446  0.3878E+01  0.2629E+01
     -3.404  0.4051E+01  0.2803E+01
     -3.361  0.4155E+01  0.2980E+01
     -3.318  0.4192E+01  0.3160E+01
     -3.275  0.4187E+01  0.3339E+01
     -3.233  0.4178E+01  0.3517E+01
     -3.190  0.4206E+01  0.3697E+01
     -3.147  0.4298E+01  0.3881E+01
     -3.104  0.4462E+01  0.4072E+01
     -3.061  0.4677E+01  0.4272E+01
     -3.019  0.4909E+01  0.4482E+01
     -2.976  0.5116E+01  0.4701E+01
     -2.933  0.5266E+01  0.4926E+01
     -2.890  0.5344E+01  0.5154E+01
     -2.848  0.5369E+01  0.5384E+01
     -2.805  0.5383E+01  0.5614E+01
     -2.762  0.5434E+01  0.5847E+01
     -2.719  0.5535E+01  0.6083E+01
     -2.677  0.5650E+01  0.6325E+01
     -2.634  0.5712E+01  0.6569E+01
     -2.591  0.5673E+01  0.6812E+01
     -2.548  0.5554E+01  0.7049E+01
     -2.506  0.5450E+01  0.7282E+01
     -2.463  0.5489E+01  0.7517E+01
     -2.420  0.5763E+01  0.7764E+01
     -2.377  0.6269E+01  0.8032E+01
     -2.334  0.6883E+01  0.8326E+01
     -2.292  0.7406E+01  0.8643E+01
     -2.249  0.7650E+01  0.8970E+01
     -2.206  0.7552E+01  0.9293E+01
     -2.163  0.7220E+01  0.9602E+01
     -2.121  0.6879E+01  0.9896E+01
     -2.078  0.6753E+01  0.1018E+02
     -2.035  0.6951E+01  0.1048E+02
     -1.992  0.7433E+01  0.1080E+02
     -1.950  0.8035E+01  0.1114E+02
     -1.907  0.8556E+01  0.1151E+02
     -1.864  0.8850E+01  0.1189E+02
     -1.821  0.8894E+01  0.1227E+02
     -1.778  0.8791E+01  0.1264E+02
     -1.736  0.8690E+01  0.1302E+02
     -1.693  0.8698E+01  0.1339E+02
     -1.650  0.8835E+01  0.1377E+02
     -1.607  0.9062E+01  0.1415E+02
     -1.565  0.9331E+01  0.1455E+02
     -1.522  0.9617E+01  0.1496E+02
     -1.479  0.9907E+01  0.1539E+02
     -1.436  0.1018E+02  0.1582E+02
     -1.394  0.1040E+02  0.1627E+02
     -1.351  0.1054E+02  0.1672E+02
     -1.308  0.1066E+02  0.1717E+02
     -1.265  0.1093E+02  0.1764E+02
     -1.222  0.1153E+02  0.1813E+02
     -1.180  0.1250E+02  0.1867E+02
     -1.137  0.1368E+02  0.1925E+02
     -1.094  0.1473E+02  0.1988E+02
     -1.051  0.1537E+02  0.2054E+02
     -1.009  0.1553E+02  0.2121E+02
     -0.966  0.1546E+02  0.2187E+02
     -0.923  0.1560E+02  0.2253E+02
     -0.880  0.1630E+02  0.2323E+02
     -0.838  0.1767E+02  0.2399E+02
     -0.795  0.1960E+02  0.2483E+02
     -0.752  0.2194E+02  0.2576E+02
     -0.709  0.2472E+02  0.2682E+02
     -0.667  0.2812E+02  0.2802E+02
     -0.624  0.3222E+02  0.2940E+02
     -0.581  0.3682E+02  0.3098E+02
     -0.538  0.4140E+02  0.3275E+02
     -0.495  0.4540E+02  0.3469E+02
     -0.453  0.4855E+02  0.3676E+02
     -0.410  0.5091E+02  0.3894E+02
     -0.367  0.5276E+02  0.4120E+02
     -0.324  0.5431E+02  0.4352E+02
     -0.282  0.5564E+02  0.4590E+02
     -0.239  0.5666E+02  0.4832E+02
     -0.196  0.5729E+02  0.5077E+02
     -0.153  0.5755E+02  0.5324E+02
     -0.111  0.5762E+02  0.5570E+02
     -0.068  0.5771E+02  0.5817E+02
     -0.025  0.5804E+02  0.6065E+02
      0.018  0.5877E+02  0.6316E+02
      0.061  0.6010E+02  0.6573E+02
      0.103  0.6221E+02  0.6839E+02
      0.146  0.6513E+02  0.7118E+02
      0.189  0.6865E+02  0.7412E+02
      0.232  0.7235E+02  0.7721E+02
      0.274  0.7583E+02  0.8045E+02
      0.317  0.7884E+02  0.8382E+02
      0.360  0.8135E+02  0.8730E+02
      0.403  0.8339E+02  0.9087E+02
      0.445  0.8498E+02  0.9450E+02
      0.488  0.8608E+02  0.9819E+02
      0.531  0.8663E+02  0.1019E+03
      0.574  0.8665E+02  0.1056E+03
      0.617  0.8624E+02  0.1093E+03
      0.659  0.8553E+02  0.1129E+03
      0.702  0.8451E+02  0.1166E+03
      0.745  0.8310E+02  0.1201E+03
      0.788  0.8132E+02  0.1236E+03
      0.830  0.7943E+02  0.1270E+03
      0.873  0.7784E+02  0.1303E+03
      0.916  0.7686E+02  0.1336E+03
      0.959  0.7648E+02  0.1369E+03
      1.001  0.7639E+02  0.1401E+03
      1.044  0.7616E+02  0.1434E+03
      1.087  0.7554E+02  0.1466E+03
      1.130  0.7460E+02  0.1498E+03
      1.172  0.7369E+02  0.1530E+03
      1.215  0.7323E+02  0.1561E+03
      1.258  0.7338E+02  0.1592E+03
      1.301  0.7383E+02  0.1624E+03
      1.344  0.7394E+02  0.1656E+03
      1.386  0.7320E+02  0.1687E+03
      1.429  0.7162E+02  0.1718E+03
      1.472  0.6970E+02  0.1747E+03
      1.515  0.6817E+02  0.1776E+03
      1.557  0.6754E+02  0.1805E+03
      1.600  0.6800E+02  0.1834E+03
      1.643  0.6942E+02  0.1864E+03
      1.686  0.7150E+02  0.1895E+03
      1.728  0.7393E+02  0.1926E+03
      1.771  0.7645E+02  0.1959E+03
      1.814  0.7887E+02  0.1993E+03
      1.857  0.8109E+02  0.2027E+03
      1.900  0.8305E+02  0.2063E+03
      1.942  0.8479E+02  0.2099E+03
      1.985  0.8640E+02  0.2136E+03
      2.028  0.8797E+02  0.2174E+03
      2.071  0.8955E+02  0.2212E+03
      2.113  0.9118E+02  0.2251E+03
      2.156  0.9283E+02  0.2291E+03
      2.199  0.9452E+02  0.2331E+03
      2.242  0.9634E+02  0.2372E+03
      2.284  0.9852E+02  0.2415E+03
      2.327  0.1013E+03  0.2458E+03
      2.370  0.1049E+03  0.2503E+03
      2.413  0.1091E+03  0.2549E+03
      2.456  0.1136E+03  0.2598E+03
      2.498  0.1180E+03  0.2649E+03
      2.541  0.1220E+03  0.2701E+03
      2.584  0.1253E+03  0.2754E+03
      2.627  0.1277E+03  0.2809E+03
      2.669  0.1292E+03  0.2864E+03
      2.712  0.1300E+03  0.2920E+03
      2.755  0.1306E+03  0.2976E+03
      2.798  0.1318E+03  0.3032E+03
      2.840  0.1340E+03  0.3089E+03
      2.883  0.1373E+03  0.3148E+03
      2.926  0.1407E+03  0.3208E+03
      2.969  0.1427E+03  0.3269E+03
      3.011  0.1416E+03  0.3330E+03
      3.054  0.1367E+03  0.3388E+03
      3.097  0.1285E+03  0.3443E+03
      3.140  0.1186E+03  0.3494E+03
      3.183  0.1090E+03  0.3540E+03
      3.225  0.1012E+03  0.3584E+03
      3.268  0.9567E+02  0.3625E+03
      3.311  0.9243E+02  0.3664E+03
      3.354  0.9094E+02  0.3703E+03
      3.396  0.9049E+02  0.3742E+03
      3.439  0.9022E+02  0.3780E+03
      3.482  0.8941E+02  0.3819E+03
      3.525  0.8776E+02  0.3856E+03
      3.567  0.8555E+02  0.3893E+03
      3.610  0.8361E+02  0.3928E+03
      3.653  0.8283E+02  0.3964E+03
      3.696  0.8370E+02  0.4000E+03
      3.739  0.8604E+02  0.4036E+03
      3.781  0.8920E+02  0.4075E+03
      3.824  0.9242E+02  0.4114E+03
      3.867  0.9526E+02  0.4155E+03
      3.910  0.9765E+02  0.4197E+03
      3.952  0.9968E+02  0.4239E+03
      3.995  0.1014E+03  0.4283E+03
      4.038  0.1029E+03  0.4327E+03
      4.081  0.1038E+03  0.4371E+03
      4.123  0.1040E+03  0.4416E+03
      4.166  0.1035E+03  0.4460E+03
      4.209  0.1025E+03  0.4504E+03
      4.252  0.1012E+03  0.4547E+03
      4.295  0.1002E+03  0.4590E+03
      4.337  0.9955E+02  0.4632E+03
      4.380  0.9954E+02  0.4675E+03
      4.423  0.9996E+02  0.4718E+03
      4.466  0.1005E+03  0.4761E+03
      4.508  0.1006E+03  0.4804E+03
      4.551  0.1002E+03  0.4846E+03
      4.594  0.9938E+02  0.4889E+03
      4.637  0.9855E+02  0.4931E+03
      4.679  0.9835E+02  0.4973E+03
      4.722  0.9920E+02  0.5016E+03
      4.765  0.1012E+03  0.5059E+03
      4.808  0.1040E+03  0.5103E+03
      4.850  0.1072E+03  0.5149E+03
      4.893  0.1101E+03  0.5196E+03
      4.936  0.1124E+03  0.5244E+03
      4.979  0.1133E+03  0.5293E+03
      5.022  0.1118E+03  0.5341E+03
      5.064  0.1068E+03  0.5386E+03
      5.107  0.9747E+02  0.5428E+03
      5.150  0.8382E+02  0.5464E+03
      5.193  0.6702E+02  0.5493E+03
      5.235  0.4919E+02  0.5514E+03
      5.278  0.3279E+02  0.5528E+03
      5.321  0.1967E+02  0.5536E+03
      5.364  0.1053E+02  0.5540E+03
      5.406  0.5001E+01  0.5543E+03
      5.449  0.2096E+01  0.5544E+03
      5.492  0.7725E+00  0.5544E+03
      5.535  0.2495E+00  0.5544E+03
      5.578  0.7042E-01  0.5544E+03
      5.620  0.1733E-01  0.5544E+03
      5.663  0.3714E-02  0.5544E+03
      5.706  0.6913E-03  0.5544E+03
      5.749  0.1117E-03  0.5544E+03
      5.791  0.1563E-04  0.5544E+03
      5.834  0.1892E-05  0.5544E+03
      5.877  0.1980E-06  0.5544E+03
      5.920  0.1788E-07  0.5544E+03
      5.962  0.1392E-08  0.5544E+03
      6.005  0.9333E-10  0.5544E+03
      6.048  0.5384E-11  0.5544E+03
      6.091  0.2663E-12  0.5544E+03
      6.133  0.1051E-13  0.5544E+03
      6.176  0.1947E-15  0.5544E+03
      6.219  0.0000E+00  0.5544E+03
      6.262  0.0000E+00  0.5544E+03
      6.305  0.0000E+00  0.5544E+03
      6.347  0.0000E+00  0.5544E+03
      6.390  0.0000E+00  0.5544E+03
      6.433  0.0000E+00  0.5544E+03
      6.476  0.0000E+00  0.5544E+03
      6.518  0.0000E+00  0.5544E+03
      6.561  0.0000E+00  0.5544E+03
      6.604  0.0000E+00  0.5544E+03
      6.647  0.0000E+00  0.5544E+03
      6.689  0.0000E+00  0.5544E+03
      6.732  0.0000E+00  0.5544E+03
      6.775  0.0000E+00  0.5544E+03
