 288 288   0   0
  0.1280206E+02  0.9726678E-09  0.8423550E-09  0.4500000E-08  0.2500000E-15
  1.000000000000000E-004
  CAR 
 unknown system                          
      6.78660355     -6.01620301  301      4.29500565      1.00000000
     -6.016  0.0000E+00  0.0000E+00
     -5.974  0.0000E+00  0.0000E+00
     -5.931  0.0000E+00  0.0000E+00
     -5.888  0.0000E+00  0.0000E+00
     -5.845  0.0000E+00  0.0000E+00
     -5.803  0.0000E+00  0.0000E+00
     -5.760  0.0000E+00  0.0000E+00
     -5.717  0.0000E+00  0.0000E+00
     -5.675  0.0000E+00  0.0000E+00
     -5.632  0.0000E+00  0.0000E+00
     -5.589  0.0000E+00  0.0000E+00
     -5.547  0.0000E+00  0.0000E+00
     -5.504  0.0000E+00  0.0000E+00
     -5.461  0.0000E+00  0.0000E+00
     -5.419  0.0000E+00  0.0000E+00
     -5.376  0.1626E-15  0.6939E-17
     -5.333  0.3675E-14  0.1638E-15
     -5.291  0.7957E-13  0.3560E-14
     -5.248  0.1453E-11  0.6556E-13
     -5.205  0.2262E-10  0.1031E-11
     -5.163  0.3002E-09  0.1384E-10
     -5.120  0.3399E-08  0.1589E-09
     -5.077  0.3283E-07  0.1560E-08
     -5.035  0.2708E-06  0.1312E-07
     -4.992  0.1909E-05  0.9459E-07
     -4.949  0.1151E-04  0.5860E-06
     -4.907  0.5952E-04  0.3126E-05
     -4.864  0.2643E-03  0.1441E-04
     -4.821  0.1012E-02  0.5759E-04
     -4.779  0.3353E-02  0.2007E-03
     -4.736  0.9674E-02  0.6135E-03
     -4.693  0.2450E-01  0.1659E-02
     -4.651  0.5496E-01  0.4005E-02
     -4.608  0.1104E+00  0.8717E-02
     -4.565  0.2009E+00  0.1729E-01
     -4.523  0.3346E+00  0.3157E-01
     -4.480  0.5143E+00  0.5352E-01
     -4.437  0.7341E+00  0.8485E-01
     -4.395  0.9782E+00  0.1266E+00
     -4.352  0.1222E+01  0.1787E+00
     -4.309  0.1439E+01  0.2401E+00
     -4.266  0.1607E+01  0.3087E+00
     -4.224  0.1718E+01  0.3821E+00
     -4.181  0.1784E+01  0.4582E+00
     -4.138  0.1832E+01  0.5364E+00
     -4.096  0.1904E+01  0.6176E+00
     -4.053  0.2033E+01  0.7044E+00
     -4.010  0.2234E+01  0.7997E+00
     -3.968  0.2493E+01  0.9061E+00
     -3.925  0.2769E+01  0.1024E+01
     -3.882  0.3008E+01  0.1153E+01
     -3.840  0.3162E+01  0.1288E+01
     -3.797  0.3209E+01  0.1425E+01
     -3.754  0.3165E+01  0.1560E+01
     -3.712  0.3081E+01  0.1691E+01
     -3.669  0.3021E+01  0.1820E+01
     -3.626  0.3040E+01  0.1950E+01
     -3.584  0.3163E+01  0.2085E+01
     -3.541  0.3372E+01  0.2229E+01
     -3.498  0.3620E+01  0.2383E+01
     -3.456  0.3848E+01  0.2547E+01
     -3.413  0.4014E+01  0.2719E+01
     -3.370  0.4105E+01  0.2894E+01
     -3.328  0.4137E+01  0.3070E+01
     -3.285  0.4141E+01  0.3247E+01
     -3.242  0.4152E+01  0.3424E+01
     -3.200  0.4196E+01  0.3603E+01
     -3.157  0.4290E+01  0.3786E+01
     -3.114  0.4432E+01  0.3976E+01
     -3.072  0.4614E+01  0.4173E+01
     -3.029  0.4815E+01  0.4378E+01
     -2.986  0.5007E+01  0.4592E+01
     -2.944  0.5164E+01  0.4812E+01
     -2.901  0.5271E+01  0.5037E+01
     -2.858  0.5336E+01  0.5265E+01
     -2.816  0.5383E+01  0.5494E+01
     -2.773  0.5444E+01  0.5727E+01
     -2.730  0.5540E+01  0.5963E+01
     -2.687  0.5653E+01  0.6204E+01
     -2.645  0.5727E+01  0.6449E+01
     -2.602  0.5704E+01  0.6692E+01
     -2.559  0.5572E+01  0.6930E+01
     -2.517  0.5410E+01  0.7161E+01
     -2.474  0.5356E+01  0.7390E+01
     -2.431  0.5539E+01  0.7626E+01
     -2.389  0.5995E+01  0.7882E+01
     -2.346  0.6627E+01  0.8165E+01
     -2.303  0.7234E+01  0.8473E+01
     -2.261  0.7609E+01  0.8798E+01
     -2.218  0.7643E+01  0.9124E+01
     -2.175  0.7382E+01  0.9439E+01
     -2.133  0.7011E+01  0.9738E+01
     -2.090  0.6767E+01  0.1003E+02
     -2.047  0.6817E+01  0.1032E+02
     -2.005  0.7188E+01  0.1062E+02
     -1.962  0.7760E+01  0.1096E+02
     -1.919  0.8338E+01  0.1131E+02
     -1.877  0.8744E+01  0.1169E+02
     -1.834  0.8896E+01  0.1206E+02
     -1.791  0.8839E+01  0.1244E+02
     -1.749  0.8711E+01  0.1281E+02
     -1.706  0.8654E+01  0.1318E+02
     -1.663  0.8737E+01  0.1356E+02
     -1.621  0.8945E+01  0.1394E+02
     -1.578  0.9214E+01  0.1433E+02
     -1.535  0.9494E+01  0.1474E+02
     -1.493  0.9770E+01  0.1515E+02
     -1.450  0.1004E+02  0.1558E+02
     -1.407  0.1027E+02  0.1602E+02
     -1.365  0.1043E+02  0.1646E+02
     -1.322  0.1051E+02  0.1691E+02
     -1.279  0.1064E+02  0.1737E+02
     -1.236  0.1102E+02  0.1784E+02
     -1.194  0.1179E+02  0.1834E+02
     -1.151  0.1294E+02  0.1889E+02
     -1.108  0.1418E+02  0.1950E+02
     -1.066  0.1514E+02  0.2014E+02
     -1.023  0.1560E+02  0.2081E+02
     -0.980  0.1560E+02  0.2148E+02
     -0.938  0.1552E+02  0.2214E+02
     -0.895  0.1576E+02  0.2281E+02
     -0.852  0.1661E+02  0.2352E+02
     -0.810  0.1807E+02  0.2429E+02
     -0.767  0.2003E+02  0.2515E+02
     -0.724  0.2246E+02  0.2610E+02
     -0.682  0.2551E+02  0.2719E+02
     -0.639  0.2938E+02  0.2845E+02
     -0.596  0.3402E+02  0.2990E+02
     -0.554  0.3897E+02  0.3156E+02
     -0.511  0.4358E+02  0.3342E+02
     -0.468  0.4732E+02  0.3544E+02
     -0.426  0.5009E+02  0.3758E+02
     -0.383  0.5214E+02  0.3980E+02
     -0.340  0.5377E+02  0.4210E+02
     -0.298  0.5514E+02  0.4445E+02
     -0.255  0.5620E+02  0.4685E+02
     -0.212  0.5683E+02  0.4928E+02
     -0.170  0.5704E+02  0.5171E+02
     -0.127  0.5696E+02  0.5414E+02
     -0.084  0.5685E+02  0.5657E+02
     -0.042  0.5697E+02  0.5900E+02
      0.001  0.5756E+02  0.6145E+02
      0.044  0.5880E+02  0.6396E+02
      0.086  0.6081E+02  0.6656E+02
      0.129  0.6353E+02  0.6927E+02
      0.172  0.6683E+02  0.7212E+02
      0.214  0.7050E+02  0.7513E+02
      0.257  0.7427E+02  0.7830E+02
      0.300  0.7783E+02  0.8162E+02
      0.343  0.8090E+02  0.8507E+02
      0.385  0.8332E+02  0.8863E+02
      0.428  0.8510E+02  0.9226E+02
      0.471  0.8633E+02  0.9595E+02
      0.513  0.8708E+02  0.9966E+02
      0.556  0.8735E+02  0.1034E+03
      0.599  0.8713E+02  0.1071E+03
      0.641  0.8648E+02  0.1108E+03
      0.684  0.8549E+02  0.1144E+03
      0.727  0.8416E+02  0.1180E+03
      0.769  0.8246E+02  0.1216E+03
      0.812  0.8048E+02  0.1250E+03
      0.855  0.7848E+02  0.1283E+03
      0.897  0.7684E+02  0.1316E+03
      0.940  0.7590E+02  0.1349E+03
      0.983  0.7570E+02  0.1381E+03
      1.025  0.7597E+02  0.1413E+03
      1.068  0.7628E+02  0.1446E+03
      1.111  0.7628E+02  0.1478E+03
      1.153  0.7586E+02  0.1511E+03
      1.196  0.7513E+02  0.1543E+03
      1.239  0.7431E+02  0.1575E+03
      1.281  0.7356E+02  0.1606E+03
      1.324  0.7288E+02  0.1637E+03
      1.367  0.7212E+02  0.1668E+03
      1.409  0.7109E+02  0.1698E+03
      1.452  0.6967E+02  0.1728E+03
      1.495  0.6799E+02  0.1757E+03
      1.537  0.6650E+02  0.1785E+03
      1.580  0.6578E+02  0.1813E+03
      1.623  0.6628E+02  0.1842E+03
      1.665  0.6805E+02  0.1871E+03
      1.708  0.7076E+02  0.1901E+03
      1.751  0.7390E+02  0.1932E+03
      1.794  0.7707E+02  0.1965E+03
      1.836  0.8005E+02  0.2000E+03
      1.879  0.8277E+02  0.2035E+03
      1.922  0.8520E+02  0.2071E+03
      1.964  0.8735E+02  0.2108E+03
      2.007  0.8929E+02  0.2147E+03
      2.050  0.9105E+02  0.2185E+03
      2.092  0.9262E+02  0.2225E+03
      2.135  0.9391E+02  0.2265E+03
      2.178  0.9495E+02  0.2306E+03
      2.220  0.9601E+02  0.2347E+03
      2.263  0.9752E+02  0.2388E+03
      2.306  0.9989E+02  0.2431E+03
      2.348  0.1033E+03  0.2475E+03
      2.391  0.1075E+03  0.2521E+03
      2.434  0.1120E+03  0.2569E+03
      2.476  0.1162E+03  0.2618E+03
      2.519  0.1197E+03  0.2669E+03
      2.562  0.1224E+03  0.2721E+03
      2.604  0.1246E+03  0.2775E+03
      2.647  0.1265E+03  0.2829E+03
      2.690  0.1284E+03  0.2883E+03
      2.732  0.1304E+03  0.2939E+03
      2.775  0.1327E+03  0.2996E+03
      2.818  0.1354E+03  0.3054E+03
      2.860  0.1383E+03  0.3113E+03
      2.903  0.1408E+03  0.3173E+03
      2.946  0.1421E+03  0.3233E+03
      2.988  0.1411E+03  0.3294E+03
      3.031  0.1373E+03  0.3352E+03
      3.074  0.1309E+03  0.3408E+03
      3.116  0.1225E+03  0.3460E+03
      3.159  0.1135E+03  0.3509E+03
      3.202  0.1049E+03  0.3553E+03
      3.244  0.9773E+02  0.3595E+03
      3.287  0.9237E+02  0.3635E+03
      3.330  0.8875E+02  0.3672E+03
      3.373  0.8650E+02  0.3709E+03
      3.415  0.8519E+02  0.3746E+03
      3.458  0.8442E+02  0.3782E+03
      3.501  0.8384E+02  0.3818E+03
      3.543  0.8321E+02  0.3853E+03
      3.586  0.8257E+02  0.3888E+03
      3.629  0.8225E+02  0.3923E+03
      3.671  0.8280E+02  0.3959E+03
      3.714  0.8468E+02  0.3995E+03
      3.757  0.8794E+02  0.4032E+03
      3.799  0.9217E+02  0.4072E+03
      3.842  0.9669E+02  0.4113E+03
      3.885  0.1009E+03  0.4156E+03
      3.927  0.1043E+03  0.4201E+03
      3.970  0.1068E+03  0.4246E+03
      4.013  0.1085E+03  0.4292E+03
      4.055  0.1091E+03  0.4339E+03
      4.098  0.1090E+03  0.4385E+03
      4.141  0.1082E+03  0.4432E+03
      4.183  0.1070E+03  0.4477E+03
      4.226  0.1056E+03  0.4522E+03
      4.269  0.1043E+03  0.4567E+03
      4.311  0.1031E+03  0.4611E+03
      4.354  0.1022E+03  0.4654E+03
      4.397  0.1016E+03  0.4698E+03
      4.439  0.1013E+03  0.4741E+03
      4.482  0.1009E+03  0.4784E+03
      4.525  0.1000E+03  0.4827E+03
      4.567  0.9879E+02  0.4869E+03
      4.610  0.9759E+02  0.4911E+03
      4.653  0.9697E+02  0.4952E+03
      4.695  0.9737E+02  0.4994E+03
      4.738  0.9886E+02  0.5036E+03
      4.781  0.1012E+03  0.5079E+03
      4.824  0.1039E+03  0.5123E+03
      4.866  0.1064E+03  0.5169E+03
      4.909  0.1083E+03  0.5215E+03
      4.952  0.1092E+03  0.5261E+03
      4.994  0.1089E+03  0.5308E+03
      5.037  0.1066E+03  0.5353E+03
      5.080  0.1015E+03  0.5397E+03
      5.122  0.9251E+02  0.5436E+03
      5.165  0.7942E+02  0.5470E+03
      5.208  0.6318E+02  0.5497E+03
      5.250  0.4593E+02  0.5517E+03
      5.293  0.3017E+02  0.5529E+03
      5.336  0.1776E+02  0.5537E+03
      5.378  0.9302E+01  0.5541E+03
      5.421  0.4315E+01  0.5543E+03
      5.464  0.1766E+01  0.5544E+03
      5.506  0.6351E+00  0.5544E+03
      5.549  0.2003E+00  0.5544E+03
      5.592  0.5530E-01  0.5544E+03
      5.634  0.1333E-01  0.5544E+03
      5.677  0.2801E-02  0.5544E+03
      5.720  0.5124E-03  0.5544E+03
      5.762  0.8150E-04  0.5544E+03
      5.805  0.1126E-04  0.5544E+03
      5.848  0.1348E-05  0.5544E+03
      5.890  0.1398E-06  0.5544E+03
      5.933  0.1255E-07  0.5544E+03
      5.976  0.9737E-09  0.5544E+03
      6.018  0.6521E-10  0.5544E+03
      6.061  0.3764E-11  0.5544E+03
      6.104  0.1862E-12  0.5544E+03
      6.146  0.7609E-14  0.5544E+03
      6.189  0.1301E-15  0.5544E+03
      6.232  0.0000E+00  0.5544E+03
      6.274  0.0000E+00  0.5544E+03
      6.317  0.0000E+00  0.5544E+03
      6.360  0.0000E+00  0.5544E+03
      6.403  0.0000E+00  0.5544E+03
      6.445  0.0000E+00  0.5544E+03
      6.488  0.0000E+00  0.5544E+03
      6.531  0.0000E+00  0.5544E+03
      6.573  0.0000E+00  0.5544E+03
      6.616  0.0000E+00  0.5544E+03
      6.659  0.0000E+00  0.5544E+03
      6.701  0.0000E+00  0.5544E+03
      6.744  0.0000E+00  0.5544E+03
      6.787  0.0000E+00  0.5544E+03
