<?xml version="1.0" encoding="ISO-8859-1"?>
<modeling>
 <generator>
  <i name="program" type="string">vasp </i>
  <i name="version" type="string">5.4.4.18Apr17-6-g9f103f2a35  </i>
  <i name="subversion" type="string">(build Sep 27 2018 12:46:37) complex + VL-xray_ parallel </i>
  <i name="platform" type="string">LLNL_Quartz_ifc </i>
  <i name="date" type="string">2021 09 26 </i>
  <i name="time" type="string">18:40:30 </i>
 </generator>
 <incar>
  <i type="int" name="ISTART">     2</i>
  <i type="string" name="PREC">accurate</i>
  <i type="string" name="ALGO"> Fast</i>
  <i type="int" name="ICHARG">     2</i>
  <i type="int" name="INIWAV">     1</i>
  <i type="int" name="NELM">   200</i>
  <i type="int" name="NELMIN">     4</i>
  <i type="int" name="IBRION">     2</i>
  <i name="EDIFF">      0.00000100</i>
  <i type="int" name="NSW">     5</i>
  <i type="int" name="ISIF">     2</i>
  <i type="int" name="ISYM">     2</i>
  <i name="ENCUT">    450.00000000</i>
  <i name="POTIM">      0.25000000</i>
  <i type="string" name="LREAL"> Auto</i>
  <i type="int" name="ISMEAR">     0</i>
  <i name="SIGMA">      0.15000000</i>
  <i type="logical" name="LWAVE"> F  </i>
  <i type="logical" name="LCHARG"> F  </i>
  <i type="int" name="ICORELEVEL">     0</i>
  <i type="int" name="CLNT">     1</i>
  <i type="int" name="CLN">     1</i>
  <i type="int" name="INCAR     ">     0</i>
  <i name="CLZ">      0.00000000</i>
  <v type="int" name="KPOINT_BSE">    -1     0     0     0</v>
  <i type="int" name="NELM">   200</i>
 </incar>
 <structure name="primitive_cell" >
  <crystal>
   <varray name="basis" >
    <v>       9.72667804       0.00000000       0.00000000 </v>
    <v>       0.00000000       8.42355028       0.00000000 </v>
    <v>       0.00000000       0.00000000      45.00000000 </v>
   </varray>
   <i name="volume">   3686.99226691 </i>
   <varray name="rec_basis" >
    <v>       0.10281002       0.00000000       0.00000000 </v>
    <v>       0.00000000       0.11871479       0.00000000 </v>
    <v>       0.00000000       0.00000000       0.02222222 </v>
   </varray>
  </crystal>
  <varray name="positions" >
   <v>       0.05411107      -0.29896178       0.21128498 </v>
   <v>      -0.05867616      -0.21271151       0.25525081 </v>
   <v>       0.06537859      -0.46243379       0.25509704 </v>
   <v>      -0.05866816      -0.38760606       0.16657908 </v>
   <v>      -0.07064431       0.45132499       0.21128367 </v>
   <v>       0.17860144       0.45109997       0.21131162 </v>
   <v>      -0.07055464      -0.04877823       0.21129762 </v>
   <v>      -0.19591799      -0.29882437       0.21119250 </v>
   <v>       0.06782055      -0.13677469       0.16666295 </v>
   <v>       0.17872197      -0.04859812       0.21135019 </v>
   <v>       0.30431010      -0.29925868       0.21123879 </v>
   <v>       0.19077722      -0.21262523       0.25520950 </v>
   <v>       0.19174528      -0.38843570       0.16641403 </v>
   <v>      -0.18224141      -0.13826518       0.16668487 </v>
   <v>      -0.18482458      -0.46233966       0.25514340 </v>
   <v>       0.06545510       0.03751708       0.25515683 </v>
   <v>       0.06753336       0.36284148       0.16666875 </v>
   <v>       0.31519012      -0.46243177       0.25512461 </v>
   <v>       0.31843383      -0.13705194       0.16579490 </v>
   <v>      -0.30908238      -0.21241198       0.25536142 </v>
   <v>      -0.30817402      -0.38739889       0.16673600 </v>
   <v>      -0.06517377      -0.21802777       0.12415528 </v>
   <v>      -0.05879052       0.11200291       0.16657611 </v>
   <v>      -0.05888773       0.28750925       0.25526070 </v>
   <v>      -0.18481980       0.03750350       0.25515805 </v>
   <v>       0.18597900      -0.21733368       0.12424107 </v>
   <v>      -0.18233832       0.36184147       0.16670600 </v>
   <v>       0.05690790      -0.47396752       0.12414016 </v>
   <v>       0.17809575      -0.37627072       0.29949856 </v>
   <v>       0.05435932       0.20128221       0.21128076 </v>
   <v>      -0.07197809      -0.37640831       0.29961292 </v>
   <v>      -0.32076215      -0.04872889       0.21130729 </v>
   <v>      -0.32102371       0.45113425       0.21127483 </v>
   <v>       0.42936822       0.45114471       0.21135167 </v>
   <v>       0.42927538      -0.04869462       0.21136495 </v>
   <v>       0.19175917       0.11144323       0.16643364 </v>
   <v>       0.19104748       0.28731357       0.25525407 </v>
   <v>       0.05261462      -0.12613125       0.29953910 </v>
   <v>       0.31528045       0.03783563       0.25513086 </v>
   <v>       0.44077578      -0.21268322       0.25523722 </v>
   <v>       0.44144366      -0.38939189       0.16646472 </v>
   <v>       0.31817979       0.36301249       0.16578945 </v>
   <v>       0.05737382       0.02601683       0.12409421 </v>
   <v>      -0.19207242      -0.47197701       0.12393394 </v>
   <v>       0.05283652       0.37388739       0.29952789 </v>
   <v>      -0.19576877       0.20130859       0.21115639 </v>
   <v>      -0.44610194      -0.29885948       0.21115197 </v>
   <v>       0.30467951       0.20057986       0.21123206 </v>
   <v>       0.30781112      -0.47406056       0.12400481 </v>
   <v>       0.30287925      -0.12594173       0.29959866 </v>
   <v>      -0.19698241      -0.12637466       0.29947843 </v>
   <v>      -0.43466878      -0.46237191       0.25501285 </v>
   <v>      -0.43351989      -0.13746703       0.16651886 </v>
   <v>      -0.30823336       0.11244800       0.16659683 </v>
   <v>      -0.31202043      -0.21778573       0.12419011 </v>
   <v>      -0.30902033       0.28749005       0.25531597 </v>
   <v>      -0.19070598       0.02782437       0.12392735 </v>
   <v>       0.30897580       0.02583104       0.12391300 </v>
   <v>      -0.06569991       0.28198147       0.12413007 </v>
   <v>       0.30304787       0.37396494       0.29957889 </v>
   <v>      -0.19696497       0.37334285       0.29945975 </v>
   <v>       0.18601908       0.28296826       0.12422767 </v>
   <v>       0.42807015      -0.37633307       0.29947748 </v>
   <v>      -0.32192365      -0.37659635       0.29944218 </v>
   <v>       0.43695912      -0.21651285       0.12401863 </v>
   <v>       0.17793043       0.12382430       0.29953253 </v>
   <v>      -0.07206036       0.12351949       0.29962068 </v>
   <v>       0.44134882       0.11053305       0.16639063 </v>
   <v>       0.44085689       0.28728922       0.25522790 </v>
   <v>      -0.43458264       0.03755269       0.25502216 </v>
   <v>      -0.43360584       0.36260295       0.16647225 </v>
   <v>       0.06482390      -0.29128152       0.34382869 </v>
   <v>      -0.31228077       0.28225911       0.12415469 </v>
   <v>      -0.44119542      -0.47338089       0.12390356 </v>
   <v>      -0.18520641      -0.29122786       0.34384233 </v>
   <v>      -0.05977226       0.45918950       0.34402706 </v>
   <v>      -0.44553105       0.20085307       0.21114496 </v>
   <v>      -0.44699725      -0.12622111       0.29957623 </v>
   <v>       0.19029023       0.45907740       0.34401888 </v>
   <v>       0.43679994       0.28346275       0.12405311 </v>
   <v>      -0.05979091      -0.04067029       0.34403675 </v>
   <v>       0.42805758       0.12373744       0.29949726 </v>
   <v>      -0.32188639       0.12354725       0.29944529 </v>
   <v>       0.31506145      -0.29109973       0.34395143 </v>
   <v>       0.19014442      -0.04111147       0.34402643 </v>
   <v>      -0.44033422       0.02645493       0.12383445 </v>
   <v>      -0.44700520       0.37370483       0.29955879 </v>
   <v>      -0.31010045       0.45876217       0.34394019 </v>
   <v>       0.06488900       0.20866321       0.34384554 </v>
   <v>      -0.31020701      -0.04118017       0.34396149 </v>
   <v>       0.44017284       0.45876227       0.34398514 </v>
   <v>       0.44002844      -0.04122208       0.34400270 </v>
   <v>      -0.18536822       0.20883346       0.34384932 </v>
   <v>      -0.43505873      -0.29080217       0.34392081 </v>
   <v>       0.31514612       0.20897841       0.34398701 </v>
   <v>       0.06119102      -0.45873261       0.38837645 </v>
   <v>      -0.06363527      -0.20855527       0.38844878 </v>
   <v>       0.18615993      -0.20875439       0.38833265 </v>
   <v>      -0.18903589      -0.45847649       0.38830140 </v>
   <v>       0.31135453      -0.45896424       0.38840665 </v>
   <v>       0.06148060       0.04136027       0.38837027 </v>
   <v>      -0.43494104       0.20899508       0.34395972 </v>
   <v>      -0.06367547       0.29139641       0.38840929 </v>
   <v>      -0.31343723      -0.20886811       0.38841322 </v>
   <v>       0.18617205       0.29104324       0.38829942 </v>
   <v>      -0.18895192       0.04160205       0.38832678 </v>
   <v>       0.43640688      -0.20885257       0.38839742 </v>
   <v>       0.31147416       0.04133965       0.38840346 </v>
   <v>      -0.31361033       0.29125248       0.38841310 </v>
   <v>      -0.43831659      -0.45878011       0.38842875 </v>
   <v>       0.43607220       0.29105135       0.38833175 </v>
   <v>      -0.43819212       0.04139000       0.38842987 </v>
   <v>      -0.06683200      -0.37456697       0.43315730 </v>
   <v>       0.18329366      -0.37494493       0.43312349 </v>
   <v>       0.05853117      -0.12514765       0.43307077 </v>
   <v>       0.05851807       0.37473467       0.43301409 </v>
   <v>      -0.19141412      -0.12481776       0.43306377 </v>
   <v>       0.30861318      -0.12500750       0.43296478 </v>
   <v>      -0.19158374       0.37520500       0.43305854 </v>
   <v>      -0.31626836      -0.37495387       0.43296855 </v>
   <v>       0.30861387       0.37529247       0.43297763 </v>
   <v>       0.43359665      -0.37484659       0.43309275 </v>
   <v>      -0.06660276       0.12537727       0.43314526 </v>
   <v>       0.18345976       0.12504042       0.43309634 </v>
   <v>      -0.44155513      -0.12522707       0.43305729 </v>
   <v>      -0.31622661       0.12500212       0.43296262 </v>
   <v>       0.43356931       0.12487532       0.43303544 </v>
   <v>      -0.44163194       0.37496174       0.43312011 </v>
   <v>       0.06802586      -0.28928314       0.47746554 </v>
   <v>      -0.05726770       0.46036524       0.47726551 </v>
   <v>      -0.18219633      -0.28918724       0.47747068 </v>
   <v>      -0.05742649      -0.03934410       0.47731655 </v>
   <v>       0.19258864       0.46092857       0.47747810 </v>
   <v>       0.31772966      -0.28969064       0.47731244 </v>
   <v>       0.19254701      -0.03912874       0.47749726 </v>
   <v>      -0.30744628       0.46060076       0.47734276 </v>
   <v>       0.06795150       0.21079767       0.47744300 </v>
   <v>      -0.30720510      -0.03936285       0.47746781 </v>
   <v>       0.44285519       0.46066596       0.47748146 </v>
   <v>       0.44282625      -0.03915163       0.47746645 </v>
   <v>      -0.43228330      -0.28958106       0.47745791 </v>
   <v>      -0.18215079       0.21076485       0.47750870 </v>
   <v>       0.31771955       0.21043831       0.47732163 </v>
   <v>      -0.43211941       0.21061229       0.47745651 </v>
   <v>      -0.06794909      -0.21164678      -0.47761915 </v>
   <v>       0.05721516      -0.46078809      -0.47747640 </v>
   <v>       0.18227438      -0.21060451      -0.47745073 </v>
   <v>      -0.19286693      -0.46074249      -0.47742086 </v>
   <v>       0.30704749      -0.46112309      -0.47751639 </v>
   <v>       0.05732843       0.03924376      -0.47755354 </v>
   <v>      -0.06762166       0.28839239      -0.47764234 </v>
   <v>      -0.31802453      -0.21124686      -0.47755860 </v>
   <v>       0.18240258       0.28930614      -0.47746295 </v>
   <v>       0.43208533      -0.21099295      -0.47765611 </v>
   <v>      -0.19286032       0.03913993      -0.47746570 </v>
   <v>       0.30705699       0.03854165      -0.47764787 </v>
   <v>      -0.31796540       0.28878873      -0.47755030 </v>
   <v>      -0.44278357      -0.46073741      -0.47745837 </v>
   <v>       0.43234183       0.28881249      -0.47763759 </v>
   <v>       0.06781808      -0.27691842      -0.12371851 </v>
   <v>      -0.44261519       0.03869793      -0.47765986 </v>
   <v>      -0.18292451      -0.27610925      -0.12366665 </v>
   <v>      -0.06022056       0.46833470      -0.12386954 </v>
   <v>       0.18948092       0.46778878      -0.12393212 </v>
   <v>      -0.06015290      -0.03161150      -0.12386304 </v>
   <v>       0.31808292      -0.27589131      -0.12376331 </v>
   <v>       0.18989124      -0.03210690      -0.12383797 </v>
   <v>       0.06814087       0.22310955      -0.12381267 </v>
   <v>      -0.31036916       0.46775769      -0.12393377 </v>
   <v>      -0.31017619      -0.03153648      -0.12392052 </v>
   <v>       0.43981437       0.46793480      -0.12408722 </v>
   <v>       0.43964405      -0.03197120      -0.12392475 </v>
   <v>      -0.18267671       0.22388669      -0.12381631 </v>
   <v>      -0.43251684      -0.27536512      -0.12371135 </v>
   <v>       0.31757244       0.22340520      -0.12388469 </v>
   <v>      -0.05840468      -0.37499168      -0.43319952 </v>
   <v>       0.19179884      -0.37507475      -0.43310917 </v>
   <v>       0.06679185      -0.12495232      -0.43306965 </v>
   <v>      -0.18343920      -0.12494942      -0.43308259 </v>
   <v>       0.06677277       0.37500949      -0.43308794 </v>
   <v>       0.31660827      -0.12522989      -0.43311774 </v>
   <v>      -0.43159572       0.22397230      -0.12386252 </v>
   <v>      -0.18338129       0.37521165      -0.43310977 </v>
   <v>      -0.30840047      -0.37503067      -0.43307698 </v>
   <v>      -0.05829779       0.12509986      -0.43319107 </v>
   <v>       0.31665151       0.37505505      -0.43317938 </v>
   <v>       0.19164675       0.12493015      -0.43312507 </v>
   <v>       0.44175626      -0.37501554      -0.43308041 </v>
   <v>      -0.43337607      -0.12526561      -0.43316828 </v>
   <v>      -0.30839316       0.12509382      -0.43309599 </v>
   <v>       0.44159266       0.12505248      -0.43306135 </v>
   <v>      -0.43330181       0.37490037      -0.43318884 </v>
   <v>      -0.06616264      -0.36242113      -0.16598854 </v>
   <v>       0.18310248      -0.36216697      -0.16638660 </v>
   <v>       0.05869075      -0.11238096      -0.16656388 </v>
   <v>       0.05875543       0.38856459      -0.16637111 </v>
   <v>      -0.19143907      -0.11243552      -0.16644822 </v>
   <v>       0.30851615      -0.11233432      -0.16646135 </v>
   <v>      -0.19172780       0.38751783      -0.16645667 </v>
   <v>       0.30819295       0.38751629      -0.16642709 </v>
   <v>      -0.31661837      -0.36202371      -0.16648598 </v>
   <v>       0.43359338      -0.36202153      -0.16647789 </v>
   <v>      -0.06641564       0.13775836      -0.16644847 </v>
   <v>       0.18377976       0.13778844      -0.16637295 </v>
   <v>      -0.44168197      -0.11255522      -0.16652651 </v>
   <v>      -0.31657470       0.13783922      -0.16648275 </v>
   <v>       0.43350758       0.13769644      -0.16649235 </v>
   <v>      -0.44146244       0.38768041      -0.16649394 </v>
   <v>       0.06301108      -0.29141188      -0.38848782 </v>
   <v>      -0.06188373       0.45844822      -0.38840492 </v>
   <v>      -0.18643733      -0.29134949      -0.38840944 </v>
   <v>       0.18791799       0.45802144      -0.38858634 </v>
   <v>      -0.06211492      -0.04194933      -0.38860433 </v>
   <v>       0.18782478      -0.04177656      -0.38876208 </v>
   <v>       0.31341057      -0.29130236      -0.38839928 </v>
   <v>      -0.31179542       0.45868771      -0.38845258 </v>
   <v>       0.06318820       0.20854678      -0.38849308 </v>
   <v>      -0.31162231      -0.04107590      -0.38850808 </v>
   <v>       0.43838050       0.45859412      -0.38842229 </v>
   <v>       0.43831525      -0.04125743      -0.38843916 </v>
   <v>      -0.18709406       0.20812802      -0.38852023 </v>
   <v>      -0.43676256      -0.29172199      -0.38843000 </v>
   <v>       0.31294309       0.20784602      -0.38862737 </v>
   <v>      -0.05545277      -0.20013690      -0.21109232 </v>
   <v>       0.07047698      -0.45059840      -0.21125198 </v>
   <v>       0.19445666      -0.20032095      -0.21108491 </v>
   <v>      -0.43698722       0.20785491      -0.38870953 </v>
   <v>      -0.18026438      -0.45052615      -0.21091351 </v>
   <v>       0.31975148      -0.45020424      -0.21099412 </v>
   <v>       0.06937460       0.04956782      -0.21087044 </v>
   <v>      -0.05499424       0.29904687      -0.21119652 </v>
   <v>      -0.30502373      -0.20057279      -0.21111817 </v>
   <v>      -0.18066427       0.04981260      -0.21083549 </v>
   <v>       0.19466387       0.29906693      -0.21116377 </v>
   <v>       0.44466332      -0.20055487      -0.21115375 </v>
   <v>       0.32017679       0.04945495      -0.21114100 </v>
   <v>      -0.43016999      -0.45046074      -0.21090203 </v>
   <v>      -0.30491357       0.29890597      -0.21118282 </v>
   <v>       0.44475341       0.29927753      -0.21115932 </v>
   <v>      -0.43067314       0.04973602      -0.21106695 </v>
   <v>       0.05986642      -0.45935665      -0.34401704 </v>
   <v>      -0.06517018      -0.20925689      -0.34403389 </v>
   <v>       0.18476944      -0.20926474      -0.34418155 </v>
   <v>      -0.19033495      -0.45922420      -0.34417963 </v>
   <v>       0.30968567      -0.45935092      -0.34408960 </v>
   <v>       0.06014333       0.04087128      -0.34391783 </v>
   <v>      -0.06524525       0.29071425      -0.34417832 </v>
   <v>      -0.31542211      -0.20940788      -0.34410169 </v>
   <v>       0.18466112       0.29067107      -0.34411222 </v>
   <v>      -0.19022333       0.04060353      -0.34414554 </v>
   <v>       0.43465126      -0.20932603      -0.34410930 </v>
   <v>       0.30973778       0.04081670      -0.34406027 </v>
   <v>      -0.44031399      -0.45933561      -0.34412171 </v>
   <v>      -0.31491444       0.29079982      -0.34392434 </v>
   <v>       0.43518474       0.29096058      -0.34390245 </v>
   <v>      -0.44017880       0.04075079      -0.34415195 </v>
   <v>       0.05949445      -0.28784784      -0.25503391 </v>
   <v>      -0.06622604       0.46258088      -0.25496088 </v>
   <v>       0.18441555       0.46254763      -0.25504524 </v>
   <v>      -0.18998083      -0.28794600      -0.25516016 </v>
   <v>       0.30982776      -0.28782644      -0.25516466 </v>
   <v>       0.18421961      -0.03729466      -0.25509521 </v>
   <v>      -0.06617699      -0.03793310      -0.25532610 </v>
   <v>       0.05991960       0.21273181      -0.25506241 </v>
   <v>      -0.31561723       0.46269940      -0.25507738 </v>
   <v>      -0.31543222      -0.03738205      -0.25516835 </v>
   <v>       0.43464984       0.46286509      -0.25521377 </v>
   <v>       0.43430821      -0.03741628      -0.25506701 </v>
   <v>      -0.18921211       0.21181177      -0.25534675 </v>
   <v>       0.30968878       0.21261293      -0.25507751 </v>
   <v>      -0.44018835      -0.28792989      -0.25514854 </v>
   <v>      -0.44001166       0.21239506      -0.25514709 </v>
   <v>      -0.05332713      -0.37345902      -0.29944463 </v>
   <v>       0.19638469      -0.37392653      -0.29970122 </v>
   <v>       0.07195635      -0.12348938      -0.29964088 </v>
   <v>      -0.17849066      -0.12360686      -0.29949753 </v>
   <v>       0.07263842       0.37702094      -0.29950513 </v>
   <v>       0.32184255      -0.12339753      -0.29945510 </v>
   <v>      -0.17801157       0.37656683      -0.29962676 </v>
   <v>      -0.30351248      -0.37334641      -0.29945114 </v>
   <v>      -0.05277304       0.12639675      -0.29965451 </v>
   <v>       0.32192522       0.37647979      -0.29958243 </v>
   <v>       0.19647663       0.12614563      -0.29964628 </v>
   <v>       0.44635027      -0.37339259      -0.29962576 </v>
   <v>      -0.42860209      -0.12363817      -0.29944149 </v>
   <v>      -0.30284686       0.12613460      -0.29957040 </v>
   <v>       0.44625172       0.12574118      -0.29959696 </v>
   <v>      -0.42773870       0.37619741      -0.29962131 </v>
  </varray>
 </structure>
 <varray name="primitive_index" >
  <v type="int" >        1 </v>
  <v type="int" >      238 </v>
  <v type="int" >      220 </v>
  <v type="int" >      193 </v>
  <v type="int" >      242 </v>
  <v type="int" >       10 </v>
  <v type="int" >       71 </v>
  <v type="int" >       81 </v>
  <v type="int" >      208 </v>
  <v type="int" >      109 </v>
  <v type="int" >      192 </v>
  <v type="int" >       89 </v>
  <v type="int" >       35 </v>
  <v type="int" >       32 </v>
  <v type="int" >       65 </v>
  <v type="int" >      263 </v>
  <v type="int" >       55 </v>
  <v type="int" >      243 </v>
  <v type="int" >      283 </v>
  <v type="int" >      128 </v>
  <v type="int" >      117 </v>
  <v type="int" >      155 </v>
  <v type="int" >      158 </v>
  <v type="int" >      252 </v>
  <v type="int" >      222 </v>
  <v type="int" >      262 </v>
  <v type="int" >      183 </v>
  <v type="int" >      265 </v>
  <v type="int" >      162 </v>
  <v type="int" >      160 </v>
  <v type="int" >       38 </v>
  <v type="int" >      161 </v>
  <v type="int" >      205 </v>
  <v type="int" >       28 </v>
  <v type="int" >       15 </v>
  <v type="int" >      126 </v>
  <v type="int" >       45 </v>
  <v type="int" >      147 </v>
  <v type="int" >      278 </v>
  <v type="int" >      226 </v>
  <v type="int" >      227 </v>
  <v type="int" >      286 </v>
  <v type="int" >       48 </v>
  <v type="int" >       14 </v>
  <v type="int" >       26 </v>
  <v type="int" >       70 </v>
  <v type="int" >      251 </v>
  <v type="int" >       61 </v>
  <v type="int" >      197 </v>
  <v type="int" >      108 </v>
  <v type="int" >      277 </v>
  <v type="int" >       33 </v>
  <v type="int" >      191 </v>
  <v type="int" >       90 </v>
  <v type="int" >       25 </v>
  <v type="int" >      203 </v>
  <v type="int" >       99 </v>
  <v type="int" >       23 </v>
  <v type="int" >      133 </v>
  <v type="int" >       52 </v>
  <v type="int" >      104 </v>
  <v type="int" >      189 </v>
  <v type="int" >      100 </v>
  <v type="int" >      144 </v>
  <v type="int" >       83 </v>
  <v type="int" >      142 </v>
  <v type="int" >      145 </v>
  <v type="int" >      143 </v>
  <v type="int" >        5 </v>
  <v type="int" >      261 </v>
  <v type="int" >      122 </v>
  <v type="int" >      112 </v>
  <v type="int" >      267 </v>
  <v type="int" >       43 </v>
  <v type="int" >      118 </v>
  <v type="int" >      190 </v>
  <v type="int" >       63 </v>
  <v type="int" >      255 </v>
  <v type="int" >      120 </v>
  <v type="int" >      279 </v>
  <v type="int" >       92 </v>
  <v type="int" >      169 </v>
  <v type="int" >      170 </v>
  <v type="int" >      257 </v>
  <v type="int" >      254 </v>
  <v type="int" >      214 </v>
  <v type="int" >      124 </v>
  <v type="int" >       34 </v>
  <v type="int" >      153 </v>
  <v type="int" >       24 </v>
  <v type="int" >       95 </v>
  <v type="int" >      236 </v>
  <v type="int" >      172 </v>
  <v type="int" >      123 </v>
  <v type="int" >      258 </v>
  <v type="int" >      247 </v>
  <v type="int" >      198 </v>
  <v type="int" >      229 </v>
  <v type="int" >       86 </v>
  <v type="int" >       57 </v>
  <v type="int" >      246 </v>
  <v type="int" >       50 </v>
  <v type="int" >      273 </v>
  <v type="int" >      156 </v>
  <v type="int" >      105 </v>
  <v type="int" >       17 </v>
  <v type="int" >       79 </v>
  <v type="int" >      134 </v>
  <v type="int" >      232 </v>
  <v type="int" >      171 </v>
  <v type="int" >      248 </v>
  <v type="int" >      244 </v>
  <v type="int" >      282 </v>
  <v type="int" >      168 </v>
  <v type="int" >      211 </v>
  <v type="int" >      256 </v>
  <v type="int" >       46 </v>
  <v type="int" >      240 </v>
  <v type="int" >       29 </v>
  <v type="int" >       94 </v>
  <v type="int" >      215 </v>
  <v type="int" >      281 </v>
  <v type="int" >      285 </v>
  <v type="int" >      223 </v>
  <v type="int" >      239 </v>
  <v type="int" >      115 </v>
  <v type="int" >      184 </v>
  <v type="int" >      136 </v>
  <v type="int" >       62 </v>
  <v type="int" >      166 </v>
  <v type="int" >      268 </v>
  <v type="int" >      179 </v>
  <v type="int" >      132 </v>
  <v type="int" >      217 </v>
  <v type="int" >      176 </v>
  <v type="int" >      249 </v>
  <v type="int" >      185 </v>
  <v type="int" >       91 </v>
  <v type="int" >       19 </v>
  <v type="int" >      130 </v>
  <v type="int" >      207 </v>
  <v type="int" >      206 </v>
  <v type="int" >      175 </v>
  <v type="int" >       11 </v>
  <v type="int" >      116 </v>
  <v type="int" >      178 </v>
  <v type="int" >      107 </v>
  <v type="int" >      241 </v>
  <v type="int" >      230 </v>
  <v type="int" >      218 </v>
  <v type="int" >      209 </v>
  <v type="int" >       18 </v>
  <v type="int" >      225 </v>
  <v type="int" >      187 </v>
  <v type="int" >       93 </v>
  <v type="int" >      266 </v>
  <v type="int" >       87 </v>
  <v type="int" >      141 </v>
  <v type="int" >      111 </v>
  <v type="int" >       58 </v>
  <v type="int" >      181 </v>
  <v type="int" >      101 </v>
  <v type="int" >      151 </v>
  <v type="int" >      125 </v>
  <v type="int" >      274 </v>
  <v type="int" >        2 </v>
  <v type="int" >      154 </v>
  <v type="int" >      212 </v>
  <v type="int" >       27 </v>
  <v type="int" >      234 </v>
  <v type="int" >      173 </v>
  <v type="int" >       97 </v>
  <v type="int" >       41 </v>
  <v type="int" >      131 </v>
  <v type="int" >       39 </v>
  <v type="int" >       72 </v>
  <v type="int" >      148 </v>
  <v type="int" >       12 </v>
  <v type="int" >      276 </v>
  <v type="int" >      250 </v>
  <v type="int" >       40 </v>
  <v type="int" >       13 </v>
  <v type="int" >      146 </v>
  <v type="int" >      264 </v>
  <v type="int" >      259 </v>
  <v type="int" >      216 </v>
  <v type="int" >      233 </v>
  <v type="int" >       21 </v>
  <v type="int" >       98 </v>
  <v type="int" >      235 </v>
  <v type="int" >       68 </v>
  <v type="int" >       16 </v>
  <v type="int" >       59 </v>
  <v type="int" >       66 </v>
  <v type="int" >      177 </v>
  <v type="int" >        6 </v>
  <v type="int" >       75 </v>
  <v type="int" >        7 </v>
  <v type="int" >       73 </v>
  <v type="int" >      150 </v>
  <v type="int" >      271 </v>
  <v type="int" >      152 </v>
  <v type="int" >      129 </v>
  <v type="int" >      188 </v>
  <v type="int" >      174 </v>
  <v type="int" >      221 </v>
  <v type="int" >      269 </v>
  <v type="int" >      103 </v>
  <v type="int" >      180 </v>
  <v type="int" >      245 </v>
  <v type="int" >       82 </v>
  <v type="int" >      194 </v>
  <v type="int" >      201 </v>
  <v type="int" >       51 </v>
  <v type="int" >      280 </v>
  <v type="int" >      102 </v>
  <v type="int" >      228 </v>
  <v type="int" >        3 </v>
  <v type="int" >        4 </v>
  <v type="int" >      260 </v>
  <v type="int" >      167 </v>
  <v type="int" >       30 </v>
  <v type="int" >       77 </v>
  <v type="int" >      149 </v>
  <v type="int" >      284 </v>
  <v type="int" >       36 </v>
  <v type="int" >      275 </v>
  <v type="int" >      106 </v>
  <v type="int" >       60 </v>
  <v type="int" >       67 </v>
  <v type="int" >      199 </v>
  <v type="int" >       88 </v>
  <v type="int" >      253 </v>
  <v type="int" >       54 </v>
  <v type="int" >      114 </v>
  <v type="int" >       85 </v>
  <v type="int" >      121 </v>
  <v type="int" >      182 </v>
  <v type="int" >      127 </v>
  <v type="int" >       44 </v>
  <v type="int" >      196 </v>
  <v type="int" >      157 </v>
  <v type="int" >      113 </v>
  <v type="int" >       42 </v>
  <v type="int" >       49 </v>
  <v type="int" >      135 </v>
  <v type="int" >       69 </v>
  <v type="int" >      210 </v>
  <v type="int" >      200 </v>
  <v type="int" >      213 </v>
  <v type="int" >       53 </v>
  <v type="int" >      186 </v>
  <v type="int" >       31 </v>
  <v type="int" >       76 </v>
  <v type="int" >      159 </v>
  <v type="int" >      140 </v>
  <v type="int" >      204 </v>
  <v type="int" >      119 </v>
  <v type="int" >      110 </v>
  <v type="int" >      202 </v>
  <v type="int" >       84 </v>
  <v type="int" >      237 </v>
  <v type="int" >      287 </v>
  <v type="int" >        9 </v>
  <v type="int" >      137 </v>
  <v type="int" >       80 </v>
  <v type="int" >       78 </v>
  <v type="int" >       20 </v>
  <v type="int" >       96 </v>
  <v type="int" >       64 </v>
  <v type="int" >      272 </v>
  <v type="int" >      138 </v>
  <v type="int" >      164 </v>
  <v type="int" >       74 </v>
  <v type="int" >      195 </v>
  <v type="int" >      163 </v>
  <v type="int" >      288 </v>
  <v type="int" >      219 </v>
  <v type="int" >      231 </v>
  <v type="int" >       56 </v>
  <v type="int" >      139 </v>
  <v type="int" >      270 </v>
  <v type="int" >      165 </v>
  <v type="int" >        8 </v>
  <v type="int" >       22 </v>
  <v type="int" >      224 </v>
  <v type="int" >       37 </v>
  <v type="int" >       47 </v>
 </varray>
 <kpoints>
  <generation param="Gamma">
   <v type="int" name="divisions">       4        4        1 </v>
   <v name="usershift">      0.00000000       0.00000000       0.00000000 </v>
   <v name="genvec1">      0.25000000       0.00000000       0.00000000 </v>
   <v name="genvec2">      0.00000000       0.25000000       0.00000000 </v>
   <v name="genvec3">      0.00000000       0.00000000       1.00000000 </v>
   <v name="shift">      0.00000000       0.00000000       0.00000000 </v>
  </generation>
  <varray name="kpointlist" >
   <v>       0.00000000       0.00000000       0.00000000 </v>
   <v>       0.25000000       0.00000000       0.00000000 </v>
   <v>       0.50000000       0.00000000       0.00000000 </v>
   <v>       0.00000000       0.25000000       0.00000000 </v>
   <v>       0.25000000       0.25000000       0.00000000 </v>
   <v>       0.50000000       0.25000000       0.00000000 </v>
   <v>      -0.25000000       0.25000000       0.00000000 </v>
   <v>       0.00000000       0.50000000       0.00000000 </v>
   <v>       0.25000000       0.50000000       0.00000000 </v>
   <v>       0.50000000       0.50000000       0.00000000 </v>
  </varray>
  <varray name="weights" >
   <v>       0.06250000 </v>
   <v>       0.12500000 </v>
   <v>       0.06250000 </v>
   <v>       0.12500000 </v>
   <v>       0.12500000 </v>
   <v>       0.12500000 </v>
   <v>       0.12500000 </v>
   <v>       0.06250000 </v>
   <v>       0.12500000 </v>
   <v>       0.06250000 </v>
  </varray>
 </kpoints>
 <parameters>
  <separator name="general" >
   <i type="string" name="SYSTEM">unknown system</i>
   <i type="logical" name="LCOMPAT"> F  </i>
  </separator>
  <separator name="electronic" >
   <i type="string" name="PREC">accura</i>
   <i name="ENMAX">    450.00000000</i>
   <i name="ENAUG">    838.43500000</i>
   <i name="EDIFF">      0.00000100</i>
   <i type="int" name="IALGO">    68</i>
   <i type="int" name="IWAVPR">    11</i>
   <i type="int" name="NBANDS">  1386</i>
   <i name="NELECT">   2297.00000000</i>
   <i type="int" name="TURBO">     0</i>
   <i type="int" name="IRESTART">     0</i>
   <i type="int" name="NREBOOT">     0</i>
   <i type="int" name="NMIN">     0</i>
   <i name="EREF">      0.00000000</i>
   <separator name="electronic smearing" >
    <i type="int" name="ISMEAR">     0</i>
    <i name="SIGMA">      0.15000000</i>
    <i name="KSPACING">      0.50000000</i>
    <i type="logical" name="KGAMMA"> T  </i>
   </separator>
   <separator name="electronic projectors" >
    <i type="logical" name="LREAL"> T  </i>
    <v name="ROPT">     -0.00025000     -0.00025000</v>
    <i type="int" name="LMAXPAW">  -100</i>
    <i type="int" name="LMAXMIX">     2</i>
    <i type="logical" name="NLSPLINE"> F  </i>
   </separator>
   <separator name="electronic startup" >
    <i type="int" name="ISTART">     0</i>
    <i type="int" name="ICHARG">     2</i>
    <i type="int" name="INIWAV">     1</i>
   </separator>
   <separator name="electronic spin" >
    <i type="int" name="ISPIN">     1</i>
    <i type="logical" name="LNONCOLLINEAR"> F  </i>
    <v name="MAGMOM">      1.00000000      1.00000000      1.00000000      1.00000000      1.00000000      1.00000000      1.00000000      1.00000000      1.00000000      1.00000000      1.00000000      1.00000000      1.00000000      1.00000000      1.00000000      1.00000000      1.00000000      1.00000000      1.00000000      1.00000000
      1.00000000      1.00000000      1.00000000      1.00000000      1.00000000      1.00000000      1.00000000      1.00000000      1.00000000      1.00000000      1.00000000      1.00000000      1.00000000      1.00000000      1.00000000      1.00000000      1.00000000      1.00000000      1.00000000      1.00000000
      1.00000000      1.00000000      1.00000000      1.00000000      1.00000000      1.00000000      1.00000000      1.00000000      1.00000000      1.00000000      1.00000000      1.00000000      1.00000000      1.00000000      1.00000000      1.00000000      1.00000000      1.00000000      1.00000000      1.00000000
      1.00000000      1.00000000      1.00000000      1.00000000      1.00000000      1.00000000      1.00000000      1.00000000      1.00000000      1.00000000      1.00000000      1.00000000      1.00000000      1.00000000      1.00000000      1.00000000      1.00000000      1.00000000      1.00000000      1.00000000
      1.00000000      1.00000000      1.00000000      1.00000000      1.00000000      1.00000000      1.00000000      1.00000000      1.00000000      1.00000000      1.00000000      1.00000000      1.00000000      1.00000000      1.00000000      1.00000000      1.00000000      1.00000000      1.00000000      1.00000000
      1.00000000      1.00000000      1.00000000      1.00000000      1.00000000      1.00000000      1.00000000      1.00000000      1.00000000      1.00000000      1.00000000      1.00000000      1.00000000      1.00000000      1.00000000      1.00000000      1.00000000      1.00000000      1.00000000      1.00000000
      1.00000000      1.00000000      1.00000000      1.00000000      1.00000000      1.00000000      1.00000000      1.00000000      1.00000000      1.00000000      1.00000000      1.00000000      1.00000000      1.00000000      1.00000000      1.00000000      1.00000000      1.00000000      1.00000000      1.00000000
      1.00000000      1.00000000      1.00000000      1.00000000      1.00000000      1.00000000      1.00000000      1.00000000      1.00000000      1.00000000      1.00000000      1.00000000      1.00000000      1.00000000      1.00000000      1.00000000      1.00000000      1.00000000      1.00000000      1.00000000
      1.00000000      1.00000000      1.00000000      1.00000000      1.00000000      1.00000000      1.00000000      1.00000000      1.00000000      1.00000000      1.00000000      1.00000000      1.00000000      1.00000000      1.00000000      1.00000000      1.00000000      1.00000000      1.00000000      1.00000000
      1.00000000      1.00000000      1.00000000      1.00000000      1.00000000      1.00000000      1.00000000      1.00000000      1.00000000      1.00000000      1.00000000      1.00000000      1.00000000      1.00000000      1.00000000      1.00000000      1.00000000      1.00000000      1.00000000      1.00000000
      1.00000000      1.00000000      1.00000000      1.00000000      1.00000000      1.00000000      1.00000000      1.00000000      1.00000000      1.00000000      1.00000000      1.00000000      1.00000000      1.00000000      1.00000000      1.00000000      1.00000000      1.00000000      1.00000000      1.00000000
      1.00000000      1.00000000      1.00000000      1.00000000      1.00000000      1.00000000      1.00000000      1.00000000      1.00000000      1.00000000      1.00000000      1.00000000      1.00000000      1.00000000      1.00000000      1.00000000      1.00000000      1.00000000      1.00000000      1.00000000
      1.00000000      1.00000000      1.00000000      1.00000000      1.00000000      1.00000000      1.00000000      1.00000000      1.00000000      1.00000000      1.00000000      1.00000000      1.00000000      1.00000000      1.00000000      1.00000000      1.00000000      1.00000000      1.00000000      1.00000000
      1.00000000      1.00000000      1.00000000      1.00000000      1.00000000      1.00000000      1.00000000      1.00000000      1.00000000      1.00000000      1.00000000      1.00000000      1.00000000      1.00000000      1.00000000      1.00000000      1.00000000      1.00000000      1.00000000      1.00000000
      1.00000000      1.00000000      1.00000000      1.00000000      1.00000000      1.00000000      1.00000000      1.00000000</v>
    <i name="NUPDOWN">     -1.00000000</i>
    <i type="logical" name="LSORBIT"> F  </i>
    <v name="SAXIS">      0.00000000      0.00000000      1.00000000</v>
    <i type="logical" name="LSPIRAL"> F  </i>
    <v name="QSPIRAL">      0.00000000      0.00000000      0.00000000</v>
    <i type="logical" name="LZEROZ"> F  </i>
   </separator>
   <separator name="electronic exchange-correlation" >
    <i type="logical" name="LASPH"> F  </i>
    <i type="logical" name="LMETAGGA"> F  </i>
   </separator>
   <separator name="electronic convergence" >
    <i type="int" name="NELM">   200</i>
    <i type="int" name="NELMDL">     0</i>
    <i type="int" name="NELMIN">     4</i>
    <i name="ENINI">    450.00000000</i>
    <separator name="electronic convergence detail" >
     <i type="logical" name="LDIAG"> T  </i>
     <i type="logical" name="LSUBROT"> F  </i>
     <i name="WEIMIN">      0.00100000</i>
     <i name="EBREAK">      0.00000000</i>
     <i name="DEPER">      0.30000000</i>
     <i type="int" name="NRMM">     4</i>
     <i name="TIME">      0.40000000</i>
    </separator>
   </separator>
   <separator name="electronic mixer" >
    <i name="AMIX">      0.40000000</i>
    <i name="BMIX">      1.00000000</i>
    <i name="AMIN">      0.10000000</i>
    <i name="AMIX_MAG">      1.60000000</i>
    <i name="BMIX_MAG">      1.00000000</i>
    <separator name="electronic mixer details" >
     <i type="int" name="IMIX">     4</i>
     <i type="logical" name="MIXFIRST"> F  </i>
     <i type="int" name="MAXMIX">   -45</i>
     <i name="WC">    100.00000000</i>
     <i type="int" name="INIMIX">     1</i>
     <i type="int" name="MIXPRE">     1</i>
     <i type="int" name="MREMOVE">     5</i>
    </separator>
   </separator>
   <separator name="electronic dipolcorrection" >
    <i type="logical" name="LDIPOL"> F  </i>
    <i type="logical" name="LMONO"> F  </i>
    <i type="int" name="IDIPOL">     0</i>
    <i name="EPSILON">      1.00000000</i>
    <v name="DIPOL">   -100.00000000   -100.00000000   -100.00000000</v>
    <i name="EFIELD">      0.00000000</i>
   </separator>
  </separator>
  <separator name="grids" >
   <i type="int" name="NGX">    70</i>
   <i type="int" name="NGY">    60</i>
   <i type="int" name="NGZ">   320</i>
   <i type="int" name="NGXF">   140</i>
   <i type="int" name="NGYF">   120</i>
   <i type="int" name="NGZF">   640</i>
   <i type="logical" name="ADDGRID"> F  </i>
  </separator>
  <separator name="ionic" >
   <i type="int" name="NSW">     5</i>
   <i type="int" name="IBRION">     2</i>
   <i type="int" name="MDALGO">     0</i>
   <i type="int" name="ISIF">     2</i>
   <i name="PSTRESS">      0.00000000</i>
   <i name="EDIFFG">      0.00001000</i>
   <i type="int" name="NFREE">     1</i>
   <i name="POTIM">      0.25000000</i>
   <i name="SMASS">     -3.00000000</i>
   <i name="SCALEE">      1.00000000</i>
  </separator>
  <separator name="ionic md" >
   <i name="TEBEG">      0.00010000</i>
   <i name="TEEND">      0.00010000</i>
   <i type="int" name="NBLOCK">     1</i>
   <i type="int" name="KBLOCK">     5</i>
   <i type="int" name="NPACO">   256</i>
   <i name="APACO">     16.00000000</i>
  </separator>
  <separator name="symmetry" >
   <i type="int" name="ISYM">     2</i>
   <i name="SYMPREC">      0.00001000</i>
  </separator>
  <separator name="dos" >
   <i type="int" name="LORBIT">     0</i>
   <v name="RWIGS">     -1.00000000     -1.00000000</v>
   <i type="int" name="NEDOS">   301</i>
   <i name="EMIN">     10.00000000</i>
   <i name="EMAX">    -10.00000000</i>
   <i name="EFERMI">      0.00000000</i>
  </separator>
  <separator name="writing" >
   <i type="int" name="NWRITE">     2</i>
   <i type="logical" name="LWAVE"> F  </i>
   <i type="logical" name="LDOWNSAMPLE"> F  </i>
   <i type="logical" name="LCHARG"> F  </i>
   <i type="logical" name="LPARD"> F  </i>
   <i type="logical" name="LVTOT"> F  </i>
   <i type="logical" name="LVHAR"> F  </i>
   <i type="logical" name="LELF"> F  </i>
   <i type="logical" name="LOPTICS"> F  </i>
   <v name="STM">      0.00000000      0.00000000      0.00000000      0.00000000      0.00000000      0.00000000      0.00000000</v>
  </separator>
  <separator name="performance" >
   <i type="int" name="NPAR">    14</i>
   <i type="int" name="NSIM">     4</i>
   <i type="int" name="NBLK">    -1</i>
   <i type="logical" name="LPLANE"> T  </i>
   <i type="logical" name="LSCALAPACK"> T  </i>
   <i type="logical" name="LSCAAWARE"> T  </i>
   <i type="logical" name="LSCALU"> F  </i>
   <i type="logical" name="LASYNC"> F  </i>
   <i type="logical" name="LORBITALREAL"> F  </i>
  </separator>
  <separator name="miscellaneous" >
   <i type="int" name="IDIOT">     3</i>
   <i type="int" name="ISPECIAL">     0</i>
   <i type="logical" name="LMUSIC"> F  </i>
   <v name="POMASS">     55.84700000     54.93800000</v>
   <v name="DARWINR">      0.00000000      0.00000000</v>
   <v name="DARWINV">      1.00000000      1.00000000</v>
   <i type="logical" name="LCORR"> T  </i>
  </separator>
  <i type="logical" name="GGA_COMPAT"> T  </i>
  <i type="logical" name="LBERRY"> F  </i>
  <i type="int" name="ICORELEVEL">     0</i>
  <i type="logical" name="LDAU"> F  </i>
  <i type="int" name="I_CONSTRAINED_M">     0</i>
  <separator name="electronic exchange-correlation" >
   <i type="string" name="GGA">--</i>
   <i type="int" name="VOSKOWN">     0</i>
   <i type="logical" name="LHFCALC"> F  </i>
   <i type="string" name="PRECFOCK"></i>
   <i type="logical" name="LSYMGRAD"> F  </i>
   <i type="logical" name="LHFONE"> F  </i>
   <i type="logical" name="LRHFCALC"> F  </i>
   <i type="logical" name="LTHOMAS"> F  </i>
   <i type="logical" name="LMODELHF"> F  </i>
   <i name="ENCUT4O">     -1.00000000</i>
   <i type="int" name="EXXOEP">     0</i>
   <i type="int" name="FOURORBIT">     0</i>
   <i name="AEXX">      0.00000000</i>
   <i name="HFALPHA">      0.00000000</i>
   <i name="MCALPHA">      0.00000000</i>
   <i name="ALDAX">      1.00000000</i>
   <i name="AGGAX">      1.00000000</i>
   <i name="ALDAC">      1.00000000</i>
   <i name="AGGAC">      1.00000000</i>
   <i type="int" name="NKREDX">     1</i>
   <i type="int" name="NKREDY">     1</i>
   <i type="int" name="NKREDZ">     1</i>
   <i type="logical" name="SHIFTRED"> F  </i>
   <i type="logical" name="ODDONLY"> F  </i>
   <i type="logical" name="EVENONLY"> F  </i>
   <i type="int" name="LMAXFOCK">     0</i>
   <i type="int" name="NMAXFOCKAE">     0</i>
   <i type="logical" name="LFOCKAEDFT"> F  </i>
   <i name="HFSCREEN">      0.00000000</i>
   <i name="HFSCREENC">      0.00000000</i>
   <i type="int" name="NBANDSGWLOW">     0</i>
  </separator>
  <separator name="vdW DFT" >
   <i type="logical" name="LUSE_VDW"> F  </i>
   <i name="Zab_VDW">     -0.84910000</i>
   <i name="PARAM1">      0.12340000</i>
   <i name="PARAM2">      1.00000000</i>
   <i name="PARAM3">      0.00000000</i>
  </separator>
  <separator name="model GW" >
   <i type="int" name="MODEL_GW">     0</i>
   <i name="MODEL_EPS0">      7.68123389</i>
   <i name="MODEL_ALPHA">      1.00000000</i>
  </separator>
  <separator name="linear response parameters" >
   <i type="logical" name="LEPSILON"> F  </i>
   <i type="logical" name="LRPA"> F  </i>
   <i type="logical" name="LNABLA"> F  </i>
   <i type="logical" name="LVEL"> F  </i>
   <i type="int" name="KINTER">     0</i>
   <i name="CSHIFT">      0.10000000</i>
   <i name="OMEGAMAX">     -1.00000000</i>
   <i name="DEG_THRESHOLD">      0.00200000</i>
   <i name="RTIME">     -0.10000000</i>
   <i name="WPLASMAI">      0.00000000</i>
   <v name="DFIELD">      0.00000000      0.00000000      0.00000000</v>
   <v name="WPLASMA">      0.00000000      0.00000000      0.00000000      0.00000000      0.00000000      0.00000000      0.00000000      0.00000000      0.00000000</v>
  </separator>
  <separator name="orbital magnetization" >
   <i type="logical" name="NUCIND"> F  </i>
   <v name="MAGPOS">      0.00000000      0.00000000      0.00000000</v>
   <i type="logical" name="LNICSALL"> T  </i>
   <i type="logical" name="ORBITALMAG"> F  </i>
   <i type="logical" name="LMAGBLOCH"> F  </i>
   <i type="logical" name="LCHIMAG"> F  </i>
   <i type="logical" name="LGAUGE"> T  </i>
   <i type="int" name="MAGATOM">     0</i>
   <v name="MAGDIPOL">      0.00000000      0.00000000      0.00000000</v>
   <v name="AVECCONST">      0.00000000      0.00000000      0.00000000</v>
  </separator>
  <separator name="response functions" >
   <i type="logical" name="LADDER"> F  </i>
   <i type="logical" name="LRPAFORCE"> F  </i>
   <i type="logical" name="LFXC"> F  </i>
   <i type="logical" name="LHARTREE"> T  </i>
   <i type="int" name="IBSE">     0</i>
   <v type="int" name="KPOINT">    -1     0     0     0</v>
   <i type="logical" name="LTCTE"> F  </i>
   <i type="logical" name="LTETE"> F  </i>
   <i type="logical" name="LTRIPLET"> F  </i>
   <i type="logical" name="LFXCEPS"> F  </i>
   <i type="logical" name="LFXHEG"> F  </i>
   <i type="int" name="NATURALO">     2</i>
   <i type="logical" name="L2ORDER"> F  </i>
   <i type="logical" name="LMP2LT"> F  </i>
   <i type="logical" name="LUSEW"> F  </i>
   <i name="ENCUTGW">     -2.00000000</i>
   <i name="ENCUTGWSOFT">     -2.00000000</i>
   <i name="ENCUTLF">     -1.00000000</i>
   <i type="int" name="LMAXMP2">    -1</i>
   <i name="SCISSOR">      0.00000000</i>
   <i type="int" name="NOMEGA">     0</i>
   <i type="int" name="NOMEGAR">     0</i>
   <i type="int" name="NBANDSGW">    -1</i>
   <i type="int" name="NBANDSO">    -1</i>
   <i type="int" name="NBANDSV">    -1</i>
   <i type="int" name="NELM">   200</i>
   <i type="int" name="NELMHF">     1</i>
   <i type="int" name="DIM">     3</i>
   <i type="int" name="ANTIRES">     0</i>
   <i name="OMEGAMAX">    -30.00000000</i>
   <i name="OMEGAMIN">    -30.00000000</i>
   <i name="OMEGATL">   -200.00000000</i>
   <i type="int" name="OMEGAGRID">   140</i>
   <i name="CSHIFT">     -0.10000000</i>
   <i type="logical" name="SELFENERGY"> F  </i>
   <i type="logical" name="LSPECTRAL"> F  </i>
   <i type="logical" name="LSPECTRALGW"> F  </i>
   <i type="logical" name="LSINGLES"> F  </i>
   <i type="logical" name="LFERMIGW"> F  </i>
   <i type="logical" name="ODDONLYGW"> F  </i>
   <i type="logical" name="EVENONLYGW"> F  </i>
   <i type="int" name="NKREDLFX">     1</i>
   <i type="int" name="NKREDLFY">     1</i>
   <i type="int" name="NKREDLFZ">     1</i>
   <i type="int" name="MAXMEM">  2800</i>
   <i type="int" name="TELESCOPE">     0</i>
   <i type="int" name="TAUPAR">     1</i>
   <i type="int" name="OMEGAPAR">    -1</i>
   <i name="LAMBDA">      1.00000000</i>
  </separator>
  <separator name="External order field" >
   <i name="OFIELD_KAPPA">      0.00000000</i>
   <v name="OFIELD_K">      0.00000000      0.00000000      0.00000000</v>
   <i name="OFIELD_Q6_NEAR">      0.00000000</i>
   <i name="OFIELD_Q6_FAR">      0.00000000</i>
   <i name="OFIELD_A">      0.00000000</i>
  </separator>
 </parameters>
 <atominfo>
  <atoms>     288 </atoms>
  <types>       2 </types>
  <array name="atoms" >
   <dimension dim="1">ion</dimension>
   <field type="string">element</field>
   <field type="int">atomtype</field>
   <set>
    <rc><c>Fe</c><c>   1</c></rc>
    <rc><c>Fe</c><c>   1</c></rc>
    <rc><c>Fe</c><c>   1</c></rc>
    <rc><c>Fe</c><c>   1</c></rc>
    <rc><c>Fe</c><c>   1</c></rc>
    <rc><c>Fe</c><c>   1</c></rc>
    <rc><c>Fe</c><c>   1</c></rc>
    <rc><c>Fe</c><c>   1</c></rc>
    <rc><c>Fe</c><c>   1</c></rc>
    <rc><c>Fe</c><c>   1</c></rc>
    <rc><c>Fe</c><c>   1</c></rc>
    <rc><c>Fe</c><c>   1</c></rc>
    <rc><c>Fe</c><c>   1</c></rc>
    <rc><c>Fe</c><c>   1</c></rc>
    <rc><c>Fe</c><c>   1</c></rc>
    <rc><c>Fe</c><c>   1</c></rc>
    <rc><c>Fe</c><c>   1</c></rc>
    <rc><c>Fe</c><c>   1</c></rc>
    <rc><c>Fe</c><c>   1</c></rc>
    <rc><c>Fe</c><c>   1</c></rc>
    <rc><c>Fe</c><c>   1</c></rc>
    <rc><c>Fe</c><c>   1</c></rc>
    <rc><c>Fe</c><c>   1</c></rc>
    <rc><c>Fe</c><c>   1</c></rc>
    <rc><c>Fe</c><c>   1</c></rc>
    <rc><c>Fe</c><c>   1</c></rc>
    <rc><c>Fe</c><c>   1</c></rc>
    <rc><c>Fe</c><c>   1</c></rc>
    <rc><c>Fe</c><c>   1</c></rc>
    <rc><c>Fe</c><c>   1</c></rc>
    <rc><c>Fe</c><c>   1</c></rc>
    <rc><c>Fe</c><c>   1</c></rc>
    <rc><c>Fe</c><c>   1</c></rc>
    <rc><c>Fe</c><c>   1</c></rc>
    <rc><c>Fe</c><c>   1</c></rc>
    <rc><c>Fe</c><c>   1</c></rc>
    <rc><c>Fe</c><c>   1</c></rc>
    <rc><c>Fe</c><c>   1</c></rc>
    <rc><c>Fe</c><c>   1</c></rc>
    <rc><c>Fe</c><c>   1</c></rc>
    <rc><c>Fe</c><c>   1</c></rc>
    <rc><c>Fe</c><c>   1</c></rc>
    <rc><c>Fe</c><c>   1</c></rc>
    <rc><c>Fe</c><c>   1</c></rc>
    <rc><c>Fe</c><c>   1</c></rc>
    <rc><c>Fe</c><c>   1</c></rc>
    <rc><c>Fe</c><c>   1</c></rc>
    <rc><c>Fe</c><c>   1</c></rc>
    <rc><c>Fe</c><c>   1</c></rc>
    <rc><c>Fe</c><c>   1</c></rc>
    <rc><c>Fe</c><c>   1</c></rc>
    <rc><c>Fe</c><c>   1</c></rc>
    <rc><c>Fe</c><c>   1</c></rc>
    <rc><c>Fe</c><c>   1</c></rc>
    <rc><c>Fe</c><c>   1</c></rc>
    <rc><c>Fe</c><c>   1</c></rc>
    <rc><c>Fe</c><c>   1</c></rc>
    <rc><c>Fe</c><c>   1</c></rc>
    <rc><c>Fe</c><c>   1</c></rc>
    <rc><c>Fe</c><c>   1</c></rc>
    <rc><c>Fe</c><c>   1</c></rc>
    <rc><c>Fe</c><c>   1</c></rc>
    <rc><c>Fe</c><c>   1</c></rc>
    <rc><c>Fe</c><c>   1</c></rc>
    <rc><c>Fe</c><c>   1</c></rc>
    <rc><c>Fe</c><c>   1</c></rc>
    <rc><c>Fe</c><c>   1</c></rc>
    <rc><c>Fe</c><c>   1</c></rc>
    <rc><c>Fe</c><c>   1</c></rc>
    <rc><c>Fe</c><c>   1</c></rc>
    <rc><c>Fe</c><c>   1</c></rc>
    <rc><c>Fe</c><c>   1</c></rc>
    <rc><c>Fe</c><c>   1</c></rc>
    <rc><c>Fe</c><c>   1</c></rc>
    <rc><c>Fe</c><c>   1</c></rc>
    <rc><c>Fe</c><c>   1</c></rc>
    <rc><c>Fe</c><c>   1</c></rc>
    <rc><c>Fe</c><c>   1</c></rc>
    <rc><c>Fe</c><c>   1</c></rc>
    <rc><c>Fe</c><c>   1</c></rc>
    <rc><c>Fe</c><c>   1</c></rc>
    <rc><c>Fe</c><c>   1</c></rc>
    <rc><c>Fe</c><c>   1</c></rc>
    <rc><c>Fe</c><c>   1</c></rc>
    <rc><c>Fe</c><c>   1</c></rc>
    <rc><c>Fe</c><c>   1</c></rc>
    <rc><c>Fe</c><c>   1</c></rc>
    <rc><c>Fe</c><c>   1</c></rc>
    <rc><c>Fe</c><c>   1</c></rc>
    <rc><c>Fe</c><c>   1</c></rc>
    <rc><c>Fe</c><c>   1</c></rc>
    <rc><c>Fe</c><c>   1</c></rc>
    <rc><c>Fe</c><c>   1</c></rc>
    <rc><c>Fe</c><c>   1</c></rc>
    <rc><c>Fe</c><c>   1</c></rc>
    <rc><c>Fe</c><c>   1</c></rc>
    <rc><c>Fe</c><c>   1</c></rc>
    <rc><c>Fe</c><c>   1</c></rc>
    <rc><c>Fe</c><c>   1</c></rc>
    <rc><c>Fe</c><c>   1</c></rc>
    <rc><c>Fe</c><c>   1</c></rc>
    <rc><c>Fe</c><c>   1</c></rc>
    <rc><c>Fe</c><c>   1</c></rc>
    <rc><c>Fe</c><c>   1</c></rc>
    <rc><c>Fe</c><c>   1</c></rc>
    <rc><c>Fe</c><c>   1</c></rc>
    <rc><c>Fe</c><c>   1</c></rc>
    <rc><c>Fe</c><c>   1</c></rc>
    <rc><c>Fe</c><c>   1</c></rc>
    <rc><c>Fe</c><c>   1</c></rc>
    <rc><c>Fe</c><c>   1</c></rc>
    <rc><c>Fe</c><c>   1</c></rc>
    <rc><c>Fe</c><c>   1</c></rc>
    <rc><c>Fe</c><c>   1</c></rc>
    <rc><c>Fe</c><c>   1</c></rc>
    <rc><c>Fe</c><c>   1</c></rc>
    <rc><c>Fe</c><c>   1</c></rc>
    <rc><c>Fe</c><c>   1</c></rc>
    <rc><c>Fe</c><c>   1</c></rc>
    <rc><c>Fe</c><c>   1</c></rc>
    <rc><c>Fe</c><c>   1</c></rc>
    <rc><c>Fe</c><c>   1</c></rc>
    <rc><c>Fe</c><c>   1</c></rc>
    <rc><c>Fe</c><c>   1</c></rc>
    <rc><c>Fe</c><c>   1</c></rc>
    <rc><c>Fe</c><c>   1</c></rc>
    <rc><c>Fe</c><c>   1</c></rc>
    <rc><c>Fe</c><c>   1</c></rc>
    <rc><c>Fe</c><c>   1</c></rc>
    <rc><c>Fe</c><c>   1</c></rc>
    <rc><c>Fe</c><c>   1</c></rc>
    <rc><c>Fe</c><c>   1</c></rc>
    <rc><c>Fe</c><c>   1</c></rc>
    <rc><c>Fe</c><c>   1</c></rc>
    <rc><c>Fe</c><c>   1</c></rc>
    <rc><c>Fe</c><c>   1</c></rc>
    <rc><c>Fe</c><c>   1</c></rc>
    <rc><c>Fe</c><c>   1</c></rc>
    <rc><c>Fe</c><c>   1</c></rc>
    <rc><c>Fe</c><c>   1</c></rc>
    <rc><c>Fe</c><c>   1</c></rc>
    <rc><c>Fe</c><c>   1</c></rc>
    <rc><c>Fe</c><c>   1</c></rc>
    <rc><c>Fe</c><c>   1</c></rc>
    <rc><c>Fe</c><c>   1</c></rc>
    <rc><c>Fe</c><c>   1</c></rc>
    <rc><c>Fe</c><c>   1</c></rc>
    <rc><c>Fe</c><c>   1</c></rc>
    <rc><c>Fe</c><c>   1</c></rc>
    <rc><c>Fe</c><c>   1</c></rc>
    <rc><c>Fe</c><c>   1</c></rc>
    <rc><c>Fe</c><c>   1</c></rc>
    <rc><c>Fe</c><c>   1</c></rc>
    <rc><c>Fe</c><c>   1</c></rc>
    <rc><c>Fe</c><c>   1</c></rc>
    <rc><c>Fe</c><c>   1</c></rc>
    <rc><c>Fe</c><c>   1</c></rc>
    <rc><c>Fe</c><c>   1</c></rc>
    <rc><c>Fe</c><c>   1</c></rc>
    <rc><c>Fe</c><c>   1</c></rc>
    <rc><c>Fe</c><c>   1</c></rc>
    <rc><c>Fe</c><c>   1</c></rc>
    <rc><c>Fe</c><c>   1</c></rc>
    <rc><c>Fe</c><c>   1</c></rc>
    <rc><c>Fe</c><c>   1</c></rc>
    <rc><c>Fe</c><c>   1</c></rc>
    <rc><c>Fe</c><c>   1</c></rc>
    <rc><c>Fe</c><c>   1</c></rc>
    <rc><c>Fe</c><c>   1</c></rc>
    <rc><c>Fe</c><c>   1</c></rc>
    <rc><c>Fe</c><c>   1</c></rc>
    <rc><c>Fe</c><c>   1</c></rc>
    <rc><c>Fe</c><c>   1</c></rc>
    <rc><c>Fe</c><c>   1</c></rc>
    <rc><c>Fe</c><c>   1</c></rc>
    <rc><c>Fe</c><c>   1</c></rc>
    <rc><c>Fe</c><c>   1</c></rc>
    <rc><c>Fe</c><c>   1</c></rc>
    <rc><c>Fe</c><c>   1</c></rc>
    <rc><c>Fe</c><c>   1</c></rc>
    <rc><c>Fe</c><c>   1</c></rc>
    <rc><c>Fe</c><c>   1</c></rc>
    <rc><c>Fe</c><c>   1</c></rc>
    <rc><c>Fe</c><c>   1</c></rc>
    <rc><c>Fe</c><c>   1</c></rc>
    <rc><c>Fe</c><c>   1</c></rc>
    <rc><c>Fe</c><c>   1</c></rc>
    <rc><c>Fe</c><c>   1</c></rc>
    <rc><c>Fe</c><c>   1</c></rc>
    <rc><c>Fe</c><c>   1</c></rc>
    <rc><c>Fe</c><c>   1</c></rc>
    <rc><c>Fe</c><c>   1</c></rc>
    <rc><c>Fe</c><c>   1</c></rc>
    <rc><c>Fe</c><c>   1</c></rc>
    <rc><c>Fe</c><c>   1</c></rc>
    <rc><c>Fe</c><c>   1</c></rc>
    <rc><c>Fe</c><c>   1</c></rc>
    <rc><c>Fe</c><c>   1</c></rc>
    <rc><c>Fe</c><c>   1</c></rc>
    <rc><c>Fe</c><c>   1</c></rc>
    <rc><c>Fe</c><c>   1</c></rc>
    <rc><c>Fe</c><c>   1</c></rc>
    <rc><c>Fe</c><c>   1</c></rc>
    <rc><c>Fe</c><c>   1</c></rc>
    <rc><c>Fe</c><c>   1</c></rc>
    <rc><c>Fe</c><c>   1</c></rc>
    <rc><c>Fe</c><c>   1</c></rc>
    <rc><c>Fe</c><c>   1</c></rc>
    <rc><c>Fe</c><c>   1</c></rc>
    <rc><c>Fe</c><c>   1</c></rc>
    <rc><c>Fe</c><c>   1</c></rc>
    <rc><c>Fe</c><c>   1</c></rc>
    <rc><c>Fe</c><c>   1</c></rc>
    <rc><c>Fe</c><c>   1</c></rc>
    <rc><c>Fe</c><c>   1</c></rc>
    <rc><c>Fe</c><c>   1</c></rc>
    <rc><c>Fe</c><c>   1</c></rc>
    <rc><c>Fe</c><c>   1</c></rc>
    <rc><c>Fe</c><c>   1</c></rc>
    <rc><c>Fe</c><c>   1</c></rc>
    <rc><c>Fe</c><c>   1</c></rc>
    <rc><c>Fe</c><c>   1</c></rc>
    <rc><c>Fe</c><c>   1</c></rc>
    <rc><c>Fe</c><c>   1</c></rc>
    <rc><c>Fe</c><c>   1</c></rc>
    <rc><c>Fe</c><c>   1</c></rc>
    <rc><c>Fe</c><c>   1</c></rc>
    <rc><c>Fe</c><c>   1</c></rc>
    <rc><c>Fe</c><c>   1</c></rc>
    <rc><c>Fe</c><c>   1</c></rc>
    <rc><c>Fe</c><c>   1</c></rc>
    <rc><c>Fe</c><c>   1</c></rc>
    <rc><c>Fe</c><c>   1</c></rc>
    <rc><c>Fe</c><c>   1</c></rc>
    <rc><c>Fe</c><c>   1</c></rc>
    <rc><c>Fe</c><c>   1</c></rc>
    <rc><c>Fe</c><c>   1</c></rc>
    <rc><c>Fe</c><c>   1</c></rc>
    <rc><c>Fe</c><c>   1</c></rc>
    <rc><c>Fe</c><c>   1</c></rc>
    <rc><c>Fe</c><c>   1</c></rc>
    <rc><c>Fe</c><c>   1</c></rc>
    <rc><c>Fe</c><c>   1</c></rc>
    <rc><c>Fe</c><c>   1</c></rc>
    <rc><c>Fe</c><c>   1</c></rc>
    <rc><c>Fe</c><c>   1</c></rc>
    <rc><c>Fe</c><c>   1</c></rc>
    <rc><c>Fe</c><c>   1</c></rc>
    <rc><c>Fe</c><c>   1</c></rc>
    <rc><c>Fe</c><c>   1</c></rc>
    <rc><c>Fe</c><c>   1</c></rc>
    <rc><c>Fe</c><c>   1</c></rc>
    <rc><c>Fe</c><c>   1</c></rc>
    <rc><c>Fe</c><c>   1</c></rc>
    <rc><c>Fe</c><c>   1</c></rc>
    <rc><c>Fe</c><c>   1</c></rc>
    <rc><c>Fe</c><c>   1</c></rc>
    <rc><c>Fe</c><c>   1</c></rc>
    <rc><c>Fe</c><c>   1</c></rc>
    <rc><c>Fe</c><c>   1</c></rc>
    <rc><c>Fe</c><c>   1</c></rc>
    <rc><c>Fe</c><c>   1</c></rc>
    <rc><c>Fe</c><c>   1</c></rc>
    <rc><c>Fe</c><c>   1</c></rc>
    <rc><c>Fe</c><c>   1</c></rc>
    <rc><c>Fe</c><c>   1</c></rc>
    <rc><c>Fe</c><c>   1</c></rc>
    <rc><c>Fe</c><c>   1</c></rc>
    <rc><c>Fe</c><c>   1</c></rc>
    <rc><c>Fe</c><c>   1</c></rc>
    <rc><c>Fe</c><c>   1</c></rc>
    <rc><c>Fe</c><c>   1</c></rc>
    <rc><c>Fe</c><c>   1</c></rc>
    <rc><c>Fe</c><c>   1</c></rc>
    <rc><c>Fe</c><c>   1</c></rc>
    <rc><c>Fe</c><c>   1</c></rc>
    <rc><c>Fe</c><c>   1</c></rc>
    <rc><c>Fe</c><c>   1</c></rc>
    <rc><c>Fe</c><c>   1</c></rc>
    <rc><c>Fe</c><c>   1</c></rc>
    <rc><c>Fe</c><c>   1</c></rc>
    <rc><c>Mn</c><c>   2</c></rc>
    <rc><c>Mn</c><c>   2</c></rc>
    <rc><c>Mn</c><c>   2</c></rc>
    <rc><c>Mn</c><c>   2</c></rc>
    <rc><c>Mn</c><c>   2</c></rc>
    <rc><c>Mn</c><c>   2</c></rc>
    <rc><c>Mn</c><c>   2</c></rc>
   </set>
  </array>
  <array name="atomtypes" >
   <dimension dim="1">type</dimension>
   <field type="int">atomspertype</field>
   <field type="string">element</field>
   <field>mass</field>
   <field>valence</field>
   <field type="string">pseudopotential</field>
   <set>
    <rc><c> 281</c><c>Fe</c><c>     55.84700000</c><c>      8.00000000</c><c>  PAW_PBE Fe_GW 31Mar2010               </c></rc>
    <rc><c>   7</c><c>Mn</c><c>     54.93800000</c><c>      7.00000000</c><c>  PAW_PBE Mn_GW 31Mar2010               </c></rc>
   </set>
  </array>
 </atominfo>
 <structure name="initialpos" >
  <crystal>
   <varray name="basis" >
    <v>       9.72667804       0.00000000       0.00000000 </v>
    <v>       0.00000000       8.42355028       0.00000000 </v>
    <v>       0.00000000       0.00000000      45.00000000 </v>
   </varray>
   <i name="volume">   3686.99226691 </i>
   <varray name="rec_basis" >
    <v>       0.10281002       0.00000000       0.00000000 </v>
    <v>       0.00000000       0.11871479       0.00000000 </v>
    <v>       0.00000000       0.00000000       0.02222222 </v>
   </varray>
  </crystal>
  <varray name="positions" >
   <v>       0.05411107       0.70103822       0.21128498 </v>
   <v>       0.31808292       0.72410869       0.87623669 </v>
   <v>       0.68837769       0.95892410       0.61149192 </v>
   <v>       0.43838050       0.45859412       0.61157771 </v>
   <v>       0.44085689       0.28728922       0.25522790 </v>
   <v>       0.05875543       0.38856459       0.83362889 </v>
   <v>       0.30851615       0.88766568       0.83353865 </v>
   <v>       0.44635027       0.62660741       0.70037424 </v>
   <v>       0.05991960       0.21273181       0.74493759 </v>
   <v>       0.17860144       0.45109997       0.21131162 </v>
   <v>       0.56788059       0.21061229       0.47745651 </v>
   <v>       0.06679185       0.87504768       0.56693035 </v>
   <v>       0.56840428       0.22397230       0.87613748 </v>
   <v>       0.80792758       0.52802299       0.12393394 </v>
   <v>       0.42927538       0.95130538       0.21136495 </v>
   <v>       0.56669819       0.37490037       0.56681116 </v>
   <v>       0.81104808       0.04160205       0.38832678 </v>
   <v>       0.68197547       0.78875314       0.52244140 </v>
   <v>       0.44285519       0.46066596       0.47748146 </v>
   <v>       0.43430821       0.96258372       0.74493299 </v>
   <v>       0.44175626       0.62498446       0.56691959 </v>
   <v>       0.57139791       0.87636183       0.70055851 </v>
   <v>       0.30897580       0.02583104       0.12391300 </v>
   <v>       0.68979299       0.95881983       0.34396149 </v>
   <v>       0.68797957       0.78221427       0.12419011 </v>
   <v>       0.05283652       0.37388739       0.29952789 </v>
   <v>       0.68963084       0.46775769       0.87606623 </v>
   <v>       0.42936822       0.45114471       0.21135167 </v>
   <v>       0.80841626       0.37520500       0.43305854 </v>
   <v>       0.56323744       0.70827801       0.61157000 </v>
   <v>       0.55968601       0.54066439       0.65587829 </v>
   <v>       0.81775859       0.86173482       0.16668487 </v>
   <v>       0.56533122       0.53762809       0.25501285 </v>
   <v>       0.68989955       0.45876217       0.34394019 </v>
   <v>       0.19174528       0.61156430       0.16641403 </v>
   <v>       0.19445666       0.79967905       0.78891509 </v>
   <v>       0.44625172       0.12574118       0.70040304 </v>
   <v>       0.92802191       0.62359169       0.29961292 </v>
   <v>       0.31757244       0.22340520       0.87611531 </v>
   <v>       0.31660827       0.87477011       0.56688226 </v>
   <v>       0.81732329       0.22388669       0.87618369 </v>
   <v>       0.80966505       0.54077580       0.65582037 </v>
   <v>       0.55880458       0.52661911       0.12390356 </v>
   <v>       0.56932686       0.04973602       0.78893305 </v>
   <v>       0.19104748       0.28731357       0.25525407 </v>
   <v>       0.80858588       0.87518224       0.43306377 </v>
   <v>       0.57226130       0.37619741       0.70037869 </v>
   <v>       0.05737382       0.02601683       0.12409421 </v>
   <v>       0.30968567       0.54064908       0.65591040 </v>
   <v>       0.56505896       0.20899508       0.34395972 </v>
   <v>       0.18782478       0.95822344       0.61123792 </v>
   <v>       0.30304787       0.37396494       0.29957889 </v>
   <v>       0.43465126       0.79067397       0.65589070 </v>
   <v>       0.19466387       0.29906693       0.78883623 </v>
   <v>       0.06753336       0.36284148       0.16666875 </v>
   <v>       0.69648752       0.62665359       0.70054886 </v>
   <v>       0.31135453       0.54103576       0.38840665 </v>
   <v>       0.06781808       0.72308158       0.87628149 </v>
   <v>       0.93383736       0.63757887       0.83401146 </v>
   <v>       0.31975148       0.54979576       0.78900588 </v>
   <v>       0.30467951       0.20057986       0.21123206 </v>
   <v>       0.06802586       0.71071686       0.47746554 </v>
   <v>       0.55446895       0.20085307       0.21114496 </v>
   <v>       0.30968878       0.21261293       0.74492249 </v>
   <v>       0.81517542       0.53766034       0.25514340 </v>
   <v>       0.18310248       0.63783303       0.83361340 </v>
   <v>       0.06937460       0.04956782       0.78912956 </v>
   <v>       0.44159266       0.12505248       0.56693865 </v>
   <v>       0.93475475       0.29071425       0.65582168 </v>
   <v>       0.80423123       0.20130859       0.21115639 </v>
   <v>       0.92944536       0.95122177       0.21129762 </v>
   <v>       0.94159532       0.62500832       0.56680048 </v>
   <v>       0.80827220       0.38751783       0.83354333 </v>
   <v>       0.19638469       0.62607347       0.70029878 </v>
   <v>       0.80856093       0.88756448       0.83355178 </v>
   <v>       0.68508556       0.29079982       0.65607566 </v>
   <v>       0.31294309       0.20784602       0.61137263 </v>
   <v>       0.43464984       0.46286509       0.74478623 </v>
   <v>       0.43640688       0.79114743       0.38839742 </v>
   <v>       0.68456778       0.96261795       0.74483165 </v>
   <v>       0.80408201       0.70117563       0.21119250 </v>
   <v>       0.81356267       0.70865051       0.61159056 </v>
   <v>       0.43695912       0.78348715       0.12401863 </v>
   <v>       0.30982776       0.71217356       0.74483534 </v>
   <v>       0.32017679       0.04945495       0.78885900 </v>
   <v>       0.81096411       0.54152351       0.38830140 </v>
   <v>       0.68203460       0.28878873       0.52244970 </v>
   <v>       0.69497627       0.79942721       0.78888183 </v>
   <v>       0.19077722       0.78737477       0.25520950 </v>
   <v>       0.69176664       0.11244800       0.16659683 </v>
   <v>       0.69279490       0.96063715       0.47746781 </v>
   <v>       0.94020909       0.95932971       0.34403675 </v>
   <v>       0.80713968       0.03913993       0.52253430 </v>
   <v>       0.68373164       0.62504613       0.43296855 </v>
   <v>       0.44017284       0.45876227       0.34398514 </v>
   <v>       0.81078789       0.21181177       0.74465325 </v>
   <v>       0.43964405       0.96802880       0.87607525 </v>
   <v>       0.56662393       0.87473439       0.56683172 </v>
   <v>       0.80929402       0.02782437       0.12392735 </v>
   <v>       0.42807015       0.62366693       0.29947748 </v>
   <v>       0.81707549       0.72389075       0.87633335 </v>
   <v>       0.68820458       0.45868771       0.61154742 </v>
   <v>       0.55853756       0.38768041       0.83350606 </v>
   <v>       0.80303503       0.37334285       0.29945975 </v>
   <v>       0.18617205       0.29104324       0.38829942 </v>
   <v>       0.81973562       0.54947385       0.78908649 </v>
   <v>       0.18227438       0.78939549       0.52254927 </v>
   <v>       0.30287925       0.87405827       0.29959866 </v>
   <v>       0.17872197       0.95140188       0.21135019 </v>
   <v>       0.18441555       0.46254763       0.74495476 </v>
   <v>       0.43234183       0.28881249       0.52236241 </v>
   <v>       0.06482390       0.70871848       0.34382869 </v>
   <v>       0.18476944       0.79073526       0.65581845 </v>
   <v>       0.44466332       0.79944513       0.78884625 </v>
   <v>       0.68377339       0.12500212       0.43296262 </v>
   <v>       0.93205091       0.78835322       0.52238085 </v>
   <v>       0.69182598       0.61260111       0.16673600 </v>
   <v>       0.81479359       0.70877214       0.34384233 </v>
   <v>       0.93377396       0.46258088       0.74503912 </v>
   <v>       0.19029023       0.45907740       0.34401888 </v>
   <v>       0.56983001       0.54953926       0.78909797 </v>
   <v>       0.56639416       0.36260295       0.16647225 </v>
   <v>       0.56494127       0.70919783       0.34392081 </v>
   <v>       0.55299480       0.37370483       0.29955879 </v>
   <v>       0.18948092       0.46778878       0.87606788 </v>
   <v>       0.19175917       0.11144323       0.16643364 </v>
   <v>       0.44475341       0.29927753       0.78884068 </v>
   <v>       0.69091762       0.78758802       0.25536142 </v>
   <v>       0.93358436       0.13775836       0.83355153 </v>
   <v>       0.44282625       0.96084837       0.47746645 </v>
   <v>       0.56748316       0.72463488       0.87628865 </v>
   <v>       0.19258864       0.46092857       0.47747810 </v>
   <v>       0.93430009       0.28198147       0.12413007 </v>
   <v>       0.31147416       0.04133965       0.38840346 </v>
   <v>       0.06014333       0.04087128       0.65608217 </v>
   <v>       0.55836806       0.37496174       0.43312011 </v>
   <v>       0.68438277       0.46269940       0.74492262 </v>
   <v>       0.55998834       0.21239506       0.74485291 </v>
   <v>       0.94722696       0.12639675       0.70034549 </v>
   <v>       0.55982120       0.04075079       0.65584805 </v>
   <v>       0.55721643       0.53926259       0.52254163 </v>
   <v>       0.17793043       0.12382430       0.29953253 </v>
   <v>       0.44134882       0.11053305       0.16639063 </v>
   <v>       0.67807635       0.62340365       0.29944218 </v>
   <v>       0.92793964       0.12351949       0.29962068 </v>
   <v>       0.81661871       0.37521165       0.56689023 </v>
   <v>       0.05261462       0.87386875       0.29953910 </v>
   <v>       0.19179884       0.62492525       0.56689083 </v>
   <v>       0.94454723       0.79986310       0.78890768 </v>
   <v>       0.30819295       0.38751629       0.83357291 </v>
   <v>       0.93977944       0.46833470       0.87613046 </v>
   <v>       0.43359338       0.63797847       0.83352211 </v>
   <v>       0.06488900       0.20866321       0.34384554 </v>
   <v>       0.18989124       0.96789310       0.87616203 </v>
   <v>       0.93482623       0.78197223       0.12415528 </v>
   <v>       0.68656277       0.79113189       0.38841322 </v>
   <v>       0.93482982       0.79074311       0.65596611 </v>
   <v>       0.94120948       0.11200291       0.16657611 </v>
   <v>       0.43518474       0.29096058       0.65609755 </v>
   <v>       0.05435932       0.20128221       0.21128076 </v>
   <v>       0.67923785       0.95127111       0.21130729 </v>
   <v>       0.17809575       0.62372928       0.29949856 </v>
   <v>       0.82150934       0.87639314       0.70050247 </v>
   <v>       0.94667287       0.62654098       0.70055537 </v>
   <v>       0.19647663       0.12614563       0.70035372 </v>
   <v>       0.94273230       0.46036524       0.47726551 </v>
   <v>       0.81290594       0.20812802       0.61147977 </v>
   <v>       0.18329366       0.62505507       0.43312349 </v>
   <v>       0.42805758       0.12373744       0.29949726 </v>
   <v>       0.67811361       0.12354725       0.29944529 </v>
   <v>       0.56168341       0.54121989       0.38842875 </v>
   <v>       0.81463178       0.20883346       0.34384932 </v>
   <v>       0.43981437       0.46793480       0.87591278 </v>
   <v>       0.55831803       0.88744478       0.83347349 </v>
   <v>       0.31771955       0.21043831       0.47732163 </v>
   <v>       0.19254701       0.96087126       0.47749726 </v>
   <v>       0.05869075       0.88761904       0.83343612 </v>
   <v>       0.05721516       0.53921191       0.52252360 </v>
   <v>       0.94257351       0.96065590       0.47731655 </v>
   <v>       0.06301108       0.70858812       0.61151218 </v>
   <v>       0.55738481       0.03869793       0.52234014 </v>
   <v>       0.69508643       0.29890597       0.78881718 </v>
   <v>       0.81766168       0.36184147       0.16670600 </v>
   <v>       0.43356931       0.12487532       0.43303544 </v>
   <v>       0.06795150       0.21079767       0.47744300 </v>
   <v>       0.30973778       0.04081670       0.65593973 </v>
   <v>       0.43208533       0.78900705       0.52234389 </v>
   <v>       0.18377976       0.13778844       0.83362705 </v>
   <v>       0.18601908       0.28296826       0.12422767 </v>
   <v>       0.94022774       0.45918950       0.34402706 </v>
   <v>       0.56648011       0.86253297       0.16651886 </v>
   <v>       0.30431010       0.70074132       0.21123879 </v>
   <v>       0.94133184       0.61239394       0.16657908 </v>
   <v>       0.18791799       0.45802144       0.61141366 </v>
   <v>       0.07195635       0.87651062       0.70035912 </v>
   <v>       0.05986642       0.54064335       0.65598296 </v>
   <v>       0.30781112       0.52593944       0.12400481 </v>
   <v>       0.93636473       0.79144473       0.38844878 </v>
   <v>       0.94500576       0.29904687       0.78880348 </v>
   <v>       0.18466112       0.29067107       0.65588778 </v>
   <v>       0.93788508       0.95805067       0.61139567 </v>
   <v>       0.81001917       0.71205400       0.74483984 </v>
   <v>       0.69097967       0.28749005       0.25531597 </v>
   <v>       0.05949445       0.71215216       0.74496609 </v>
   <v>       0.67897629       0.45113425       0.21127483 </v>
   <v>       0.81784921       0.21076485       0.47750870 </v>
   <v>       0.56771670       0.71041894       0.47745791 </v>
   <v>       0.06782055       0.86322531       0.16666295 </v>
   <v>       0.93237834       0.28839239       0.52235766 </v>
   <v>       0.68457789       0.79059212       0.65589831 </v>
   <v>       0.05853117       0.87485235       0.43307077 </v>
   <v>       0.06814087       0.22310955       0.87618733 </v>
   <v>       0.80977667       0.04060353       0.65585446 </v>
   <v>       0.55966578       0.02645493       0.12383445 </v>
   <v>       0.30861387       0.37529247       0.43297763 </v>
   <v>       0.31665151       0.37505505       0.56682062 </v>
   <v>       0.31772966       0.71030936       0.47731244 </v>
   <v>       0.05732843       0.03924376       0.52244646 </v>
   <v>       0.32184255       0.87660247       0.70054490 </v>
   <v>       0.06537859       0.53756621       0.25509704 </v>
   <v>       0.68342530       0.13783922       0.83351725 </v>
   <v>       0.81518020       0.03750350       0.25515805 </v>
   <v>       0.18345976       0.12504042       0.43309634 </v>
   <v>       0.69715314       0.12613460       0.70042960 </v>
   <v>       0.18240258       0.28930614       0.52253705 </v>
   <v>       0.44077578       0.78731678       0.25523722 </v>
   <v>       0.44144366       0.61060811       0.16646472 </v>
   <v>       0.06318820       0.20854678       0.61150692 </v>
   <v>       0.18615993       0.79124561       0.38833265 </v>
   <v>       0.30704749       0.53887691       0.52248361 </v>
   <v>       0.82198843       0.37656683       0.70037324 </v>
   <v>       0.68638967       0.29125248       0.38841310 </v>
   <v>       0.19164675       0.12493015       0.56687493 </v>
   <v>       0.68982381       0.96846352       0.87607948 </v>
   <v>       0.69160684       0.12509382       0.56690401 </v>
   <v>       0.44002844       0.95877792       0.34400270 </v>
   <v>       0.18421961       0.96270534       0.74490479 </v>
   <v>       0.94132384       0.78728849       0.25525081 </v>
   <v>       0.55844487       0.87477293       0.43305729 </v>
   <v>       0.30861318       0.87499250       0.43296478 </v>
   <v>       0.80713307       0.53925751       0.52257914 </v>
   <v>       0.92935569       0.45132499       0.21128367 </v>
   <v>       0.31519012       0.53756823       0.25512461 </v>
   <v>       0.56180788       0.04139000       0.38842987 </v>
   <v>       0.93811627       0.45844822       0.61159508 </v>
   <v>       0.06148060       0.04136027       0.38837027 </v>
   <v>       0.06119102       0.54126739       0.38837645 </v>
   <v>       0.43607220       0.29105135       0.38833175 </v>
   <v>       0.69255372       0.46060076       0.47734276 </v>
   <v>       0.06677277       0.37500949       0.56691206 </v>
   <v>       0.55389806       0.70114052       0.21115197 </v>
   <v>       0.94111227       0.28750925       0.25526070 </v>
   <v>       0.81933573       0.04981260       0.78916451 </v>
   <v>       0.19014442       0.95888853       0.34402643 </v>
   <v>       0.55300275       0.87377889       0.29957623 </v>
   <v>       0.05851807       0.37473467       0.43301409 </v>
   <v>       0.31506145       0.70890027       0.34395143 </v>
   <v>       0.31514612       0.20897841       0.34398701 </v>
   <v>       0.94170221       0.12509986       0.56680893 </v>
   <v>       0.43831525       0.95874257       0.61156084 </v>
   <v>       0.56541736       0.03755269       0.25502216 </v>
   <v>       0.18597900       0.78266632       0.12424107 </v>
   <v>       0.06545510       0.03751708       0.25515683 </v>
   <v>       0.69159953       0.62496933       0.56692302 </v>
   <v>       0.05690790       0.52603248       0.12414016 </v>
   <v>       0.30705699       0.03854165       0.52235213 </v>
   <v>       0.68771923       0.28225911       0.12415469 </v>
   <v>       0.81780367       0.71081276       0.47747068 </v>
   <v>       0.43350758       0.13769644       0.83350765 </v>
   <v>       0.32192522       0.37647979       0.70041757 </v>
   <v>       0.68338163       0.63797629       0.83351402 </v>
   <v>       0.55981165       0.71207011       0.74485146 </v>
   <v>       0.93632453       0.29139641       0.38840929 </v>
   <v>       0.93984710       0.96838850       0.87613696 </v>
   <v>       0.56301278       0.20785491       0.61129047 </v>
   <v>       0.81656080       0.87505058       0.56691741 </v>
   <v>       0.80301759       0.87362534       0.29947843 </v>
   <v>       0.31528045       0.03783563       0.25513086 </v>
   <v>       0.43679994       0.28346275       0.12405311 </v>
   <v>       0.31341057       0.70869764       0.61160072 </v>
   <v>       0.43359665       0.62515341       0.43309275 </v>
   <v>       0.93316800       0.62543303       0.43315730 </v>
   <v>       0.31843383       0.86294806       0.16579490 </v>
   <v>       0.07047698       0.54940160       0.78874802 </v>
   <v>       0.93339724       0.12537727       0.43314526 </v>
   <v>       0.31817979       0.36301249       0.16578945 </v>
   <v>       0.93382301       0.96206690       0.74467390 </v>
   <v>       0.07263842       0.37702094       0.70049487 </v>
  </varray>
 </structure>
 <calculation>
  <scstep>
   <time name="dav">   54.21   54.22</time>
   <time name="total">   54.37   54.41</time>
   <energy>
    <i name="alphaZ">  16403.00255340 </i>
    <i name="ewald"> 714658.16450856 </i>
    <i name="hartreedc">-906328.35917853 </i>
    <i name="XCdc">  -6389.73700866 </i>
    <i name="pawpsdc"> 163151.95320885 </i>
    <i name="pawaedc">-160818.84594568 </i>
    <i name="eentropy">     -1.05699825 </i>
    <i name="bandstr">  38626.15649685 </i>
    <i name="atom"> 169914.59583762 </i>
    <i name="e_fr_energy">  29215.87347416 </i>
    <i name="e_wo_entrp">  29216.93047241 </i>
    <i name="e_0_energy">  29216.40197329 </i>
   </energy>
  </scstep>
  <scstep>
   <time name="dav">   53.93   53.98</time>
   <time name="total">   53.94   53.99</time>
   <energy>
    <i name="e_fr_energy">   1193.38000721 </i>
    <i name="e_wo_entrp">   1194.85392322 </i>
    <i name="e_0_energy">   1194.11696522 </i>
   </energy>
  </scstep>
  <scstep>
   <time name="dav">   70.72   70.76</time>
   <time name="total">   70.73   70.77</time>
   <energy>
    <i name="e_fr_energy">  -1940.26963543 </i>
    <i name="e_wo_entrp">  -1936.70028309 </i>
    <i name="e_0_energy">  -1938.48495926 </i>
   </energy>
  </scstep>
  <scstep>
   <time name="dav">   88.57   88.61</time>
   <time name="total">   88.57   88.62</time>
   <energy>
    <i name="e_fr_energy">  -2606.72959008 </i>
    <i name="e_wo_entrp">  -2603.11401260 </i>
    <i name="e_0_energy">  -2604.92180134 </i>
   </energy>
  </scstep>
  <scstep>
   <time name="dav">   84.52   84.56</time>
   <time name="total">   86.53   86.57</time>
   <energy>
    <i name="e_fr_energy">  -2726.95931602 </i>
    <i name="e_wo_entrp">  -2723.16891854 </i>
    <i name="e_0_energy">  -2725.06411728 </i>
   </energy>
  </scstep>
  <scstep>
   <time name="diag">    8.30    8.30</time>
   <time name="diis">   37.67   37.67</time>
   <time name="orth">    2.31    2.31</time>
   <time name="total">   50.44   50.48</time>
   <energy>
    <i name="e_fr_energy">  -5521.09772000 </i>
    <i name="e_wo_entrp">  -5517.65404256 </i>
    <i name="e_0_energy">  -5519.37588128 </i>
   </energy>
  </scstep>
  <scstep>
   <time name="diag">    8.33    8.33</time>
   <time name="diis">   29.02   29.03</time>
   <time name="orth">    2.32    2.32</time>
   <time name="total">   41.84   41.88</time>
[...]
       <r>     5.8477     0.0000  2772.0000 </r>
       <r>     5.8904     0.0000  2772.0000 </r>
       <r>     5.9331     0.0000  2772.0000 </r>
       <r>     5.9758     0.0000  2772.0000 </r>
       <r>     6.0184     0.0000  2772.0000 </r>
       <r>     6.0611     0.0000  2772.0000 </r>
       <r>     6.1038     0.0000  2772.0000 </r>
       <r>     6.1465     0.0000  2772.0000 </r>
       <r>     6.1891     0.0000  2772.0000 </r>
       <r>     6.2318     0.0000  2772.0000 </r>
       <r>     6.2745     0.0000  2772.0000 </r>
       <r>     6.3172     0.0000  2772.0000 </r>
       <r>     6.3598     0.0000  2772.0000 </r>
       <r>     6.4025     0.0000  2772.0000 </r>
       <r>     6.4452     0.0000  2772.0000 </r>
       <r>     6.4879     0.0000  2772.0000 </r>
       <r>     6.5305     0.0000  2772.0000 </r>
       <r>     6.5732     0.0000  2772.0000 </r>
       <r>     6.6159     0.0000  2772.0000 </r>
       <r>     6.6586     0.0000  2772.0000 </r>
       <r>     6.7013     0.0000  2772.0000 </r>
       <r>     6.7439     0.0000  2772.0000 </r>
       <r>     6.7866     0.0000  2772.0000 </r>
      </set>
     </set>
    </array>
   </total>
  </dos>
 </calculation>
 <structure name="finalpos" >
  <crystal>
   <varray name="basis" >
    <v>       9.72667804       0.00000000       0.00000000 </v>
    <v>       0.00000000       8.42355028       0.00000000 </v>
    <v>       0.00000000       0.00000000      45.00000000 </v>
   </varray>
   <i name="volume">   3686.99226691 </i>
   <varray name="rec_basis" >
    <v>       0.10281002       0.00000000       0.00000000 </v>
    <v>       0.00000000       0.11871479       0.00000000 </v>
    <v>       0.00000000       0.00000000       0.02222222 </v>
   </varray>
  </crystal>
  <varray name="positions" >
   <v>       0.05816394       0.70112493       0.21109798 </v>
   <v>       0.31604627       0.72042001       0.87577330 </v>
   <v>       0.68803894       0.95774454       0.61141760 </v>
   <v>       0.43814312       0.45774342       0.61148257 </v>
   <v>       0.43660468       0.28718017       0.25548223 </v>
   <v>       0.06091682       0.38670175       0.83416271 </v>
   <v>       0.31124914       0.88685997       0.83424589 </v>
   <v>       0.44206471       0.62686724       0.70039019 </v>
   <v>       0.06363707       0.21328525       0.74457227 </v>
   <v>       0.18266911       0.45151248       0.21127366 </v>
   <v>       0.56381589       0.20901589       0.47785276 </v>
   <v>       0.06401665       0.87461819       0.56684679 </v>
   <v>       0.56564475       0.21990170       0.87571445 </v>
   <v>       0.81006986       0.53039324       0.12451396 </v>
   <v>       0.43324719       0.95131971       0.21116375 </v>
   <v>       0.56424327       0.37463180       0.56677115 </v>
   <v>       0.81178865       0.04193580       0.38845064 </v>
   <v>       0.68601418       0.79082926       0.52216551 </v>
   <v>       0.43879234       0.45906453       0.47783981 </v>
   <v>       0.43784525       0.96286479       0.74442414 </v>
   <v>       0.43897880       0.62466873       0.56681257 </v>
   <v>       0.56722215       0.87664099       0.70035503 </v>
   <v>       0.31058950       0.03071630       0.12413532 </v>
   <v>       0.68677324       0.95805909       0.34405235 </v>
   <v>       0.68770026       0.77970322       0.12470390 </v>
   <v>       0.05773683       0.37340412       0.29959859 </v>
   <v>       0.68887982       0.47147313       0.87552205 </v>
   <v>       0.43313292       0.45139706       0.21115927 </v>
   <v>       0.81084832       0.37543777       0.43300634 </v>
   <v>       0.56318156       0.70813341       0.61152190 </v>
   <v>       0.56277828       0.54119077       0.65583959 </v>
   <v>       0.81451170       0.86342524       0.16605161 </v>
   <v>       0.56130794       0.53695366       0.25554808 </v>
   <v>       0.68670257       0.45822057       0.34405234 </v>
   <v>       0.18841479       0.61272477       0.16619965 </v>
   <v>       0.19190862       0.79913782       0.78878336 </v>
   <v>       0.44247784       0.12627000       0.70038605 </v>
   <v>       0.93249335       0.62302281       0.29962264 </v>
   <v>       0.31539821       0.21994342       0.87574464 </v>
   <v>       0.31412945       0.87461362       0.56675108 </v>
   <v>       0.81541034       0.21990631       0.87573821 </v>
   <v>       0.81306806       0.54162972       0.65583001 </v>
   <v>       0.56001856       0.52942200       0.12445833 </v>
   <v>       0.56691769       0.04965519       0.78897449 </v>
   <v>       0.18682539       0.28732325       0.25548341 </v>
   <v>       0.81077794       0.87551299       0.43300032 </v>
   <v>       0.56728666       0.37665112       0.70045746 </v>
   <v>       0.06104570       0.02933427       0.12449443 </v>
   <v>       0.31280225       0.54137797       0.65573932 </v>
   <v>       0.56178680       0.20807052       0.34415721 </v>
   <v>       0.18856377       0.95828504       0.61147438 </v>
   <v>       0.30764313       0.37362367       0.29964486 </v>
   <v>       0.43777252       0.79177264       0.65583952 </v>
   <v>       0.19180776       0.29860294       0.78892076 </v>
   <v>       0.06374911       0.36375751       0.16600561 </v>
   <v>       0.69203289       0.62672334       0.70036672 </v>
   <v>       0.31157810       0.54184913       0.38845553 </v>
   <v>       0.06538631       0.71993242       0.87592983 </v>
   <v>       0.93625278       0.63680068       0.83430782 </v>
   <v>       0.31753582       0.54988097       0.78901373 </v>
   <v>       0.30755494       0.20034679       0.21109263 </v>
   <v>       0.06387248       0.70896695       0.47789731 </v>
   <v>       0.55742623       0.20087675       0.21108806 </v>
   <v>       0.31362567       0.21342978       0.74445868 </v>
   <v>       0.81148365       0.53666515       0.25556467 </v>
   <v>       0.18612471       0.63664609       0.83407258 </v>
   <v>       0.06685348       0.04908878       0.78902006 </v>
   <v>       0.43907072       0.12470106       0.56684166 </v>
   <v>       0.93784152       0.29169617       0.65565741 </v>
   <v>       0.80761183       0.20089492       0.21107667 </v>
   <v>       0.93269934       0.95145015       0.21130938 </v>
   <v>       0.93898509       0.62494326       0.56673819 </v>
   <v>       0.81083069       0.38666756       0.83421618 </v>
   <v>       0.19217948       0.62718408       0.70033300 </v>
   <v>       0.81100591       0.88662998       0.83429434 </v>
   <v>       0.68783592       0.29133451       0.65580910 </v>
   <v>       0.31378641       0.20795560       0.61142146 </v>
   <v>       0.43820915       0.46284628       0.74449027 </v>
   <v>       0.43647912       0.79152830       0.38847220 </v>
   <v>       0.68779083       0.96290306       0.74452191 </v>
   <v>       0.80746290       0.70110727       0.21109638 </v>
   <v>       0.81311894       0.70790510       0.61144327 </v>
   <v>       0.43710502       0.77946869       0.12428702 </v>
   <v>       0.31321980       0.71293509       0.74444095 </v>
   <v>       0.31710066       0.04964996       0.78901588 </v>
   <v>       0.81180558       0.54193536       0.38845112 </v>
   <v>       0.68609973       0.29093673       0.52216114 </v>
   <v>       0.69196539       0.79945804       0.78891815 </v>
   <v>       0.18696073       0.78734960       0.25552061 </v>
   <v>       0.68893018       0.11335520       0.16613210 </v>
   <v>       0.68872818       0.95914245       0.47788258 </v>
   <v>       0.93691219       0.95858968       0.34408858 </v>
   <v>       0.81113673       0.04038438       0.52213600 </v>
   <v>       0.68495268       0.62505375       0.43303502 </v>
   <v>       0.43697145       0.45853158       0.34417339 </v>
   <v>       0.81343458       0.21316413       0.74446997 </v>
   <v>       0.43920484       0.97148124       0.87552718 </v>
   <v>       0.56419361       0.87457602       0.56674882 </v>
   <v>       0.81034902       0.03030142       0.12447825 </v>
   <v>       0.43262633       0.62332537       0.29965127 </v>
   <v>       0.81513716       0.72059246       0.87587436 </v>
   <v>       0.68812265       0.45774979       0.61142538 </v>
   <v>       0.56102711       0.38680448       0.83407151 </v>
   <v>       0.80768622       0.37352725       0.29957897 </v>
   <v>       0.18638448       0.29176539       0.38844932 </v>
   <v>       0.81646046       0.54998644       0.78914519 </v>
   <v>       0.18621910       0.79056084       0.52221351 </v>
   <v>       0.30768651       0.87356975       0.29963227 </v>
   <v>       0.18263452       0.95152021       0.21126948 </v>
   <v>       0.18902250       0.46297063       0.74450989 </v>
   <v>       0.43606296       0.29065426       0.52207500 </v>
   <v>       0.06193478       0.70843962       0.34416537 </v>
   <v>       0.18814320       0.79140652       0.65569633 </v>
   <v>       0.44172562       0.79931972       0.78881611 </v>
   <v>       0.68496928       0.12508839       0.43304381 </v>
   <v>       0.93608476       0.79045586       0.52221271 </v>
   <v>       0.68882238       0.61324282       0.16612705 </v>
   <v>       0.81195705       0.70848308       0.34420116 </v>
   <v>       0.93816303       0.46305974       0.74453377 </v>
   <v>       0.18691378       0.45828130       0.34413052 </v>
   <v>       0.56721349       0.54950308       0.78894167 </v>
   <v>       0.56552322       0.36396223       0.16581035 </v>
   <v>       0.56186113       0.70797213       0.34416910 </v>
   <v>       0.55785911       0.37345658       0.29961726 </v>
   <v>       0.18883615       0.47126244       0.87564901 </v>
   <v>       0.18867400       0.11284192       0.16613037 </v>
   <v>       0.44171309       0.29912159       0.78880875 </v>
   <v>       0.68665136       0.78726815       0.25545601 </v>
   <v>       0.93683596       0.13677064       0.83417540 </v>
   <v>       0.43876872       0.95903577       0.47779173 </v>
   <v>       0.56559383       0.72042041       0.87576150 </v>
   <v>       0.18868865       0.45905337       0.47782896 </v>
   <v>       0.93623422       0.27948637       0.12464970 </v>
   <v>       0.31153350       0.04152416       0.38844674 </v>
   <v>       0.06275475       0.04123855       0.65577613 </v>
   <v>       0.56102974       0.37521352       0.43300702 </v>
   <v>       0.68727854       0.46263542       0.74452793 </v>
   <v>       0.56343693       0.21372750       0.74439088 </v>
   <v>       0.94172409       0.12700027       0.70032002 </v>
   <v>       0.56281980       0.04133297       0.65579398 </v>
   <v>       0.56099019       0.54070997       0.52208129 </v>
   <v>       0.18269710       0.12323289       0.29959200 </v>
   <v>       0.43871048       0.11234242       0.16601407 </v>
   <v>       0.68240429       0.62320537       0.29960681 </v>
   <v>       0.93255439       0.12313884       0.29962704 </v>
   <v>       0.81415870       0.37467789       0.56683847 </v>
   <v>       0.05781334       0.87334818       0.29961053 </v>
   <v>       0.18901061       0.62476590       0.56685461 </v>
   <v>       0.94110778       0.79891221       0.78890170 </v>
   <v>       0.31133763       0.38659831       0.83417192 </v>
   <v>       0.93926540       0.47143889       0.87562952 </v>
   <v>       0.43654937       0.63690375       0.83406083 </v>
   <v>       0.06192483       0.20850740       0.34415411 </v>
   <v>       0.18880763       0.97116947       0.87551669 </v>
   <v>       0.93632718       0.77929661       0.12462487 </v>
   <v>       0.68637679       0.79183002       0.38840417 </v>
   <v>       0.93799831       0.79170421       0.65579808 </v>
   <v>       0.93853947       0.11349312       0.16616497 </v>
   <v>       0.43777386       0.29128974       0.65580089 </v>
   <v>       0.05826116       0.20087114       0.21111957 </v>
   <v>       0.68287954       0.95131566       0.21121543 </v>
   <v>       0.18264467       0.62327620       0.29959888 </v>
   <v>       0.81677505       0.87679096       0.70034388 </v>
   <v>       0.94188374       0.62687729       0.70046198 </v>
   <v>       0.19215862       0.12682170       0.70043554 </v>
   <v>       0.93903218       0.45903582       0.47783653 </v>
   <v>       0.81320948       0.20801565       0.61139918 </v>
   <v>       0.18681211       0.62515681       0.43300515 </v>
   <v>       0.43261668       0.12317222       0.29966194 </v>
   <v>       0.68231865       0.12316272       0.29959703 </v>
   <v>       0.56119335       0.54169151       0.38843778 </v>
   <v>       0.81199502       0.20848926       0.34420837 </v>
   <v>       0.43914053       0.47151813       0.87550041 </v>
   <v>       0.56134790       0.88672061       0.83424297 </v>
   <v>       0.31407087       0.20924743       0.47782434 </v>
   <v>       0.18875547       0.95899208       0.47778488 </v>
   <v>       0.06083990       0.88706965       0.83423445 </v>
   <v>       0.06108922       0.54043740       0.52204816 </v>
   <v>       0.93909970       0.95885530       0.47780327 </v>
   <v>       0.06327591       0.70809200       0.61137693 </v>
   <v>       0.56093498       0.04081769       0.52207439 </v>
   <v>       0.69179238       0.29890748       0.78875408 </v>
   <v>       0.81439270       0.36342568       0.16601961 </v>
   <v>       0.43574788       0.12514255       0.43302544 </v>
   <v>       0.06406485       0.20888756       0.47788794 </v>
   <v>       0.31319282       0.04133490       0.65571574 </v>
   <v>       0.43609488       0.79066557       0.52208764 </v>
   <v>       0.18665520       0.13697810       0.83418353 </v>
   <v>       0.18600568       0.27867703       0.12442659 </v>
   <v>       0.93695638       0.45862954       0.34406902 </v>
   <v>       0.56560647       0.86423668       0.16578620 </v>
   <v>       0.30755192       0.70018959       0.21110678 </v>
   <v>       0.93824312       0.61319844       0.16619057 </v>
   <v>       0.18830702       0.45811837       0.61145895 </v>
   <v>       0.06718803       0.87690091       0.70030015 </v>
   <v>       0.06288220       0.54166890       0.65582508 </v>
   <v>       0.31039585       0.53065147       0.12407424 </v>
   <v>       0.93634616       0.79197420       0.38844863 </v>
   <v>       0.94166919       0.29874791       0.78886805 </v>
   <v>       0.18784103       0.29157331       0.65581082 </v>
   <v>       0.93840477       0.95814646       0.61154083 </v>
   <v>       0.81346131       0.71298524       0.74462694 </v>
   <v>       0.68676101       0.28725083       0.25545191 </v>
   <v>       0.06370897       0.71282263       0.74444579 </v>
   <v>       0.68283217       0.45138903       0.21125117 </v>
   <v>       0.81385755       0.20891725       0.47783081 </v>
   <v>       0.56388181       0.70918370       0.47785587 </v>
   <v>       0.06376317       0.86374231       0.16602187 </v>
   <v>       0.93607346       0.29061275       0.52220147 </v>
   <v>       0.68756789       0.79149595       0.65580804 </v>
   <v>       0.06122949       0.87501448       0.43297772 </v>
   <v>       0.06568637       0.21943755       0.87583294 </v>
   <v>       0.81293257       0.04132077       0.65575926 </v>
   <v>       0.56015283       0.02939592       0.12445705 </v>
   <v>       0.31067918       0.37489937       0.43306632 </v>
   <v>       0.31408729       0.37459605       0.56675062 </v>
   <v>       0.31388550       0.70937246       0.47782177 </v>
   <v>       0.06105156       0.04053811       0.52204223 </v>
   <v>       0.31750467       0.87662989       0.70042288 </v>
   <v>       0.06158462       0.53689638       0.25556419 </v>
   <v>       0.68656324       0.13714599       0.83409030 </v>
   <v>       0.81164915       0.03682728       0.25554674 </v>
   <v>       0.18682842       0.12523570       0.43302128 </v>
   <v>       0.69225848       0.12637838       0.70030983 </v>
   <v>       0.18624752       0.29073784       0.52219046 </v>
   <v>       0.43654409       0.78725764       0.25550348 </v>
   <v>       0.43845571       0.61232315       0.16607461 </v>
   <v>       0.06306216       0.20811126       0.61140324 </v>
   <v>       0.18647441       0.79153970       0.38844620 </v>
   <v>       0.31121099       0.54087377       0.52208530 </v>
   <v>       0.81667172       0.37656249       0.70031952 </v>
   <v>       0.68643879       0.29173129       0.38842125 </v>
   <v>       0.18922066       0.12475160       0.56676886 </v>
   <v>       0.68897425       0.97150789       0.87551970 </v>
   <v>       0.68912851       0.12479351       0.56685623 </v>
   <v>       0.43696883       0.95845106       0.34416668 </v>
   <v>       0.18824615       0.96278617       0.74448130 </v>
   <v>       0.93641653       0.78733722       0.25556106 </v>
   <v>       0.56110011       0.87531274       0.43302701 </v>
   <v>       0.31064277       0.87490519       0.43305142 </v>
   <v>       0.81107076       0.54020706       0.52209182 </v>
   <v>       0.93271765       0.45139550       0.21128008 </v>
   <v>       0.31144425       0.53678688       0.25558498 </v>
   <v>       0.56128911       0.04156589       0.38845682 </v>
   <v>       0.93822049       0.45765409       0.61145343 </v>
   <v>       0.06145898       0.04176915       0.38844943 </v>
   <v>       0.06158391       0.54187836       0.38843082 </v>
   <v>       0.43669082       0.29168723       0.38847696 </v>
   <v>       0.68888090       0.45926404       0.47790735 </v>
   <v>       0.06406907       0.37478810       0.56687553 </v>
   <v>       0.55744661       0.70086473       0.21113116 </v>
   <v>       0.93654085       0.28723057       0.25554457 </v>
   <v>       0.81656883       0.04919311       0.78889779 </v>
   <v>       0.18695282       0.95821313       0.34413193 </v>
   <v>       0.55766867       0.87340515       0.29962156 </v>
   <v>       0.06120588       0.37502472       0.43295422 </v>
   <v>       0.31180960       0.70807359       0.34416630 </v>
   <v>       0.31176809       0.20803876       0.34414859 </v>
   <v>       0.93895337       0.12486439       0.56674112 </v>
   <v>       0.43812483       0.95791600       0.61148831 </v>
   <v>       0.56127660       0.03693557       0.25555641 </v>
   <v>       0.18628318       0.77887474       0.12443803 </v>
   <v>       0.06151890       0.03702071       0.25556136 </v>
   <v>       0.68914860       0.62476996       0.56689387 </v>
   <v>       0.06061524       0.52914565       0.12447470 </v>
   <v>       0.31114077       0.04104274       0.52209353 </v>
   <v>       0.68754656       0.27970000       0.12467090 </v>
   <v>       0.81384658       0.70883784       0.47785163 </v>
   <v>       0.43669473       0.13694083       0.83396878 </v>
   <v>       0.31786722       0.37624217       0.70033563 </v>
   <v>       0.68690787       0.63705008       0.83409100 </v>
   <v>       0.56326084       0.71263435       0.74451853 </v>
   <v>       0.93629373       0.29196020       0.38845431 </v>
   <v>       0.93928507       0.97114509       0.87551004 </v>
   <v>       0.56330378       0.20834564       0.61149085 </v>
   <v>       0.81413717       0.87472070       0.56681599 </v>
   <v>       0.80760628       0.87334377       0.29959328 </v>
   <v>       0.31144391       0.03666264       0.25561834 </v>
   <v>       0.43686931       0.27946717       0.12424785 </v>
   <v>       0.31303417       0.70779525       0.61147256 </v>
   <v>       0.43564691       0.62497098       0.43300020 </v>
   <v>       0.93573001       0.62506118       0.43309676 </v>
   <v>       0.31505460       0.86315076       0.16553182 </v>
   <v>       0.06706815       0.54935779       0.78886716 </v>
   <v>       0.93564569       0.12509939       0.43309568 </v>
   <v>       0.31500437       0.36305712       0.16557695 </v>
   <v>       0.93767734       0.96298471       0.74465747 </v>
   <v>       0.06762931       0.37679415       0.70036947 </v>
  </varray>
 </structure>
</modeling>
