unknown system                          
           1
     9.726678    0.000000    0.000000
     0.000000    8.423550    0.000000
     0.000000    0.000000   45.000000
   Fe   Mn
 281   7
Direct configuration=     1
   0.05411107  0.70103822  0.21128498
   0.31808292  0.72410869  0.87623669
   0.68837769  0.95892410  0.61149192
   0.43838050  0.45859412  0.61157771
   0.44085689  0.28728922  0.25522790
   0.05875543  0.38856459  0.83362889
   0.30851615  0.88766568  0.83353865
   0.44635027  0.62660741  0.70037424
   0.05991960  0.21273181  0.74493759
   0.17860144  0.45109997  0.21131162
   0.56788059  0.21061229  0.47745651
   0.06679185  0.87504768  0.56693035
   0.56840428  0.22397230  0.87613748
   0.80792758  0.52802299  0.12393394
   0.42927538  0.95130538  0.21136495
   0.56669819  0.37490037  0.56681116
   0.81104808  0.04160205  0.38832678
   0.68197547  0.78875314  0.52244140
   0.44285519  0.46066596  0.47748146
   0.43430821  0.96258372  0.74493299
   0.44175626  0.62498446  0.56691959
   0.57139791  0.87636183  0.70055851
   0.30897580  0.02583104  0.12391300
   0.68979299  0.95881983  0.34396149
   0.68797957  0.78221427  0.12419011
   0.05283652  0.37388739  0.29952789
   0.68963084  0.46775769  0.87606623
   0.42936822  0.45114471  0.21135167
   0.80841626  0.37520500  0.43305854
   0.56323744  0.70827801  0.61157000
   0.55968601  0.54066439  0.65587829
   0.81775859  0.86173482  0.16668487
   0.56533122  0.53762809  0.25501285
   0.68989955  0.45876217  0.34394019
   0.19174528  0.61156430  0.16641403
   0.19445666  0.79967905  0.78891509
   0.44625172  0.12574118  0.70040304
   0.92802191  0.62359169  0.29961292
   0.31757244  0.22340520  0.87611531
   0.31660827  0.87477011  0.56688226
   0.81732329  0.22388669  0.87618369
   0.80966505  0.54077580  0.65582037
   0.55880458  0.52661911  0.12390356
   0.56932686  0.04973602  0.78893305
   0.19104748  0.28731357  0.25525407
   0.80858588  0.87518224  0.43306377
   0.57226130  0.37619741  0.70037869
   0.05737382  0.02601683  0.12409421
   0.30968567  0.54064908  0.65591040
   0.56505896  0.20899508  0.34395972
   0.18782478  0.95822344  0.61123792
   0.30304787  0.37396494  0.29957889
   0.43465126  0.79067397  0.65589070
   0.19466387  0.29906693  0.78883623
   0.06753336  0.36284148  0.16666875
   0.69648752  0.62665359  0.70054886
   0.31135453  0.54103576  0.38840665
   0.06781808  0.72308158  0.87628149
   0.93383736  0.63757887  0.83401146
   0.31975148  0.54979576  0.78900588
   0.30467951  0.20057986  0.21123206
   0.06802586  0.71071686  0.47746554
   0.55446895  0.20085307  0.21114496
   0.30968878  0.21261293  0.74492249
   0.81517542  0.53766034  0.25514340
   0.18310248  0.63783303  0.83361340
   0.06937460  0.04956782  0.78912956
   0.44159266  0.12505248  0.56693865
   0.93475475  0.29071425  0.65582168
   0.80423123  0.20130859  0.21115639
   0.92944536  0.95122177  0.21129762
   0.94159532  0.62500832  0.56680048
   0.80827220  0.38751783  0.83354333
   0.19638469  0.62607347  0.70029878
   0.80856093  0.88756448  0.83355178
   0.68508556  0.29079982  0.65607566
   0.31294309  0.20784602  0.61137263
   0.43464984  0.46286509  0.74478623
   0.43640688  0.79114743  0.38839742
   0.68456778  0.96261795  0.74483165
   0.80408201  0.70117563  0.21119250
   0.81356267  0.70865051  0.61159056
   0.43695912  0.78348715  0.12401863
   0.30982776  0.71217356  0.74483534
   0.32017679  0.04945495  0.78885900
   0.81096411  0.54152351  0.38830140
   0.68203460  0.28878873  0.52244970
   0.69497627  0.79942721  0.78888183
   0.19077722  0.78737477  0.25520950
   0.69176664  0.11244800  0.16659683
   0.69279490  0.96063715  0.47746781
   0.94020909  0.95932971  0.34403675
   0.80713968  0.03913993  0.52253430
   0.68373164  0.62504613  0.43296855
   0.44017284  0.45876227  0.34398514
   0.81078789  0.21181177  0.74465325
   0.43964405  0.96802880  0.87607525
   0.56662393  0.87473439  0.56683172
   0.80929402  0.02782437  0.12392735
   0.42807015  0.62366693  0.29947748
   0.81707549  0.72389075  0.87633335
   0.68820458  0.45868771  0.61154742
   0.55853756  0.38768041  0.83350606
   0.80303503  0.37334285  0.29945975
   0.18617205  0.29104324  0.38829942
   0.81973562  0.54947385  0.78908649
   0.18227438  0.78939549  0.52254927
   0.30287925  0.87405827  0.29959866
   0.17872197  0.95140188  0.21135019
   0.18441555  0.46254763  0.74495476
   0.43234183  0.28881249  0.52236241
   0.06482390  0.70871848  0.34382869
   0.18476944  0.79073526  0.65581845
   0.44466332  0.79944513  0.78884625
   0.68377339  0.12500212  0.43296262
   0.93205091  0.78835322  0.52238085
   0.69182598  0.61260111  0.16673600
   0.81479359  0.70877214  0.34384233
   0.93377396  0.46258088  0.74503912
   0.19029023  0.45907740  0.34401888
   0.56983001  0.54953926  0.78909797
   0.56639416  0.36260295  0.16647225
   0.56494127  0.70919783  0.34392081
   0.55299480  0.37370483  0.29955879
   0.18948092  0.46778878  0.87606788
   0.19175917  0.11144323  0.16643364
   0.44475341  0.29927753  0.78884068
   0.69091762  0.78758802  0.25536142
   0.93358436  0.13775836  0.83355153
   0.44282625  0.96084837  0.47746645
   0.56748316  0.72463488  0.87628865
   0.19258864  0.46092857  0.47747810
   0.93430009  0.28198147  0.12413007
   0.31147416  0.04133965  0.38840346
   0.06014333  0.04087128  0.65608217
   0.55836806  0.37496174  0.43312011
   0.68438277  0.46269940  0.74492262
   0.55998834  0.21239506  0.74485291
   0.94722696  0.12639675  0.70034549
   0.55982120  0.04075079  0.65584805
   0.55721643  0.53926259  0.52254163
   0.17793043  0.12382430  0.29953253
   0.44134882  0.11053305  0.16639063
   0.67807635  0.62340365  0.29944218
   0.92793964  0.12351949  0.29962068
   0.81661871  0.37521165  0.56689023
   0.05261462  0.87386875  0.29953910
   0.19179884  0.62492525  0.56689083
   0.94454723  0.79986310  0.78890768
   0.30819295  0.38751629  0.83357291
   0.93977944  0.46833470  0.87613046
   0.43359338  0.63797847  0.83352211
   0.06488900  0.20866321  0.34384554
   0.18989124  0.96789310  0.87616203
   0.93482623  0.78197223  0.12415528
   0.68656277  0.79113189  0.38841322
   0.93482982  0.79074311  0.65596611
   0.94120948  0.11200291  0.16657611
   0.43518474  0.29096058  0.65609755
   0.05435932  0.20128221  0.21128076
   0.67923785  0.95127111  0.21130729
   0.17809575  0.62372928  0.29949856
   0.82150934  0.87639314  0.70050247
   0.94667287  0.62654098  0.70055537
   0.19647663  0.12614563  0.70035372
   0.94273230  0.46036524  0.47726551
   0.81290594  0.20812802  0.61147977
   0.18329366  0.62505507  0.43312349
   0.42805758  0.12373744  0.29949726
   0.67811361  0.12354725  0.29944529
   0.56168341  0.54121989  0.38842875
   0.81463178  0.20883346  0.34384932
   0.43981437  0.46793480  0.87591278
   0.55831803  0.88744478  0.83347349
   0.31771955  0.21043831  0.47732163
   0.19254701  0.96087126  0.47749726
   0.05869075  0.88761904  0.83343612
   0.05721516  0.53921191  0.52252360
   0.94257351  0.96065590  0.47731655
   0.06301108  0.70858812  0.61151218
   0.55738481  0.03869793  0.52234014
   0.69508643  0.29890597  0.78881718
   0.81766168  0.36184147  0.16670600
   0.43356931  0.12487532  0.43303544
   0.06795150  0.21079767  0.47744300
   0.30973778  0.04081670  0.65593973
   0.43208533  0.78900705  0.52234389
   0.18377976  0.13778844  0.83362705
   0.18601908  0.28296826  0.12422767
   0.94022774  0.45918950  0.34402706
   0.56648011  0.86253297  0.16651886
   0.30431010  0.70074132  0.21123879
   0.94133184  0.61239394  0.16657908
   0.18791799  0.45802144  0.61141366
   0.07195635  0.87651062  0.70035912
   0.05986642  0.54064335  0.65598296
   0.30781112  0.52593944  0.12400481
   0.93636473  0.79144473  0.38844878
   0.94500576  0.29904687  0.78880348
   0.18466112  0.29067107  0.65588778
   0.93788508  0.95805067  0.61139567
   0.81001917  0.71205400  0.74483984
   0.69097967  0.28749005  0.25531597
   0.05949445  0.71215216  0.74496609
   0.67897629  0.45113425  0.21127483
   0.81784921  0.21076485  0.47750870
   0.56771670  0.71041894  0.47745791
   0.06782055  0.86322531  0.16666295
   0.93237834  0.28839239  0.52235766
   0.68457789  0.79059212  0.65589831
   0.05853117  0.87485235  0.43307077
   0.06814087  0.22310955  0.87618733
   0.80977667  0.04060353  0.65585446
   0.55966578  0.02645493  0.12383445
   0.30861387  0.37529247  0.43297763
   0.31665151  0.37505505  0.56682062
   0.31772966  0.71030936  0.47731244
   0.05732843  0.03924376  0.52244646
   0.32184255  0.87660247  0.70054490
   0.06537859  0.53756621  0.25509704
   0.68342530  0.13783922  0.83351725
   0.81518020  0.03750350  0.25515805
   0.18345976  0.12504042  0.43309634
   0.69715314  0.12613460  0.70042960
   0.18240258  0.28930614  0.52253705
   0.44077578  0.78731678  0.25523722
   0.44144366  0.61060811  0.16646472
   0.06318820  0.20854678  0.61150692
   0.18615993  0.79124561  0.38833265
   0.30704749  0.53887691  0.52248361
   0.82198843  0.37656683  0.70037324
   0.68638967  0.29125248  0.38841310
   0.19164675  0.12493015  0.56687493
   0.68982381  0.96846352  0.87607948
   0.69160684  0.12509382  0.56690401
   0.44002844  0.95877792  0.34400270
   0.18421961  0.96270534  0.74490479
   0.94132384  0.78728849  0.25525081
   0.55844487  0.87477293  0.43305729
   0.30861318  0.87499250  0.43296478
   0.80713307  0.53925751  0.52257914
   0.92935569  0.45132499  0.21128367
   0.31519012  0.53756823  0.25512461
   0.56180788  0.04139000  0.38842987
   0.93811627  0.45844822  0.61159508
   0.06148060  0.04136027  0.38837027
   0.06119102  0.54126739  0.38837645
   0.43607220  0.29105135  0.38833175
   0.69255372  0.46060076  0.47734276
   0.06677277  0.37500949  0.56691206
   0.55389806  0.70114052  0.21115197
   0.94111227  0.28750925  0.25526070
   0.81933573  0.04981260  0.78916451
   0.19014442  0.95888853  0.34402643
   0.55300275  0.87377889  0.29957623
   0.05851807  0.37473467  0.43301409
   0.31506145  0.70890027  0.34395143
   0.31514612  0.20897841  0.34398701
   0.94170221  0.12509986  0.56680893
   0.43831525  0.95874257  0.61156084
   0.56541736  0.03755269  0.25502216
   0.18597900  0.78266632  0.12424107
   0.06545510  0.03751708  0.25515683
   0.69159953  0.62496933  0.56692302
   0.05690790  0.52603248  0.12414016
   0.30705699  0.03854165  0.52235213
   0.68771923  0.28225911  0.12415469
   0.81780367  0.71081276  0.47747068
   0.43350758  0.13769644  0.83350765
   0.32192522  0.37647979  0.70041757
   0.68338163  0.63797629  0.83351402
   0.55981165  0.71207011  0.74485146
   0.93632453  0.29139641  0.38840929
   0.93984710  0.96838850  0.87613696
   0.56301278  0.20785491  0.61129047
   0.81656080  0.87505058  0.56691741
   0.80301759  0.87362534  0.29947843
   0.31528045  0.03783563  0.25513086
   0.43679994  0.28346275  0.12405311
   0.31341057  0.70869764  0.61160072
   0.43359665  0.62515341  0.43309275
   0.93316800  0.62543303  0.43315730
   0.31843383  0.86294806  0.16579490
   0.07047698  0.54940160  0.78874802
   0.93339724  0.12537727  0.43314526
   0.31817979  0.36301249  0.16578945
   0.93382301  0.96206690  0.74467390
   0.07263842  0.37702094  0.70049487
Direct configuration=     2
   0.05469216  0.70105065  0.21125817
   0.31779091  0.72357983  0.87617025
   0.68832912  0.95875498  0.61148127
   0.43834647  0.45847215  0.61156407
   0.44024723  0.28727359  0.25526437
   0.05906532  0.38829750  0.83370542
   0.30890799  0.88755016  0.83364005
   0.44573582  0.62664466  0.70037653
   0.06045259  0.21281116  0.74488521
   0.17918465  0.45115912  0.21130618
   0.56729781  0.21038340  0.47751332
   0.06639396  0.87498610  0.56691837
   0.56800863  0.22338868  0.87607683
   0.80823473  0.52836283  0.12401710
   0.42984485  0.95130744  0.21133610
   0.56634621  0.37486186  0.56680542
   0.81115426  0.04164990  0.38834454
   0.68255452  0.78905080  0.52240184
   0.44227268  0.46043636  0.47753284
   0.43481533  0.96262402  0.74486003
   0.44135804  0.62493919  0.56690425
   0.57079920  0.87640186  0.70052933
   0.30920716  0.02653146  0.12394488
   0.68936003  0.95871075  0.34397451
   0.68793952  0.78185425  0.12426378
   0.05353910  0.37381810  0.29953803
   0.68952316  0.46829040  0.87598820
   0.42990799  0.45118089  0.21132408
   0.80876496  0.37523837  0.43305106
   0.56322943  0.70825728  0.61156311
   0.56012937  0.54073986  0.65587274
   0.81729307  0.86197719  0.16659407
   0.56475438  0.53753139  0.25508959
   0.68944118  0.45868452  0.34395627
   0.19126777  0.61173068  0.16638329
   0.19409133  0.79960145  0.78889620
   0.44571064  0.12581700  0.70040061
   0.92866300  0.62351013  0.29961431
   0.31726071  0.22290886  0.87606216
   0.31625287  0.87474768  0.56686346
   0.81704902  0.22331600  0.87611982
   0.81015296  0.54089824  0.65582175
   0.55897863  0.52702098  0.12398310
   0.56898144  0.04972444  0.78893899
   0.19044213  0.28731496  0.25528696
   0.80890017  0.87522966  0.43305467
   0.57154806  0.37626246  0.70038998
   0.05790027  0.02649247  0.12415160
   0.31013251  0.54075359  0.65588587
   0.56458981  0.20886252  0.34398804
   0.18793073  0.95823227  0.61127182
   0.30370672  0.37391601  0.29958835
   0.43509877  0.79083149  0.65588336
   0.19425438  0.29900040  0.78884835
   0.06699079  0.36297281  0.16657367
   0.69584884  0.62666359  0.70052275
   0.31138659  0.54115238  0.38841366
   0.06746943  0.72263006  0.87623107
   0.93418367  0.63746730  0.83405395
   0.31943381  0.54980797  0.78900701
   0.30509178  0.20054644  0.21121207
   0.06743037  0.71046596  0.47752744
   0.55489295  0.20085647  0.21113681
   0.31025324  0.21273004  0.74485599
   0.81464611  0.53751766  0.25520380
   0.18353579  0.63766285  0.83367923
   0.06901313  0.04949914  0.78911386
   0.44123108  0.12500209  0.56692474
   0.93519732  0.29085504  0.65579813
   0.80471593  0.20124928  0.21114496
   0.92991190  0.95125451  0.21129931
   0.94122108  0.62499899  0.56679155
   0.80863903  0.38739593  0.83363980
   0.19578177  0.62623270  0.70030369
   0.80891148  0.88743049  0.83365825
   0.68547990  0.29087648  0.65603744
   0.31306400  0.20786173  0.61137964
   0.43516016  0.46286239  0.74474380
   0.43641724  0.79120203  0.38840815
   0.68502989  0.96265882  0.74478724
   0.80456675  0.70116583  0.21117872
   0.81349905  0.70854364  0.61156944
   0.43698004  0.78291100  0.12405711
   0.31031410  0.71228275  0.74477879
   0.31973574  0.04948291  0.78888149
   0.81108475  0.54158256  0.38832286
   0.68261744  0.28909670  0.52240833
   0.69454459  0.79943163  0.78888703
   0.19023003  0.78737116  0.25525411
   0.69135996  0.11257807  0.16653020
   0.69221183  0.96042285  0.47752728
   0.93973640  0.95922360  0.34404418
   0.80771276  0.03931836  0.52247720
   0.68390670  0.62504723  0.43297808
   0.43971384  0.45872919  0.34401213
   0.81116736  0.21200566  0.74462697
   0.43958108  0.96852380  0.87599667
   0.56627548  0.87471169  0.56681984
   0.80944529  0.02817951  0.12400633
   0.42872340  0.62361795  0.29950240
   0.81679758  0.72341785  0.87626754
   0.68819284  0.45855323  0.61152992
   0.55889450  0.38755482  0.83358713
   0.80370190  0.37336929  0.29947685
   0.18620251  0.29114678  0.38832091
   0.81926604  0.54954735  0.78909491
   0.18283996  0.78956258  0.52250113
   0.30356849  0.87398822  0.29960348
   0.17928294  0.95141885  0.21133862
   0.18507608  0.46260828  0.74489098
   0.43287535  0.28907655  0.52232120
   0.06440967  0.70867850  0.34387696
   0.18525316  0.79083150  0.65580094
   0.44424213  0.79942715  0.78884193
   0.68394485  0.12501449  0.43297426
   0.93262927  0.78865468  0.52235674
   0.69139534  0.61269311  0.16664869
   0.81438689  0.70873069  0.34389377
   0.93440324  0.46264954  0.74496666
   0.18980613  0.45896326  0.34403489
   0.56945486  0.54953407  0.78907556
   0.56626929  0.36279784  0.16637735
   0.56449965  0.70902209  0.34395641
   0.55369222  0.37366924  0.29956717
   0.18938848  0.46828682  0.87600782
   0.19131683  0.11164377  0.16639016
   0.44431750  0.29925517  0.78883610
   0.69030594  0.78754216  0.25537498
   0.93405056  0.13761675  0.83364098
   0.44224450  0.96058849  0.47751309
   0.56721228  0.72403063  0.87621307
   0.19202948  0.46065971  0.47752841
   0.93457740  0.28162374  0.12420458
   0.31148267  0.04136610  0.38840967
   0.06051775  0.04092394  0.65603829
   0.55874968  0.37499784  0.43310390
   0.68479796  0.46269023  0.74486603
   0.56048278  0.21258610  0.74478666
   0.94643798  0.12648328  0.70034184
   0.56025113  0.04083426  0.65584030
   0.55775750  0.53947011  0.52247563
   0.17861385  0.12373950  0.29954106
   0.44097054  0.11079247  0.16633664
   0.67869688  0.62337522  0.29946578
   0.92860128  0.12346491  0.29962159
   0.81626600  0.37513512  0.56688281
   0.05335999  0.87379411  0.29954934
   0.19139908  0.62490240  0.56688564
   0.94405409  0.79972677  0.78890682
   0.30864382  0.38738468  0.83365879
   0.93970574  0.46877976  0.87605864
   0.43401719  0.63782438  0.83359935
   0.06446401  0.20864087  0.34388978
   0.18973588  0.96836286  0.87606951
   0.93504143  0.78158861  0.12422261
   0.68653611  0.79123198  0.38841192
   0.93528411  0.79088091  0.65594202
   0.94082667  0.11221657  0.16651716
   0.43555596  0.29100777  0.65605502
   0.05491875  0.20122327  0.21125764
   0.67975998  0.95127749  0.21129412
   0.17874795  0.62366432  0.29951294
   0.82083056  0.87645018  0.70047973
   0.94598622  0.62658920  0.70054198
   0.19585753  0.12624256  0.70036545
   0.94220179  0.46017464  0.47734738
   0.81294946  0.20811191  0.61146822
   0.18379812  0.62506966  0.43310652
   0.42871125  0.12365640  0.29952087
   0.67871651  0.12349212  0.29946705
   0.56161315  0.54128751  0.38843004
   0.81425374  0.20878411  0.34390080
   0.43971775  0.46844856  0.87585366
   0.55875244  0.88734095  0.83358382
   0.31719642  0.21026757  0.47739371
   0.19200340  0.96060183  0.47753849
   0.05899888  0.88754027  0.83355058
   0.05777061  0.53938762  0.52245543
   0.94207545  0.96039774  0.47738633
   0.06304905  0.70851699  0.61149279
   0.55789382  0.03900185  0.52230204
   0.69461414  0.29890619  0.78880813
   0.81719298  0.36206861  0.16660759
   0.43388166  0.12491363  0.43303401
   0.06739425  0.21052381  0.47750680
   0.31023315  0.04089100  0.65590762
   0.43266020  0.78924484  0.52230715
   0.18419203  0.13767226  0.83370684
   0.18601716  0.28235300  0.12425619
   0.93975871  0.45910922  0.34403308
   0.56635485  0.86277724  0.16641381
   0.30477490  0.70066221  0.21121986
   0.94088899  0.61250929  0.16652338
   0.18797377  0.45803534  0.61142016
   0.07127269  0.87656658  0.70035066
   0.06029881  0.54079039  0.65596032
   0.30818170  0.52661503  0.12401477
   0.93636206  0.79152064  0.38844876
   0.94452738  0.29900401  0.78881273
   0.18511704  0.29080043  0.65587675
   0.93795960  0.95806440  0.61141649
   0.81051269  0.71218752  0.74480932
   0.69037482  0.28745575  0.25533546
   0.06009871  0.71224829  0.74489149
   0.67952913  0.45117078  0.21127144
   0.81727690  0.21049994  0.47755488
   0.56716687  0.71024183  0.47751497
   0.06723882  0.86329944  0.16657103
   0.93290813  0.28871073  0.52233527
   0.68500658  0.79072171  0.65588537
   0.05891805  0.87487560  0.43305743
   0.06778896  0.22258308  0.87613652
   0.81022915  0.04070637  0.65584081
   0.55973561  0.02687659  0.12392372
   0.30890999  0.37523611  0.43299034
   0.31628386  0.37498924  0.56681059
   0.31717850  0.71017503  0.47738546
   0.05786224  0.03942934  0.52238850
   0.32122060  0.87660640  0.70052740
   0.06483463  0.53747017  0.25516401
   0.68387521  0.13773983  0.83359941
   0.81467394  0.03740655  0.25521378
   0.18394274  0.12506842  0.43308558
   0.69645136  0.12616956  0.70041242
   0.18295385  0.28951141  0.52248736
   0.44016905  0.78730830  0.25527540
   0.44101526  0.61085400  0.16640879
   0.06317013  0.20848433  0.61149206
   0.18620502  0.79128777  0.38834893
   0.30764443  0.53916321  0.52242651
   0.82122614  0.37656620  0.70036553
   0.68639671  0.29132113  0.38841427
   0.19129891  0.12490455  0.56685972
   0.68970201  0.96890001  0.87599922
   0.69125151  0.12505076  0.56689716
   0.43958977  0.95873106  0.34402621
   0.18479692  0.96271693  0.74484408
   0.94062025  0.78729548  0.25529529
   0.55882556  0.87485032  0.43305295
   0.30890417  0.87497998  0.43297720
   0.80769764  0.53939365  0.52250927
   0.92983772  0.45133510  0.21128315
   0.31465305  0.53745621  0.25519062
   0.56173350  0.04141522  0.38843373
   0.93813122  0.45833436  0.61157477
   0.06147750  0.04141889  0.38838162
   0.06124735  0.54135499  0.38838425
   0.43616089  0.29114252  0.38835257
   0.69202712  0.46040911  0.47742371
   0.06638512  0.37497775  0.56690682
   0.55440684  0.70110097  0.21114898
   0.94045684  0.28746930  0.25530140
   0.81893902  0.04972378  0.78912627
   0.18968682  0.95879170  0.34404156
   0.55367173  0.87372531  0.29958273
   0.05890344  0.37477626  0.43300551
   0.31459521  0.70878174  0.34398223
   0.31466179  0.20884369  0.34401018
   0.94130809  0.12506610  0.56679921
   0.43828795  0.95862406  0.61155044
   0.56482368  0.03746421  0.25509876
   0.18602261  0.78212270  0.12426931
   0.06489075  0.03744592  0.25521483
   0.69124813  0.62494074  0.56691884
   0.05743944  0.52647883  0.12418812
   0.30764250  0.03890024  0.52231506
   0.68769447  0.28189220  0.12422870
   0.81723632  0.71052960  0.47752529
   0.43396454  0.13758811  0.83357376
   0.32134340  0.37644572  0.70040582
   0.68388721  0.63784350  0.83359675
   0.56030618  0.71215100  0.74480373
   0.93632011  0.29147724  0.38841575
   0.93976652  0.96878373  0.87604708
   0.56305450  0.20792526  0.61131920
   0.81621331  0.87500329  0.56690287
   0.80367549  0.87358497  0.29949489
   0.31473038  0.03766745  0.25520075
   0.43680989  0.28288989  0.12408103
   0.31335660  0.70856826  0.61158235
   0.43389061  0.62512725  0.43307948
   0.93353533  0.62537971  0.43314862
   0.31794933  0.86297713  0.16575718
   0.06998823  0.54939532  0.78876510
   0.93371961  0.12533743  0.43313815
   0.31772451  0.36301889  0.16575898
   0.93437563  0.96219849  0.74467154
   0.07192024  0.37698843  0.70047689
Direct configuration=     3
   0.05643540  0.70108795  0.21117773
   0.31691490  0.72199322  0.87597093
   0.68818342  0.95824761  0.61144930
   0.43824436  0.45810624  0.61152315
   0.43841823  0.28722668  0.25537376
   0.05999499  0.38749624  0.83393504
   0.31008353  0.88720360  0.83394426
   0.44389249  0.62675642  0.70038339
   0.06205158  0.21304921  0.74472808
   0.18093426  0.45133655  0.21128985
   0.56554947  0.20969675  0.47768376
   0.06520027  0.87480137  0.56688243
   0.56682168  0.22163780  0.87589488
   0.80915618  0.52938234  0.12426658
   0.43155323  0.95131360  0.21124956
   0.56529029  0.37474634  0.56678821
   0.81147280  0.04179346  0.38839781
   0.68429168  0.78994380  0.52228318
   0.44052513  0.45974754  0.47768697
   0.43633671  0.96274491  0.74464116
   0.44016338  0.62480339  0.56685822
   0.56900310  0.87652193  0.70044181
   0.30990126  0.02863275  0.12404050
   0.68806115  0.95838354  0.34401360
   0.68781938  0.78077418  0.12448477
   0.05564686  0.37361024  0.29956844
   0.68920013  0.46988851  0.87575414
   0.43152729  0.45128943  0.21124133
   0.80981106  0.37533849  0.43302861
   0.56320539  0.70819508  0.61154242
   0.56145944  0.54096627  0.65585610
   0.81589649  0.86270428  0.16632169
   0.56302385  0.53724130  0.25531981
   0.68806607  0.45845156  0.34400450
   0.18983524  0.61222983  0.16629108
   0.19299535  0.79936865  0.78883954
   0.44408739  0.12604446  0.70039330
   0.93058630  0.62326544  0.29961849
   0.31632551  0.22141986  0.87590273
   0.31518666  0.87468036  0.56680703
   0.81622621  0.22160393  0.87592821
   0.81161669  0.54126553  0.65582590
   0.55950080  0.52822658  0.12422172
   0.56794519  0.04968967  0.78895682
   0.18862610  0.28731912  0.25538560
   0.80984304  0.87537193  0.43302738
   0.56940833  0.37645762  0.70042386
   0.05947965  0.02791939  0.12432374
   0.31147304  0.54106710  0.65581228
   0.56318236  0.20846484  0.34407298
   0.18824859  0.95825877  0.61137353
   0.30568327  0.37376922  0.29961673
   0.43644131  0.79130406  0.65586135
   0.19302588  0.29880083  0.78888471
   0.06536308  0.36336682  0.16628843
   0.69393278  0.62669359  0.70044440
   0.31148275  0.54150223  0.38843468
   0.06642345  0.72127552  0.87607981
   0.93522261  0.63713258  0.83418142
   0.31848079  0.54984462  0.78901038
   0.30632858  0.20044619  0.21115210
   0.06564389  0.70971328  0.47771316
   0.55616496  0.20086665  0.21111233
   0.31194660  0.21308139  0.74465649
   0.81305818  0.53708960  0.25538500
   0.18483574  0.63715232  0.83387674
   0.06792873  0.04929309  0.78906676
   0.44014632  0.12485094  0.56688302
   0.93652502  0.29127739  0.65572747
   0.80617001  0.20107135  0.21111067
   0.93131153  0.95135275  0.21130436
   0.94009835  0.62497101  0.56676475
   0.80973950  0.38703020  0.83392921
   0.19397299  0.62671041  0.70031840
   0.80996313  0.88702854  0.83397764
   0.68666290  0.29110646  0.65592279
   0.31342674  0.20790886  0.61140064
   0.43669112  0.46285430  0.74461649
   0.43644831  0.79136586  0.38844031
   0.68641621  0.96278146  0.74465401
   0.80602096  0.70113643  0.21113737
   0.81330819  0.70822301  0.61150609
   0.43704280  0.78118255  0.12417255
   0.31177311  0.71261030  0.74460916
   0.31841262  0.04956679  0.78894897
   0.81144669  0.54175971  0.38838726
   0.68436596  0.29002061  0.52228421
   0.69324952  0.79944489  0.78890266
   0.18858845  0.78736033  0.25538792
   0.69013992  0.11296828  0.16633030
   0.69046263  0.95977993  0.47770568
   0.93831831  0.95890530  0.34406647
   0.80943200  0.03985363  0.52230588
   0.68443191  0.62505050  0.43300667
   0.43833683  0.45862997  0.34409310
   0.81230577  0.21258735  0.74454814
   0.43939217  0.97000878  0.87576093
   0.56523013  0.87464357  0.56678418
   0.80989907  0.02924496  0.12424329
   0.43068314  0.62347104  0.29957715
   0.81596386  0.72199917  0.87607012
   0.68815760  0.45814981  0.61147743
   0.55996533  0.38717806  0.83383035
   0.80570250  0.37344860  0.29952813
   0.18629388  0.29145740  0.38838539
   0.81785731  0.54976782  0.78912016
   0.18453669  0.79006383  0.52235671
   0.30563623  0.87377810  0.29961794
   0.18096583  0.95146974  0.21130390
   0.18705765  0.46279022  0.74469963
   0.43447591  0.28986875  0.52219758
   0.06316698  0.70855856  0.34402178
   0.18670430  0.79112023  0.65574841
   0.44297854  0.79937321  0.78882896
   0.68445924  0.12505160  0.43300918
   0.93436434  0.78955909  0.52228442
   0.69010340  0.61296913  0.16638676
   0.81316682  0.70860636  0.34404812
   0.93629110  0.46285551  0.74474930
   0.18835383  0.45862084  0.34408290
   0.56832943  0.54951851  0.78900833
   0.56589467  0.36338251  0.16609265
   0.56317480  0.70849488  0.34406321
   0.55578450  0.37356246  0.29959232
   0.18911115  0.46978093  0.87582766
   0.18998982  0.11224539  0.16625971
   0.44300978  0.29918810  0.78882237
   0.68847091  0.78740458  0.25541567
   0.93544916  0.13719190  0.83390932
   0.44049924  0.95980884  0.47765300
   0.56639962  0.72221787  0.87598633
   0.19035199  0.45985314  0.47767932
   0.93540932  0.28055052  0.12442808
   0.31150819  0.04144547  0.38842828
   0.06164099  0.04108191  0.65590666
   0.55989454  0.37510614  0.43305525
   0.68604350  0.46266271  0.74469626
   0.56196612  0.21315922  0.74458793
   0.94407105  0.12674287  0.70033088
   0.56154091  0.04108468  0.65581704
   0.55938070  0.54009267  0.52227762
   0.18066413  0.12348512  0.29956663
   0.43983572  0.11157073  0.16617468
   0.68055844  0.62328994  0.29953660
   0.93058621  0.12330118  0.29962432
   0.81520789  0.37490553  0.56686055
   0.05559610  0.87357020  0.29958006
   0.19019979  0.62483386  0.56687006
   0.94257469  0.79931776  0.78890425
   0.30999644  0.38698983  0.83391644
   0.93948464  0.47011496  0.87584317
   0.43528865  0.63736211  0.83383107
   0.06318904  0.20857385  0.34402250
   0.18926979  0.96977211  0.87579193
   0.93568703  0.78043775  0.12442459
   0.68645611  0.79153227  0.38840803
   0.93664696  0.79129431  0.65586974
   0.93967822  0.11285755  0.16634032
   0.43666961  0.29114936  0.65592741
   0.05659704  0.20104646  0.21118831
   0.68132637  0.95129666  0.21125461
   0.18070457  0.62346944  0.29955609
   0.81879421  0.87662129  0.70041152
   0.94392629  0.62673385  0.70050181
   0.19400024  0.12653336  0.70040064
   0.94061027  0.45960282  0.47759299
   0.81308002  0.20806358  0.61143355
   0.18531150  0.62511342  0.43305562
   0.43067224  0.12341328  0.29959170
   0.68052521  0.12332672  0.29953231
   0.56140236  0.54149037  0.38843393
   0.81311959  0.20863606  0.34405524
   0.43942792  0.46998985  0.87567629
   0.56005567  0.88702946  0.83391479
   0.31562702  0.20975534  0.47760994
   0.19037255  0.95979354  0.47766221
   0.05992329  0.88730396  0.83389397
   0.05943694  0.53991473  0.52225093
   0.94058127  0.95962325  0.47759569
   0.06316296  0.70830359  0.61143461
   0.55942084  0.03991362  0.52218773
   0.69319728  0.29890683  0.78878099
   0.81578691  0.36275002  0.16631235
   0.43481873  0.12502858  0.43302971
   0.06572249  0.20970221  0.47769818
   0.31171926  0.04111389  0.65581127
   0.43438482  0.78995821  0.52219693
   0.18542883  0.13732371  0.83394619
   0.18601140  0.28050723  0.12434175
   0.93835160  0.45886836  0.34405112
   0.56597907  0.86351005  0.16609868
   0.30616930  0.70042490  0.21116308
   0.93956045  0.61285532  0.16635627
   0.18814110  0.45807703  0.61143964
   0.06922170  0.87673445  0.70032530
   0.06159598  0.54123151  0.65589242
   0.30929347  0.52864180  0.12404463
   0.93635408  0.79174838  0.38844869
   0.94309223  0.29887542  0.78884051
   0.18648480  0.29118851  0.65584364
   0.93818313  0.95810561  0.61147892
   0.81199325  0.71258807  0.74471774
   0.68856025  0.28735286  0.25539393
   0.06191149  0.71253668  0.74466770
   0.68118765  0.45128037  0.21126126
   0.81555998  0.20970524  0.47769343