<?xml version="1.0" encoding="ISO-8859-1"?>
<modeling>
 <generator>
  <i name="program" type="string">vasp </i>
  <i name="version" type="string">5.4.4.18Apr17-6-g9f103f2a35  </i>
  <i name="subversion" type="string">(build Sep 27 2018 12:46:37) complex + VL-xray_ parallel </i>
  <i name="platform" type="string">LLNL_Quartz_ifc </i>
  <i name="date" type="string">2021 09 26 </i>
  <i name="time" type="string">21:40:27 </i>
 </generator>
 <incar>
  <i type="int" name="ISTART">     2</i>
  <i type="string" name="PREC">accurate</i>
  <i type="string" name="ALGO"> Fast</i>
  <i type="int" name="ICHARG">     2</i>
  <i type="int" name="INIWAV">     1</i>
  <i type="int" name="NELM">   100</i>
  <i type="int" name="NELMIN">     4</i>
  <i type="int" name="IBRION">     2</i>
  <i name="EDIFF">      0.00000100</i>
  <i type="int" name="NSW">     5</i>
  <i type="int" name="ISIF">     2</i>
  <i type="int" name="ISYM">     2</i>
  <i name="ENCUT">    450.00000000</i>
  <i name="POTIM">      0.25000000</i>
  <i type="string" name="LREAL"> Auto</i>
  <i type="int" name="ISMEAR">     0</i>
  <i name="SIGMA">      0.15000000</i>
  <i type="logical" name="LWAVE"> F  </i>
  <i type="logical" name="LCHARG"> F  </i>
  <i type="int" name="ICORELEVEL">     0</i>
  <i type="int" name="CLNT">     1</i>
  <i type="int" name="CLN">     1</i>
  <i type="int" name="INCAR     ">     0</i>
  <i name="CLZ">      0.00000000</i>
  <v type="int" name="KPOINT_BSE">    -1     0     0     0</v>
  <i type="int" name="NELM">   100</i>
 </incar>
 <structure name="primitive_cell" >
  <crystal>
   <varray name="basis" >
    <v>       9.72667804       0.00000000       0.00000000 </v>
    <v>       0.00000000       8.42355028       0.00000000 </v>
    <v>       0.00000000       0.00000000      45.00000000 </v>
   </varray>
   <i name="volume">   3686.99226691 </i>
   <varray name="rec_basis" >
    <v>       0.10281002       0.00000000       0.00000000 </v>
    <v>       0.00000000       0.11871479       0.00000000 </v>
    <v>       0.00000000       0.00000000       0.02222222 </v>
   </varray>
  </crystal>
  <varray name="positions" >
   <v>       0.06171081       0.03484105       0.12452052 </v>
   <v>      -0.05726712       0.11329309       0.16698473 </v>
   <v>       0.19242728       0.11166270       0.16604220 </v>
   <v>       0.06769631      -0.13837328       0.16672402 </v>
   <v>       0.18616804       0.28097749       0.12439814 </v>
   <v>      -0.06550565       0.27990604       0.12455372 </v>
   <v>      -0.18862064       0.03319524       0.12448056 </v>
   <v>       0.31350987       0.03403432       0.12446559 </v>
   <v>      -0.06443434      -0.21956942       0.12452444 </v>
   <v>       0.18774620      -0.22024652       0.12433335 </v>
   <v>       0.06726036       0.36176782       0.16679652 </v>
   <v>      -0.18305284      -0.13806981       0.16698036 </v>
   <v>       0.31832694      -0.13972195       0.16591505 </v>
   <v>      -0.18351158       0.36217509       0.16700134 </v>
   <v>      -0.30720310       0.11197249       0.16723818 </v>
   <v>       0.17994565      -0.04764245       0.21187219 </v>
   <v>       0.31644321       0.36086408       0.16669752 </v>
   <v>       0.05490747       0.20276351       0.21189935 </v>
   <v>      -0.06947618      -0.04709633       0.21180910 </v>
   <v>      -0.31303627       0.28110921       0.12431159 </v>
   <v>      -0.05810058      -0.38698359       0.16695506 </v>
   <v>       0.06225664      -0.46662501       0.12460093 </v>
   <v>       0.43816804       0.28121882       0.12443041 </v>
   <v>      -0.31157403      -0.21841042       0.12431166 </v>
   <v>       0.44254677       0.11124177       0.16673374 </v>
   <v>       0.19346803      -0.38816084       0.16598141 </v>
   <v>       0.43673618      -0.21928981       0.12417633 </v>
   <v>       0.30560021       0.20266154       0.21192575 </v>
   <v>       0.05522864      -0.29687116       0.21189531 </v>
   <v>      -0.43587853       0.03352306       0.12436383 </v>
   <v>      -0.18911985      -0.46682375       0.12442691 </v>
   <v>      -0.19458328       0.20306493       0.21183672 </v>
   <v>       0.31268403      -0.46522389       0.12414924 </v>
   <v>       0.43036559      -0.04790531       0.21170638 </v>
   <v>      -0.43307415      -0.13715623       0.16688481 </v>
   <v>       0.30565913      -0.29759076       0.21189619 </v>
   <v>       0.18085263       0.45169792       0.21161447 </v>
   <v>      -0.30745690      -0.38850548       0.16704787 </v>
   <v>      -0.19459645      -0.29692865       0.21186208 </v>
   <v>      -0.06984318       0.45301053       0.21186784 </v>
   <v>      -0.32001037      -0.04788502       0.21158203 </v>
   <v>       0.44165099      -0.38738977       0.16684498 </v>
   <v>      -0.43289894       0.36267629       0.16692904 </v>
   <v>       0.06533677       0.03532835       0.25603140 </v>
   <v>      -0.44444628       0.20235476       0.21160672 </v>
   <v>       0.42983034       0.45185178       0.21164102 </v>
   <v>      -0.18446499       0.03528462       0.25604637 </v>
   <v>      -0.05971662      -0.21478287       0.25601613 </v>
   <v>      -0.05957900       0.28528921       0.25603531 </v>
   <v>       0.19002563      -0.21431318       0.25597707 </v>
   <v>      -0.43562932      -0.46725924       0.12452573 </v>
   <v>       0.19004366       0.28567593       0.25597385 </v>
   <v>       0.31542064       0.03533048       0.25601677 </v>
   <v>      -0.31988772       0.45289141       0.21180501 </v>
   <v>      -0.44505323      -0.29771860       0.21169106 </v>
   <v>      -0.30995366      -0.21457479       0.25605445 </v>
   <v>      -0.31003726       0.28542524       0.25603853 </v>
   <v>       0.06557927      -0.46464744       0.25599858 </v>
   <v>       0.44003857      -0.21443721       0.25601220 </v>
   <v>       0.44046883       0.28526853       0.25597124 </v>
   <v>      -0.43493489       0.03539150       0.25602048 </v>
   <v>      -0.18492016      -0.46459464       0.25604325 </v>
   <v>       0.31497480      -0.46439090       0.25603745 </v>
   <v>       0.17861090       0.12228133       0.30030797 </v>
   <v>       0.05376925      -0.12789806       0.30032036 </v>
   <v>      -0.07156436       0.12202248       0.30036503 </v>
   <v>       0.30374255      -0.12772647       0.30027959 </v>
   <v>       0.05369147       0.37212559       0.30031104 </v>
   <v>      -0.19659688      -0.12818908       0.30035874 </v>
   <v>       0.42870985       0.12210798       0.30033234 </v>
   <v>       0.17877797      -0.37784332       0.30032959 </v>
   <v>      -0.43494115      -0.46458786       0.25601033 </v>
   <v>       0.30376264       0.37212976       0.30031746 </v>
   <v>      -0.07140763      -0.37797966       0.30035161 </v>
   <v>      -0.19641638       0.37201211       0.30034330 </v>
   <v>      -0.32129094       0.12205684       0.30029265 </v>
   <v>      -0.44612101      -0.12787277       0.30027219 </v>
   <v>       0.42857838      -0.37781194       0.30028789 </v>
   <v>      -0.32131184      -0.37801370       0.30030968 </v>
   <v>      -0.44631198       0.37198796       0.30034353 </v>
   <v>      -0.05858498      -0.04815338       0.34495712 </v>
   <v>       0.06625652       0.20189310       0.34496072 </v>
   <v>       0.19122515      -0.04836611       0.34496359 </v>
   <v>      -0.18356334       0.20194235       0.34498533 </v>
   <v>       0.06639169      -0.29807840       0.34497549 </v>
   <v>       0.31637087       0.20180953       0.34497930 </v>
   <v>      -0.30861024      -0.04833720       0.34491786 </v>
   <v>      -0.18354379      -0.29797735       0.34498568 </v>
   <v>      -0.05863224       0.45179027       0.34494423 </v>
   <v>       0.19139040       0.45187833       0.34498250 </v>
   <v>       0.31634684      -0.29804190       0.34496937 </v>
   <v>       0.44126842      -0.04788249       0.34501168 </v>
   <v>      -0.43363222       0.20188751       0.34496459 </v>
   <v>      -0.30891974       0.45172748       0.34493264 </v>
   <v>       0.44142572       0.45175858       0.34497402 </v>
   <v>       0.06382207       0.04338226      -0.12442474 </v>
   <v>      -0.43352425      -0.29772309       0.34503961 </v>
   <v>       0.19423142      -0.20311740      -0.12399731 </v>
   <v>      -0.05813928      -0.20279808      -0.12435216 </v>
   <v>      -0.18537620       0.04257805      -0.12424925 </v>
   <v>      -0.05872639       0.29769976      -0.12407197 </v>
   <v>       0.19083127       0.29567392      -0.12414910 </v>
   <v>       0.31529377       0.04187964      -0.12459343 </v>
   <v>       0.05868482       0.03744985       0.38903271 </v>
   <v>      -0.30631201      -0.20321900      -0.12428634 </v>
   <v>       0.06410541      -0.45764150      -0.12430268 </v>
   <v>      -0.30608289       0.29814862      -0.12413683 </v>
   <v>       0.44132489      -0.20363512      -0.12431427 </v>
   <v>       0.44413280       0.29668192      -0.12423664 </v>
   <v>       0.18356936      -0.21248862       0.38906687 </v>
   <v>       0.30872860       0.03746387       0.38905695 </v>
   <v>      -0.06639371      -0.21248686       0.38904687 </v>
   <v>       0.18367032       0.28757191       0.38907060 </v>
   <v>      -0.19143319       0.03751687       0.38901122 </v>
   <v>      -0.06644979       0.28737366       0.38907622 </v>
   <v>      -0.18549457      -0.45756099      -0.12438736 </v>
   <v>       0.31419659      -0.45741718      -0.12445433 </v>
   <v>      -0.43451623       0.04422781      -0.12448513 </v>
   <v>       0.43368213      -0.21266205       0.38905724 </v>
   <v>       0.43322104       0.28755462       0.38898481 </v>
   <v>       0.05867486      -0.46240736       0.38906269 </v>
   <v>      -0.31628372      -0.21258045       0.38906565 </v>
   <v>      -0.31647608       0.28750525       0.38906186 </v>
   <v>       0.30866028      -0.46294191       0.38904552 </v>
   <v>      -0.44164387       0.03770156       0.38906545 </v>
   <v>      -0.19140490      -0.46241986       0.38909283 </v>
   <v>      -0.43393813      -0.45836271      -0.12437187 </v>
   <v>       0.18419506      -0.03575773      -0.16660598 </v>
   <v>      -0.06658147      -0.03713388      -0.16676782 </v>
   <v>       0.05904833       0.21337889      -0.16664943 </v>
   <v>       0.05888125      -0.28686864      -0.16680817 </v>
   <v>       0.30878757       0.21318172      -0.16648280 </v>
   <v>      -0.19106210       0.21327890      -0.16690670 </v>
   <v>      -0.44145650      -0.46255981       0.38906122 </v>
   <v>       0.30853722      -0.28452470      -0.16586284 </v>
   <v>       0.43263238      -0.03601145      -0.16662384 </v>
   <v>      -0.19163572      -0.28630992      -0.16687096 </v>
   <v>      -0.31584939      -0.03681222      -0.16687688 </v>
   <v>       0.18396753       0.46480881      -0.16660712 </v>
   <v>      -0.06644340       0.46316264      -0.16696712 </v>
   <v>       0.06307390      -0.12960750       0.43442304 </v>
   <v>      -0.06196698       0.12039910       0.43443760 </v>
   <v>       0.18781361       0.12047452       0.43443961 </v>
   <v>      -0.44114852       0.21321176      -0.16669670 </v>
   <v>       0.43332592       0.46432549      -0.16686297 </v>
   <v>      -0.31643608       0.46303327      -0.16691043 </v>
   <v>      -0.18705181      -0.12962802       0.43442655 </v>
   <v>       0.31314665      -0.12966180       0.43440993 </v>
   <v>       0.06273926       0.37041627       0.43441535 </v>
   <v>      -0.44088000      -0.28666854      -0.16685289 </v>
   <v>      -0.18666917       0.37065608       0.43423948 </v>
   <v>      -0.06191814      -0.37956770       0.43442512 </v>
   <v>       0.18783917      -0.37956582       0.43443979 </v>
   <v>      -0.31197616       0.12049896       0.43445759 </v>
   <v>       0.43800743       0.12039081       0.43439324 </v>
   <v>       0.31303014       0.37034233       0.43445256 </v>
   <v>      -0.31196035      -0.37954270       0.43443796 </v>
   <v>      -0.43696011      -0.12959177       0.43443232 </v>
   <v>       0.43802041      -0.37954893       0.43442439 </v>
   <v>      -0.43691385       0.37033046       0.43443446 </v>
   <v>      -0.05434267       0.12535348      -0.21160796 </v>
   <v>       0.07025189      -0.12593824      -0.21171489 </v>
   <v>       0.19558348       0.12535280      -0.21150105 </v>
   <v>      -0.17926703      -0.12554512      -0.21160137 </v>
   <v>       0.07092504       0.37459800      -0.21157497 </v>
   <v>       0.32037376      -0.12520965      -0.21161545 </v>
   <v>      -0.05459317      -0.37503323      -0.21142703 </v>
   <v>      -0.30413535       0.12491696      -0.21158684 </v>
   <v>      -0.17944156       0.37418829      -0.21159044 </v>
   <v>       0.19511748      -0.37489077      -0.21170352 </v>
   <v>       0.44520044       0.12507068      -0.21143320 </v>
   <v>       0.32104544       0.37541282      -0.21178589 </v>
   <v>      -0.30480819      -0.37499593      -0.21142166 </v>
   <v>      -0.42919741      -0.12600383      -0.21173824 </v>
   <v>       0.44594597      -0.37511927      -0.21166579 </v>
   <v>      -0.06220845      -0.04424353       0.47860253 </v>
   <v>       0.18779967      -0.04423456       0.47860634 </v>
   <v>       0.06275477       0.20587195       0.47860671 </v>
   <v>      -0.42955027       0.37474588      -0.21165957 </v>
   <v>       0.06279764      -0.29408527       0.47861779 </v>
   <v>      -0.18719753       0.20582754       0.47861785 </v>
   <v>       0.31283490       0.20577393       0.47862900 </v>
   <v>      -0.18717706      -0.29412678       0.47862907 </v>
   <v>      -0.31218457      -0.04423795       0.47861041 </v>
   <v>       0.31281326      -0.29422196       0.47862870 </v>
   <v>       0.43786370      -0.04413718       0.47864237 </v>
   <v>      -0.06221418       0.45573446       0.47863091 </v>
   <v>       0.18789267       0.45581766       0.47863084 </v>
   <v>      -0.43715108       0.20577976       0.47861939 </v>
   <v>      -0.31214900       0.45577383       0.47862109 </v>
   <v>       0.43783316       0.45584043       0.47862558 </v>
   <v>      -0.43723938      -0.29423239       0.47863920 </v>
   <v>       0.06031981       0.04221831      -0.25587672 </v>
   <v>      -0.06391030      -0.20784192      -0.25577430 </v>
   <v>       0.18630899      -0.20852404      -0.25581702 </v>
   <v>       0.31072892       0.04169457      -0.25596307 </v>
   <v>      -0.18912695       0.04245256      -0.25591762 </v>
   <v>       0.18569319       0.29200133      -0.25588382 </v>
   <v>      -0.06375733       0.29226433      -0.25592958 </v>
   <v>       0.06057804      -0.45801861      -0.25580008 </v>
   <v>       0.43573245      -0.20801596      -0.25582820 </v>
   <v>      -0.31442107      -0.20782059      -0.25582520 </v>
   <v>       0.43592017       0.29181882      -0.25585085 </v>
   <v>      -0.31433197       0.29207851      -0.25592998 </v>
   <v>       0.31101302      -0.45766282      -0.25563806 </v>
   <v>      -0.18931029      -0.45772316      -0.25593697 </v>
   <v>      -0.43941574       0.04200684      -0.25589883 </v>
   <v>       0.06340112      -0.12798605      -0.47868357 </v>
   <v>      -0.06154753       0.12198941      -0.47869595 </v>
   <v>       0.18846035       0.12198410      -0.47869558 </v>
   <v>      -0.18655349      -0.12798455      -0.47867949 </v>
   <v>       0.31348744      -0.12798647      -0.47870019 </v>
   <v>       0.06344188       0.37197307      -0.47869491 </v>
   <v>      -0.06153188      -0.37801543      -0.47869334 </v>
   <v>       0.18848306      -0.37805582      -0.47869067 </v>
   <v>      -0.31153271       0.12196031      -0.47870440 </v>
   <v>      -0.18651735       0.37197676      -0.47869715 </v>
   <v>       0.43850750       0.12199380      -0.47868941 </v>
   <v>       0.31346128       0.37196562      -0.47870024 </v>
   <v>      -0.43919859      -0.45756351      -0.25590526 </v>
   <v>      -0.31150727      -0.37794178      -0.47870132 </v>
   <v>      -0.43652862      -0.12797982      -0.47868919 </v>
   <v>       0.43845777      -0.37813140      -0.47869161 </v>
   <v>      -0.43653623       0.37200028      -0.47868913 </v>
   <v>      -0.05967618      -0.04149244      -0.30023773 </v>
   <v>       0.19059625      -0.04149095      -0.30031995 </v>
   <v>       0.06549557       0.20862178      -0.30030149 </v>
   <v>       0.06528343      -0.29170664      -0.30030983 </v>
   <v>      -0.18471455       0.20836184      -0.30033181 </v>
   <v>       0.31543132       0.20835469      -0.30029178 </v>
   <v>      -0.18461063      -0.29156271      -0.30035418 </v>
   <v>      -0.30958574      -0.04165427      -0.30029439 </v>
   <v>       0.31520808      -0.29183778      -0.30036728 </v>
   <v>       0.44014177      -0.04183272      -0.30035079 </v>
   <v>      -0.05979309       0.45834063      -0.30035219 </v>
   <v>       0.19007407       0.45809417      -0.30036901 </v>
   <v>      -0.43458026       0.20837213      -0.30028723 </v>
   <v>      -0.30924994       0.45848267      -0.30030336 </v>
   <v>       0.44019693       0.45819093      -0.30037396 </v>
   <v>      -0.06112487      -0.04231077      -0.43458101 </v>
   <v>       0.18871990      -0.04216770      -0.43455226 </v>
   <v>       0.06377923       0.20768242      -0.43457243 </v>
   <v>      -0.43467976      -0.29160369      -0.30033064 </v>
   <v>       0.06378350      -0.29229447      -0.43456934 </v>
   <v>      -0.18620788       0.20774313      -0.43456966 </v>
   <v>       0.31383635       0.20765436      -0.43457310 </v>
   <v>      -0.18622410      -0.29228228      -0.43456064 </v>
   <v>      -0.31122209      -0.04233829      -0.43456957 </v>
   <v>       0.31375800      -0.29226551      -0.43454643 </v>
   <v>       0.43885347      -0.04224977      -0.43458250 </v>
   <v>      -0.06121672       0.45777924      -0.43455061 </v>
   <v>       0.18873411       0.45784529      -0.43454841 </v>
   <v>      -0.43618030       0.20767037      -0.43457041 </v>
   <v>      -0.31123385       0.45775181      -0.43455674 </v>
   <v>       0.43884140       0.45776636      -0.43456684 </v>
   <v>      -0.43624003      -0.29234212      -0.43457352 </v>
   <v>       0.05892114      -0.12442010      -0.34509141 </v>
   <v>       0.18387059       0.12570060      -0.34509762 </v>
   <v>      -0.06616129       0.12579721      -0.34508144 </v>
   <v>       0.30887280      -0.12432623      -0.34507772 </v>
   <v>      -0.19122795      -0.12444620      -0.34513639 </v>
   <v>       0.05886121       0.37556876      -0.34508020 </v>
   <v>       0.18385831      -0.37427785      -0.34510399 </v>
   <v>      -0.06611324      -0.37409226      -0.34510092 </v>
   <v>       0.43385589       0.12573296      -0.34507370 </v>
   <v>       0.30885839       0.37566347      -0.34509964 </v>
   <v>      -0.31619382       0.12575256      -0.34510730 </v>
   <v>      -0.19116191       0.37562055      -0.34508139 </v>
   <v>       0.43400582      -0.37394492      -0.34503480 </v>
   <v>      -0.44109551      -0.12435040      -0.34508173 </v>
   <v>      -0.31582890      -0.37390452      -0.34502112 </v>
   <v>      -0.44120299       0.37564997      -0.34508038 </v>
   <v>       0.06268359       0.04181842      -0.38913685 </v>
   <v>       0.18780850      -0.20821232      -0.38921156 </v>
   <v>      -0.06240377      -0.20817585      -0.38904639 </v>
   <v>      -0.18733097       0.04187240      -0.38913827 </v>
   <v>      -0.06223760       0.29164929      -0.38924426 </v>
   <v>       0.31255975       0.04194871      -0.38915024 </v>
   <v>       0.18788511       0.29179263      -0.38921726 </v>
   <v>       0.06306088      -0.45834969      -0.38929457 </v>
   <v>      -0.31224448      -0.20811729      -0.38917334 </v>
   <v>       0.43783235      -0.20824423      -0.38920543 </v>
   <v>      -0.31216429       0.29181478      -0.38926500 </v>
   <v>       0.43771647       0.29185042      -0.38915563 </v>
   <v>      -0.18720989      -0.45822179      -0.38922493 </v>
   <v>       0.31282154      -0.45822366      -0.38921639 </v>
   <v>      -0.43726234       0.04191888      -0.38913365 </v>
   <v>      -0.43712166      -0.45824578      -0.38924841 </v>
  </varray>
 </structure>
 <varray name="primitive_index" >
  <v type="int" >        1 </v>
  <v type="int" >       26 </v>
  <v type="int" >      282 </v>
  <v type="int" >       60 </v>
  <v type="int" >      208 </v>
  <v type="int" >      155 </v>
  <v type="int" >      251 </v>
  <v type="int" >      256 </v>
  <v type="int" >      212 </v>
  <v type="int" >       83 </v>
  <v type="int" >       51 </v>
  <v type="int" >      102 </v>
  <v type="int" >      284 </v>
  <v type="int" >      252 </v>
  <v type="int" >      166 </v>
  <v type="int" >      146 </v>
  <v type="int" >        5 </v>
  <v type="int" >       50 </v>
  <v type="int" >      273 </v>
  <v type="int" >      145 </v>
  <v type="int" >      104 </v>
  <v type="int" >      176 </v>
  <v type="int" >      117 </v>
  <v type="int" >      163 </v>
  <v type="int" >      182 </v>
  <v type="int" >      287 </v>
  <v type="int" >       48 </v>
  <v type="int" >      123 </v>
  <v type="int" >      250 </v>
  <v type="int" >      245 </v>
  <v type="int" >      205 </v>
  <v type="int" >      167 </v>
  <v type="int" >       91 </v>
  <v type="int" >      229 </v>
  <v type="int" >      277 </v>
  <v type="int" >      276 </v>
  <v type="int" >      189 </v>
  <v type="int" >       97 </v>
  <v type="int" >      213 </v>
  <v type="int" >      175 </v>
  <v type="int" >       92 </v>
  <v type="int" >      174 </v>
  <v type="int" >       30 </v>
  <v type="int" >      185 </v>
  <v type="int" >      103 </v>
  <v type="int" >      139 </v>
  <v type="int" >       24 </v>
  <v type="int" >       52 </v>
  <v type="int" >      127 </v>
  <v type="int" >      200 </v>
  <v type="int" >      164 </v>
  <v type="int" >       35 </v>
  <v type="int" >      179 </v>
  <v type="int" >      261 </v>
  <v type="int" >      243 </v>
  <v type="int" >      118 </v>
  <v type="int" >       58 </v>
  <v type="int" >      168 </v>
  <v type="int" >      137 </v>
  <v type="int" >      265 </v>
  <v type="int" >      281 </v>
  <v type="int" >       81 </v>
  <v type="int" >      275 </v>
  <v type="int" >      215 </v>
  <v type="int" >      214 </v>
  <v type="int" >      135 </v>
  <v type="int" >       98 </v>
  <v type="int" >      226 </v>
  <v type="int" >       72 </v>
  <v type="int" >      159 </v>
  <v type="int" >      187 </v>
  <v type="int" >       28 </v>
  <v type="int" >      242 </v>
  <v type="int" >      178 </v>
  <v type="int" >      220 </v>
  <v type="int" >      109 </v>
  <v type="int" >      210 </v>
  <v type="int" >      101 </v>
  <v type="int" >      130 </v>
  <v type="int" >      171 </v>
  <v type="int" >       20 </v>
  <v type="int" >       47 </v>
  <v type="int" >      258 </v>
  <v type="int" >      207 </v>
  <v type="int" >      216 </v>
  <v type="int" >       86 </v>
  <v type="int" >       25 </v>
  <v type="int" >       73 </v>
  <v type="int" >       12 </v>
  <v type="int" >      116 </v>
  <v type="int" >      272 </v>
  <v type="int" >      172 </v>
  <v type="int" >      219 </v>
  <v type="int" >      279 </v>
  <v type="int" >      206 </v>
  <v type="int" >       84 </v>
  <v type="int" >       62 </v>
  <v type="int" >      268 </v>
  <v type="int" >      105 </v>
  <v type="int" >        2 </v>
  <v type="int" >      280 </v>
  <v type="int" >      120 </v>
  <v type="int" >      286 </v>
  <v type="int" >      124 </v>
  <v type="int" >       29 </v>
  <v type="int" >      266 </v>
  <v type="int" >      191 </v>
  <v type="int" >      150 </v>
  <v type="int" >      255 </v>
  <v type="int" >        7 </v>
  <v type="int" >      165 </v>
  <v type="int" >      190 </v>
  <v type="int" >      248 </v>
  <v type="int" >       38 </v>
  <v type="int" >       13 </v>
  <v type="int" >      247 </v>
  <v type="int" >       18 </v>
  <v type="int" >      161 </v>
  <v type="int" >      264 </v>
  <v type="int" >      288 </v>
  <v type="int" >      202 </v>
  <v type="int" >       45 </v>
  <v type="int" >       55 </v>
  <v type="int" >       67 </v>
  <v type="int" >       16 </v>
  <v type="int" >      270 </v>
  <v type="int" >       64 </v>
  <v type="int" >      173 </v>
  <v type="int" >       17 </v>
  <v type="int" >      259 </v>
  <v type="int" >      134 </v>
  <v type="int" >       39 </v>
  <v type="int" >        6 </v>
  <v type="int" >      222 </v>
  <v type="int" >      283 </v>
  <v type="int" >      110 </v>
  <v type="int" >      253 </v>
  <v type="int" >       88 </v>
  <v type="int" >      181 </v>
  <v type="int" >       36 </v>
  <v type="int" >      204 </v>
  <v type="int" >      158 </v>
  <v type="int" >      160 </v>
  <v type="int" >      143 </v>
  <v type="int" >       74 </v>
  <v type="int" >       82 </v>
  <v type="int" >      263 </v>
  <v type="int" >       23 </v>
  <v type="int" >      218 </v>
  <v type="int" >      241 </v>
  <v type="int" >       80 </v>
  <v type="int" >      131 </v>
  <v type="int" >      238 </v>
  <v type="int" >      257 </v>
  <v type="int" >      201 </v>
  <v type="int" >      113 </v>
  <v type="int" >      232 </v>
  <v type="int" >       69 </v>
  <v type="int" >      249 </v>
  <v type="int" >      235 </v>
  <v type="int" >      149 </v>
  <v type="int" >      197 </v>
  <v type="int" >        3 </v>
  <v type="int" >      112 </v>
  <v type="int" >      254 </v>
  <v type="int" >      224 </v>
  <v type="int" >      132 </v>
  <v type="int" >      188 </v>
  <v type="int" >       57 </v>
  <v type="int" >        4 </v>
  <v type="int" >       49 </v>
  <v type="int" >      138 </v>
  <v type="int" >       66 </v>
  <v type="int" >       33 </v>
  <v type="int" >      184 </v>
  <v type="int" >      236 </v>
  <v type="int" >      111 </v>
  <v type="int" >      223 </v>
  <v type="int" >      106 </v>
  <v type="int" >      157 </v>
  <v type="int" >       21 </v>
  <v type="int" >      230 </v>
  <v type="int" >      234 </v>
  <v type="int" >       75 </v>
  <v type="int" >       99 </v>
  <v type="int" >      221 </v>
  <v type="int" >      269 </v>
  <v type="int" >      244 </v>
  <v type="int" >      237 </v>
  <v type="int" >      199 </v>
  <v type="int" >      156 </v>
  <v type="int" >      169 </v>
  <v type="int" >        9 </v>
  <v type="int" >       46 </v>
  <v type="int" >      262 </v>
  <v type="int" >      239 </v>
  <v type="int" >      151 </v>
  <v type="int" >       11 </v>
  <v type="int" >      285 </v>
  <v type="int" >      211 </v>
  <v type="int" >       31 </v>
  <v type="int" >       43 </v>
  <v type="int" >       71 </v>
  <v type="int" >       19 </v>
  <v type="int" >       94 </v>
  <v type="int" >       87 </v>
  <v type="int" >      267 </v>
  <v type="int" >      180 </v>
  <v type="int" >       27 </v>
  <v type="int" >      140 </v>
  <v type="int" >       10 </v>
  <v type="int" >      144 </v>
  <v type="int" >      107 </v>
  <v type="int" >      203 </v>
  <v type="int" >       68 </v>
  <v type="int" >       34 </v>
  <v type="int" >      177 </v>
  <v type="int" >      152 </v>
  <v type="int" >      183 </v>
  <v type="int" >      278 </v>
  <v type="int" >      195 </v>
  <v type="int" >       77 </v>
  <v type="int" >       14 </v>
  <v type="int" >      108 </v>
  <v type="int" >      225 </v>
  <v type="int" >      119 </v>
  <v type="int" >       37 </v>
  <v type="int" >      274 </v>
  <v type="int" >      233 </v>
  <v type="int" >       63 </v>
  <v type="int" >      141 </v>
  <v type="int" >       54 </v>
  <v type="int" >      154 </v>
  <v type="int" >      125 </v>
  <v type="int" >      136 </v>
  <v type="int" >      246 </v>
  <v type="int" >       53 </v>
  <v type="int" >       76 </v>
  <v type="int" >      193 </v>
  <v type="int" >      129 </v>
  <v type="int" >      162 </v>
  <v type="int" >      170 </v>
  <v type="int" >      133 </v>
  <v type="int" >       65 </v>
  <v type="int" >      271 </v>
  <v type="int" >       93 </v>
  <v type="int" >       32 </v>
  <v type="int" >       95 </v>
  <v type="int" >       90 </v>
  <v type="int" >       56 </v>
  <v type="int" >       42 </v>
  <v type="int" >       59 </v>
  <v type="int" >        8 </v>
  <v type="int" >      228 </v>
  <v type="int" >       70 </v>
  <v type="int" >      186 </v>
  <v type="int" >      196 </v>
  <v type="int" >      121 </v>
  <v type="int" >      122 </v>
  <v type="int" >       44 </v>
  <v type="int" >       79 </v>
  <v type="int" >      198 </v>
  <v type="int" >      153 </v>
  <v type="int" >      240 </v>
  <v type="int" >      231 </v>
  <v type="int" >       85 </v>
  <v type="int" >      209 </v>
  <v type="int" >      194 </v>
  <v type="int" >       40 </v>
  <v type="int" >       89 </v>
  <v type="int" >      227 </v>
  <v type="int" >       78 </v>
  <v type="int" >      142 </v>
  <v type="int" >       15 </v>
  <v type="int" >      114 </v>
  <v type="int" >      217 </v>
  <v type="int" >      100 </v>
  <v type="int" >      148 </v>
  <v type="int" >       61 </v>
  <v type="int" >      126 </v>
  <v type="int" >      192 </v>
  <v type="int" >       96 </v>
  <v type="int" >      147 </v>
  <v type="int" >      115 </v>
  <v type="int" >       22 </v>
  <v type="int" >       41 </v>
  <v type="int" >      260 </v>
  <v type="int" >      128 </v>
 </varray>
 <kpoints>
  <generation param="Gamma">
   <v type="int" name="divisions">       4        4        1 </v>
   <v name="usershift">      0.00000000       0.00000000       0.00000000 </v>
   <v name="genvec1">      0.25000000       0.00000000       0.00000000 </v>
   <v name="genvec2">      0.00000000       0.25000000       0.00000000 </v>
   <v name="genvec3">      0.00000000       0.00000000       1.00000000 </v>
   <v name="shift">      0.00000000       0.00000000       0.00000000 </v>
  </generation>
  <varray name="kpointlist" >
   <v>       0.00000000       0.00000000       0.00000000 </v>
   <v>       0.25000000       0.00000000       0.00000000 </v>
   <v>       0.50000000       0.00000000       0.00000000 </v>
   <v>       0.00000000       0.25000000       0.00000000 </v>
   <v>       0.25000000       0.25000000       0.00000000 </v>
   <v>       0.50000000       0.25000000       0.00000000 </v>
   <v>      -0.25000000       0.25000000       0.00000000 </v>
   <v>       0.00000000       0.50000000       0.00000000 </v>
   <v>       0.25000000       0.50000000       0.00000000 </v>
   <v>       0.50000000       0.50000000       0.00000000 </v>
  </varray>
  <varray name="weights" >
   <v>       0.06250000 </v>
   <v>       0.12500000 </v>
   <v>       0.06250000 </v>
   <v>       0.12500000 </v>
   <v>       0.12500000 </v>
   <v>       0.12500000 </v>
   <v>       0.12500000 </v>
   <v>       0.06250000 </v>
   <v>       0.12500000 </v>
   <v>       0.06250000 </v>
  </varray>
 </kpoints>
 <parameters>
  <separator name="general" >
   <i type="string" name="SYSTEM">unknown system</i>
   <i type="logical" name="LCOMPAT"> F  </i>
  </separator>
  <separator name="electronic" >
   <i type="string" name="PREC">accura</i>
   <i name="ENMAX">    450.00000000</i>
   <i name="ENAUG">    838.43500000</i>
   <i name="EDIFF">      0.00000100</i>
   <i type="int" name="IALGO">    68</i>
   <i type="int" name="IWAVPR">    11</i>
   <i type="int" name="NBANDS">  1386</i>
   <i name="NELECT">   2297.00000000</i>
   <i type="int" name="TURBO">     0</i>
   <i type="int" name="IRESTART">     0</i>
   <i type="int" name="NREBOOT">     0</i>
   <i type="int" name="NMIN">     0</i>
   <i name="EREF">      0.00000000</i>
   <separator name="electronic smearing" >
    <i type="int" name="ISMEAR">     0</i>
    <i name="SIGMA">      0.15000000</i>
    <i name="KSPACING">      0.50000000</i>
    <i type="logical" name="KGAMMA"> T  </i>
   </separator>
   <separator name="electronic projectors" >
    <i type="logical" name="LREAL"> T  </i>
    <v name="ROPT">     -0.00025000     -0.00025000</v>
    <i type="int" name="LMAXPAW">  -100</i>
    <i type="int" name="LMAXMIX">     2</i>
    <i type="logical" name="NLSPLINE"> F  </i>
   </separator>
   <separator name="electronic startup" >
    <i type="int" name="ISTART">     0</i>
    <i type="int" name="ICHARG">     2</i>
    <i type="int" name="INIWAV">     1</i>
   </separator>
   <separator name="electronic spin" >
    <i type="int" name="ISPIN">     1</i>
    <i type="logical" name="LNONCOLLINEAR"> F  </i>
    <v name="MAGMOM">      1.00000000      1.00000000      1.00000000      1.00000000      1.00000000      1.00000000      1.00000000      1.00000000      1.00000000      1.00000000      1.00000000      1.00000000      1.00000000      1.00000000      1.00000000      1.00000000      1.00000000      1.00000000      1.00000000      1.00000000
      1.00000000      1.00000000      1.00000000      1.00000000      1.00000000      1.00000000      1.00000000      1.00000000      1.00000000      1.00000000      1.00000000      1.00000000      1.00000000      1.00000000      1.00000000      1.00000000      1.00000000      1.00000000      1.00000000      1.00000000
      1.00000000      1.00000000      1.00000000      1.00000000      1.00000000      1.00000000      1.00000000      1.00000000      1.00000000      1.00000000      1.00000000      1.00000000      1.00000000      1.00000000      1.00000000      1.00000000      1.00000000      1.00000000      1.00000000      1.00000000
      1.00000000      1.00000000      1.00000000      1.00000000      1.00000000      1.00000000      1.00000000      1.00000000      1.00000000      1.00000000      1.00000000      1.00000000      1.00000000      1.00000000      1.00000000      1.00000000      1.00000000      1.00000000      1.00000000      1.00000000
      1.00000000      1.00000000      1.00000000      1.00000000      1.00000000      1.00000000      1.00000000      1.00000000      1.00000000      1.00000000      1.00000000      1.00000000      1.00000000      1.00000000      1.00000000      1.00000000      1.00000000      1.00000000      1.00000000      1.00000000
      1.00000000      1.00000000      1.00000000      1.00000000      1.00000000      1.00000000      1.00000000      1.00000000      1.00000000      1.00000000      1.00000000      1.00000000      1.00000000      1.00000000      1.00000000      1.00000000      1.00000000      1.00000000      1.00000000      1.00000000
      1.00000000      1.00000000      1.00000000      1.00000000      1.00000000      1.00000000      1.00000000      1.00000000      1.00000000      1.00000000      1.00000000      1.00000000      1.00000000      1.00000000      1.00000000      1.00000000      1.00000000      1.00000000      1.00000000      1.00000000
      1.00000000      1.00000000      1.00000000      1.00000000      1.00000000      1.00000000      1.00000000      1.00000000      1.00000000      1.00000000      1.00000000      1.00000000      1.00000000      1.00000000      1.00000000      1.00000000      1.00000000      1.00000000      1.00000000      1.00000000
      1.00000000      1.00000000      1.00000000      1.00000000      1.00000000      1.00000000      1.00000000      1.00000000      1.00000000      1.00000000      1.00000000      1.00000000      1.00000000      1.00000000      1.00000000      1.00000000      1.00000000      1.00000000      1.00000000      1.00000000
      1.00000000      1.00000000      1.00000000      1.00000000      1.00000000      1.00000000      1.00000000      1.00000000      1.00000000      1.00000000      1.00000000      1.00000000      1.00000000      1.00000000      1.00000000      1.00000000      1.00000000      1.00000000      1.00000000      1.00000000
      1.00000000      1.00000000      1.00000000      1.00000000      1.00000000      1.00000000      1.00000000      1.00000000      1.00000000      1.00000000      1.00000000      1.00000000      1.00000000      1.00000000      1.00000000      1.00000000      1.00000000      1.00000000      1.00000000      1.00000000
      1.00000000      1.00000000      1.00000000      1.00000000      1.00000000      1.00000000      1.00000000      1.00000000      1.00000000      1.00000000      1.00000000      1.00000000      1.00000000      1.00000000      1.00000000      1.00000000      1.00000000      1.00000000      1.00000000      1.00000000
      1.00000000      1.00000000      1.00000000      1.00000000      1.00000000      1.00000000      1.00000000      1.00000000      1.00000000      1.00000000      1.00000000      1.00000000      1.00000000      1.00000000      1.00000000      1.00000000      1.00000000      1.00000000      1.00000000      1.00000000
      1.00000000      1.00000000      1.00000000      1.00000000      1.00000000      1.00000000      1.00000000      1.00000000      1.00000000      1.00000000      1.00000000      1.00000000      1.00000000      1.00000000      1.00000000      1.00000000      1.00000000      1.00000000      1.00000000      1.00000000
      1.00000000      1.00000000      1.00000000      1.00000000      1.00000000      1.00000000      1.00000000      1.00000000</v>
    <i name="NUPDOWN">     -1.00000000</i>
    <i type="logical" name="LSORBIT"> F  </i>
    <v name="SAXIS">      0.00000000      0.00000000      1.00000000</v>
    <i type="logical" name="LSPIRAL"> F  </i>
    <v name="QSPIRAL">      0.00000000      0.00000000      0.00000000</v>
    <i type="logical" name="LZEROZ"> F  </i>
   </separator>
   <separator name="electronic exchange-correlation" >
    <i type="logical" name="LASPH"> F  </i>
    <i type="logical" name="LMETAGGA"> F  </i>
   </separator>
   <separator name="electronic convergence" >
    <i type="int" name="NELM">   100</i>
    <i type="int" name="NELMDL">     0</i>
    <i type="int" name="NELMIN">     4</i>
    <i name="ENINI">    450.00000000</i>
    <separator name="electronic convergence detail" >
     <i type="logical" name="LDIAG"> T  </i>
     <i type="logical" name="LSUBROT"> F  </i>
     <i name="WEIMIN">      0.00100000</i>
     <i name="EBREAK">      0.00000000</i>
     <i name="DEPER">      0.30000000</i>
     <i type="int" name="NRMM">     4</i>
     <i name="TIME">      0.40000000</i>
    </separator>
   </separator>
   <separator name="electronic mixer" >
    <i name="AMIX">      0.40000000</i>
    <i name="BMIX">      1.00000000</i>
    <i name="AMIN">      0.10000000</i>
    <i name="AMIX_MAG">      1.60000000</i>
    <i name="BMIX_MAG">      1.00000000</i>
    <separator name="electronic mixer details" >
     <i type="int" name="IMIX">     4</i>
     <i type="logical" name="MIXFIRST"> F  </i>
     <i type="int" name="MAXMIX">   -45</i>
     <i name="WC">    100.00000000</i>
     <i type="int" name="INIMIX">     1</i>
     <i type="int" name="MIXPRE">     1</i>
     <i type="int" name="MREMOVE">     5</i>
    </separator>
   </separator>
   <separator name="electronic dipolcorrection" >
    <i type="logical" name="LDIPOL"> F  </i>
    <i type="logical" name="LMONO"> F  </i>
    <i type="int" name="IDIPOL">     0</i>
    <i name="EPSILON">      1.00000000</i>
    <v name="DIPOL">   -100.00000000   -100.00000000   -100.00000000</v>
    <i name="EFIELD">      0.00000000</i>
   </separator>
  </separator>
  <separator name="grids" >
   <i type="int" name="NGX">    70</i>
   <i type="int" name="NGY">    60</i>
   <i type="int" name="NGZ">   320</i>
   <i type="int" name="NGXF">   140</i>
   <i type="int" name="NGYF">   120</i>
   <i type="int" name="NGZF">   640</i>
   <i type="logical" name="ADDGRID"> F  </i>
  </separator>
  <separator name="ionic" >
   <i type="int" name="NSW">     5</i>
   <i type="int" name="IBRION">     2</i>
   <i type="int" name="MDALGO">     0</i>
   <i type="int" name="ISIF">     2</i>
   <i name="PSTRESS">      0.00000000</i>
   <i name="EDIFFG">      0.00001000</i>
   <i type="int" name="NFREE">     1</i>
   <i name="POTIM">      0.25000000</i>
   <i name="SMASS">     -3.00000000</i>
   <i name="SCALEE">      1.00000000</i>
  </separator>
  <separator name="ionic md" >
   <i name="TEBEG">      0.00010000</i>
   <i name="TEEND">      0.00010000</i>
   <i type="int" name="NBLOCK">     1</i>
   <i type="int" name="KBLOCK">     5</i>
   <i type="int" name="NPACO">   256</i>
   <i name="APACO">     16.00000000</i>
  </separator>
  <separator name="symmetry" >
   <i type="int" name="ISYM">     2</i>
   <i name="SYMPREC">      0.00001000</i>
  </separator>
  <separator name="dos" >
   <i type="int" name="LORBIT">     0</i>
   <v name="RWIGS">     -1.00000000     -1.00000000</v>
   <i type="int" name="NEDOS">   301</i>
   <i name="EMIN">     10.00000000</i>
   <i name="EMAX">    -10.00000000</i>
   <i name="EFERMI">      0.00000000</i>
  </separator>
  <separator name="writing" >
   <i type="int" name="NWRITE">     2</i>
   <i type="logical" name="LWAVE"> F  </i>
   <i type="logical" name="LDOWNSAMPLE"> F  </i>
   <i type="logical" name="LCHARG"> F  </i>
   <i type="logical" name="LPARD"> F  </i>
   <i type="logical" name="LVTOT"> F  </i>
   <i type="logical" name="LVHAR"> F  </i>
   <i type="logical" name="LELF"> F  </i>
   <i type="logical" name="LOPTICS"> F  </i>
   <v name="STM">      0.00000000      0.00000000      0.00000000      0.00000000      0.00000000      0.00000000      0.00000000</v>
  </separator>
  <separator name="performance" >
   <i type="int" name="NPAR">    14</i>
   <i type="int" name="NSIM">     4</i>
   <i type="int" name="NBLK">    -1</i>
   <i type="logical" name="LPLANE"> T  </i>
   <i type="logical" name="LSCALAPACK"> T  </i>
   <i type="logical" name="LSCAAWARE"> T  </i>
   <i type="logical" name="LSCALU"> F  </i>
   <i type="logical" name="LASYNC"> F  </i>
   <i type="logical" name="LORBITALREAL"> F  </i>
  </separator>
  <separator name="miscellaneous" >
   <i type="int" name="IDIOT">     3</i>
   <i type="int" name="ISPECIAL">     0</i>
   <i type="logical" name="LMUSIC"> F  </i>
   <v name="POMASS">     55.84700000     54.93800000</v>
   <v name="DARWINR">      0.00000000      0.00000000</v>
   <v name="DARWINV">      1.00000000      1.00000000</v>
   <i type="logical" name="LCORR"> T  </i>
  </separator>
  <i type="logical" name="GGA_COMPAT"> T  </i>
  <i type="logical" name="LBERRY"> F  </i>
  <i type="int" name="ICORELEVEL">     0</i>
  <i type="logical" name="LDAU"> F  </i>
  <i type="int" name="I_CONSTRAINED_M">     0</i>
  <separator name="electronic exchange-correlation" >
   <i type="string" name="GGA">--</i>
   <i type="int" name="VOSKOWN">     0</i>
   <i type="logical" name="LHFCALC"> F  </i>
   <i type="string" name="PRECFOCK"></i>
   <i type="logical" name="LSYMGRAD"> F  </i>
   <i type="logical" name="LHFONE"> F  </i>
   <i type="logical" name="LRHFCALC"> F  </i>
   <i type="logical" name="LTHOMAS"> F  </i>
   <i type="logical" name="LMODELHF"> F  </i>
   <i name="ENCUT4O">     -1.00000000</i>
   <i type="int" name="EXXOEP">     0</i>
   <i type="int" name="FOURORBIT">     0</i>
   <i name="AEXX">      0.00000000</i>
   <i name="HFALPHA">      0.00000000</i>
   <i name="MCALPHA">      0.00000000</i>
   <i name="ALDAX">      1.00000000</i>
   <i name="AGGAX">      1.00000000</i>
   <i name="ALDAC">      1.00000000</i>
   <i name="AGGAC">      1.00000000</i>
   <i type="int" name="NKREDX">     1</i>
   <i type="int" name="NKREDY">     1</i>
   <i type="int" name="NKREDZ">     1</i>
   <i type="logical" name="SHIFTRED"> F  </i>
   <i type="logical" name="ODDONLY"> F  </i>
   <i type="logical" name="EVENONLY"> F  </i>
   <i type="int" name="LMAXFOCK">     0</i>
   <i type="int" name="NMAXFOCKAE">     0</i>
   <i type="logical" name="LFOCKAEDFT"> F  </i>
   <i name="HFSCREEN">      0.00000000</i>
   <i name="HFSCREENC">      0.00000000</i>
   <i type="int" name="NBANDSGWLOW">     0</i>
  </separator>
  <separator name="vdW DFT" >
   <i type="logical" name="LUSE_VDW"> F  </i>
   <i name="Zab_VDW">     -0.84910000</i>
   <i name="PARAM1">      0.12340000</i>
   <i name="PARAM2">      1.00000000</i>
   <i name="PARAM3">      0.00000000</i>
  </separator>
  <separator name="model GW" >
   <i type="int" name="MODEL_GW">     0</i>
   <i name="MODEL_EPS0">      7.68123389</i>
   <i name="MODEL_ALPHA">      1.00000000</i>
  </separator>
  <separator name="linear response parameters" >
   <i type="logical" name="LEPSILON"> F  </i>
   <i type="logical" name="LRPA"> F  </i>
   <i type="logical" name="LNABLA"> F  </i>
   <i type="logical" name="LVEL"> F  </i>
   <i type="int" name="KINTER">     0</i>
   <i name="CSHIFT">      0.10000000</i>
   <i name="OMEGAMAX">     -1.00000000</i>
   <i name="DEG_THRESHOLD">      0.00200000</i>
   <i name="RTIME">     -0.10000000</i>
   <i name="WPLASMAI">      0.00000000</i>
   <v name="DFIELD">      0.00000000      0.00000000      0.00000000</v>
   <v name="WPLASMA">      0.00000000      0.00000000      0.00000000      0.00000000      0.00000000      0.00000000      0.00000000      0.00000000      0.00000000</v>
  </separator>
  <separator name="orbital magnetization" >
   <i type="logical" name="NUCIND"> F  </i>
   <v name="MAGPOS">      0.00000000      0.00000000      0.00000000</v>
   <i type="logical" name="LNICSALL"> T  </i>
   <i type="logical" name="ORBITALMAG"> F  </i>
   <i type="logical" name="LMAGBLOCH"> F  </i>
   <i type="logical" name="LCHIMAG"> F  </i>
   <i type="logical" name="LGAUGE"> T  </i>
   <i type="int" name="MAGATOM">     0</i>
   <v name="MAGDIPOL">      0.00000000      0.00000000      0.00000000</v>
   <v name="AVECCONST">      0.00000000      0.00000000      0.00000000</v>
  </separator>
  <separator name="response functions" >
   <i type="logical" name="LADDER"> F  </i>
   <i type="logical" name="LRPAFORCE"> F  </i>
   <i type="logical" name="LFXC"> F  </i>
   <i type="logical" name="LHARTREE"> T  </i>
   <i type="int" name="IBSE">     0</i>
   <v type="int" name="KPOINT">    -1     0     0     0</v>
   <i type="logical" name="LTCTE"> F  </i>
   <i type="logical" name="LTETE"> F  </i>
   <i type="logical" name="LTRIPLET"> F  </i>
   <i type="logical" name="LFXCEPS"> F  </i>
   <i type="logical" name="LFXHEG"> F  </i>
   <i type="int" name="NATURALO">     2</i>
   <i type="logical" name="L2ORDER"> F  </i>
   <i type="logical" name="LMP2LT"> F  </i>
   <i type="logical" name="LUSEW"> F  </i>
   <i name="ENCUTGW">     -2.00000000</i>
   <i name="ENCUTGWSOFT">     -2.00000000</i>
   <i name="ENCUTLF">     -1.00000000</i>
   <i type="int" name="LMAXMP2">    -1</i>
   <i name="SCISSOR">      0.00000000</i>
   <i type="int" name="NOMEGA">     0</i>
   <i type="int" name="NOMEGAR">     0</i>
   <i type="int" name="NBANDSGW">    -1</i>
   <i type="int" name="NBANDSO">    -1</i>
   <i type="int" name="NBANDSV">    -1</i>
   <i type="int" name="NELM">   100</i>
   <i type="int" name="NELMHF">     1</i>
   <i type="int" name="DIM">     3</i>
   <i type="int" name="ANTIRES">     0</i>
   <i name="OMEGAMAX">    -30.00000000</i>
   <i name="OMEGAMIN">    -30.00000000</i>
   <i name="OMEGATL">   -200.00000000</i>
   <i type="int" name="OMEGAGRID">   140</i>
   <i name="CSHIFT">     -0.10000000</i>
   <i type="logical" name="SELFENERGY"> F  </i>
   <i type="logical" name="LSPECTRAL"> F  </i>
   <i type="logical" name="LSPECTRALGW"> F  </i>
   <i type="logical" name="LSINGLES"> F  </i>
   <i type="logical" name="LFERMIGW"> F  </i>
   <i type="logical" name="ODDONLYGW"> F  </i>
   <i type="logical" name="EVENONLYGW"> F  </i>
   <i type="int" name="NKREDLFX">     1</i>
   <i type="int" name="NKREDLFY">     1</i>
   <i type="int" name="NKREDLFZ">     1</i>
   <i type="int" name="MAXMEM">  2800</i>
   <i type="int" name="TELESCOPE">     0</i>
   <i type="int" name="TAUPAR">     1</i>
   <i type="int" name="OMEGAPAR">    -1</i>
   <i name="LAMBDA">      1.00000000</i>
  </separator>
  <separator name="External order field" >
   <i name="OFIELD_KAPPA">      0.00000000</i>
   <v name="OFIELD_K">      0.00000000      0.00000000      0.00000000</v>
   <i name="OFIELD_Q6_NEAR">      0.00000000</i>
   <i name="OFIELD_Q6_FAR">      0.00000000</i>
   <i name="OFIELD_A">      0.00000000</i>
  </separator>
 </parameters>
 <atominfo>
  <atoms>     288 </atoms>
  <types>       2 </types>
  <array name="atoms" >
   <dimension dim="1">ion</dimension>
   <field type="string">element</field>
   <field type="int">atomtype</field>
   <set>
    <rc><c>Fe</c><c>   1</c></rc>
    <rc><c>Fe</c><c>   1</c></rc>
    <rc><c>Fe</c><c>   1</c></rc>
    <rc><c>Fe</c><c>   1</c></rc>
    <rc><c>Fe</c><c>   1</c></rc>
    <rc><c>Fe</c><c>   1</c></rc>
    <rc><c>Fe</c><c>   1</c></rc>
    <rc><c>Fe</c><c>   1</c></rc>
    <rc><c>Fe</c><c>   1</c></rc>
    <rc><c>Fe</c><c>   1</c></rc>
    <rc><c>Fe</c><c>   1</c></rc>
    <rc><c>Fe</c><c>   1</c></rc>
    <rc><c>Fe</c><c>   1</c></rc>
    <rc><c>Fe</c><c>   1</c></rc>
    <rc><c>Fe</c><c>   1</c></rc>
    <rc><c>Fe</c><c>   1</c></rc>
    <rc><c>Fe</c><c>   1</c></rc>
    <rc><c>Fe</c><c>   1</c></rc>
    <rc><c>Fe</c><c>   1</c></rc>
    <rc><c>Fe</c><c>   1</c></rc>
    <rc><c>Fe</c><c>   1</c></rc>
    <rc><c>Fe</c><c>   1</c></rc>
    <rc><c>Fe</c><c>   1</c></rc>
    <rc><c>Fe</c><c>   1</c></rc>
    <rc><c>Fe</c><c>   1</c></rc>
    <rc><c>Fe</c><c>   1</c></rc>
    <rc><c>Fe</c><c>   1</c></rc>
    <rc><c>Fe</c><c>   1</c></rc>
    <rc><c>Fe</c><c>   1</c></rc>
    <rc><c>Fe</c><c>   1</c></rc>
    <rc><c>Fe</c><c>   1</c></rc>
    <rc><c>Fe</c><c>   1</c></rc>
    <rc><c>Fe</c><c>   1</c></rc>
    <rc><c>Fe</c><c>   1</c></rc>
    <rc><c>Fe</c><c>   1</c></rc>
    <rc><c>Fe</c><c>   1</c></rc>
    <rc><c>Fe</c><c>   1</c></rc>
    <rc><c>Fe</c><c>   1</c></rc>
    <rc><c>Fe</c><c>   1</c></rc>
    <rc><c>Fe</c><c>   1</c></rc>
    <rc><c>Fe</c><c>   1</c></rc>
    <rc><c>Fe</c><c>   1</c></rc>
    <rc><c>Fe</c><c>   1</c></rc>
    <rc><c>Fe</c><c>   1</c></rc>
    <rc><c>Fe</c><c>   1</c></rc>
    <rc><c>Fe</c><c>   1</c></rc>
    <rc><c>Fe</c><c>   1</c></rc>
    <rc><c>Fe</c><c>   1</c></rc>
    <rc><c>Fe</c><c>   1</c></rc>
    <rc><c>Fe</c><c>   1</c></rc>
    <rc><c>Fe</c><c>   1</c></rc>
    <rc><c>Fe</c><c>   1</c></rc>
    <rc><c>Fe</c><c>   1</c></rc>
    <rc><c>Fe</c><c>   1</c></rc>
    <rc><c>Fe</c><c>   1</c></rc>
    <rc><c>Fe</c><c>   1</c></rc>
    <rc><c>Fe</c><c>   1</c></rc>
    <rc><c>Fe</c><c>   1</c></rc>
    <rc><c>Fe</c><c>   1</c></rc>
    <rc><c>Fe</c><c>   1</c></rc>
    <rc><c>Fe</c><c>   1</c></rc>
    <rc><c>Fe</c><c>   1</c></rc>
    <rc><c>Fe</c><c>   1</c></rc>
    <rc><c>Fe</c><c>   1</c></rc>
    <rc><c>Fe</c><c>   1</c></rc>
    <rc><c>Fe</c><c>   1</c></rc>
    <rc><c>Fe</c><c>   1</c></rc>
    <rc><c>Fe</c><c>   1</c></rc>
    <rc><c>Fe</c><c>   1</c></rc>
    <rc><c>Fe</c><c>   1</c></rc>
    <rc><c>Fe</c><c>   1</c></rc>
    <rc><c>Fe</c><c>   1</c></rc>
    <rc><c>Fe</c><c>   1</c></rc>
    <rc><c>Fe</c><c>   1</c></rc>
    <rc><c>Fe</c><c>   1</c></rc>
    <rc><c>Fe</c><c>   1</c></rc>
    <rc><c>Fe</c><c>   1</c></rc>
    <rc><c>Fe</c><c>   1</c></rc>
    <rc><c>Fe</c><c>   1</c></rc>
    <rc><c>Fe</c><c>   1</c></rc>
    <rc><c>Fe</c><c>   1</c></rc>
    <rc><c>Fe</c><c>   1</c></rc>
    <rc><c>Fe</c><c>   1</c></rc>
    <rc><c>Fe</c><c>   1</c></rc>
    <rc><c>Fe</c><c>   1</c></rc>
    <rc><c>Fe</c><c>   1</c></rc>
    <rc><c>Fe</c><c>   1</c></rc>
    <rc><c>Fe</c><c>   1</c></rc>
    <rc><c>Fe</c><c>   1</c></rc>
    <rc><c>Fe</c><c>   1</c></rc>
    <rc><c>Fe</c><c>   1</c></rc>
    <rc><c>Fe</c><c>   1</c></rc>
    <rc><c>Fe</c><c>   1</c></rc>
    <rc><c>Fe</c><c>   1</c></rc>
    <rc><c>Fe</c><c>   1</c></rc>
    <rc><c>Fe</c><c>   1</c></rc>
    <rc><c>Fe</c><c>   1</c></rc>
    <rc><c>Fe</c><c>   1</c></rc>
    <rc><c>Fe</c><c>   1</c></rc>
    <rc><c>Fe</c><c>   1</c></rc>
    <rc><c>Fe</c><c>   1</c></rc>
    <rc><c>Fe</c><c>   1</c></rc>
    <rc><c>Fe</c><c>   1</c></rc>
    <rc><c>Fe</c><c>   1</c></rc>
    <rc><c>Fe</c><c>   1</c></rc>
    <rc><c>Fe</c><c>   1</c></rc>
    <rc><c>Fe</c><c>   1</c></rc>
    <rc><c>Fe</c><c>   1</c></rc>
    <rc><c>Fe</c><c>   1</c></rc>
    <rc><c>Fe</c><c>   1</c></rc>
    <rc><c>Fe</c><c>   1</c></rc>
    <rc><c>Fe</c><c>   1</c></rc>
    <rc><c>Fe</c><c>   1</c></rc>
    <rc><c>Fe</c><c>   1</c></rc>
    <rc><c>Fe</c><c>   1</c></rc>
    <rc><c>Fe</c><c>   1</c></rc>
    <rc><c>Fe</c><c>   1</c></rc>
    <rc><c>Fe</c><c>   1</c></rc>
    <rc><c>Fe</c><c>   1</c></rc>
    <rc><c>Fe</c><c>   1</c></rc>
    <rc><c>Fe</c><c>   1</c></rc>
    <rc><c>Fe</c><c>   1</c></rc>
    <rc><c>Fe</c><c>   1</c></rc>
    <rc><c>Fe</c><c>   1</c></rc>
    <rc><c>Fe</c><c>   1</c></rc>
    <rc><c>Fe</c><c>   1</c></rc>
    <rc><c>Fe</c><c>   1</c></rc>
    <rc><c>Fe</c><c>   1</c></rc>
    <rc><c>Fe</c><c>   1</c></rc>
    <rc><c>Fe</c><c>   1</c></rc>
    <rc><c>Fe</c><c>   1</c></rc>
    <rc><c>Fe</c><c>   1</c></rc>
    <rc><c>Fe</c><c>   1</c></rc>
    <rc><c>Fe</c><c>   1</c></rc>
    <rc><c>Fe</c><c>   1</c></rc>
    <rc><c>Fe</c><c>   1</c></rc>
    <rc><c>Fe</c><c>   1</c></rc>
    <rc><c>Fe</c><c>   1</c></rc>
    <rc><c>Fe</c><c>   1</c></rc>
    <rc><c>Fe</c><c>   1</c></rc>
    <rc><c>Fe</c><c>   1</c></rc>
    <rc><c>Fe</c><c>   1</c></rc>
    <rc><c>Fe</c><c>   1</c></rc>
    <rc><c>Fe</c><c>   1</c></rc>
    <rc><c>Fe</c><c>   1</c></rc>
    <rc><c>Fe</c><c>   1</c></rc>
    <rc><c>Fe</c><c>   1</c></rc>
    <rc><c>Fe</c><c>   1</c></rc>
    <rc><c>Fe</c><c>   1</c></rc>
    <rc><c>Fe</c><c>   1</c></rc>
    <rc><c>Fe</c><c>   1</c></rc>
    <rc><c>Fe</c><c>   1</c></rc>
    <rc><c>Fe</c><c>   1</c></rc>
    <rc><c>Fe</c><c>   1</c></rc>
    <rc><c>Fe</c><c>   1</c></rc>
    <rc><c>Fe</c><c>   1</c></rc>
    <rc><c>Fe</c><c>   1</c></rc>
    <rc><c>Fe</c><c>   1</c></rc>
    <rc><c>Fe</c><c>   1</c></rc>
    <rc><c>Fe</c><c>   1</c></rc>
    <rc><c>Fe</c><c>   1</c></rc>
    <rc><c>Fe</c><c>   1</c></rc>
    <rc><c>Fe</c><c>   1</c></rc>
    <rc><c>Fe</c><c>   1</c></rc>
    <rc><c>Fe</c><c>   1</c></rc>
    <rc><c>Fe</c><c>   1</c></rc>
    <rc><c>Fe</c><c>   1</c></rc>
    <rc><c>Fe</c><c>   1</c></rc>
    <rc><c>Fe</c><c>   1</c></rc>
    <rc><c>Fe</c><c>   1</c></rc>
    <rc><c>Fe</c><c>   1</c></rc>
    <rc><c>Fe</c><c>   1</c></rc>
    <rc><c>Fe</c><c>   1</c></rc>
    <rc><c>Fe</c><c>   1</c></rc>
    <rc><c>Fe</c><c>   1</c></rc>
    <rc><c>Fe</c><c>   1</c></rc>
    <rc><c>Fe</c><c>   1</c></rc>
    <rc><c>Fe</c><c>   1</c></rc>
    <rc><c>Fe</c><c>   1</c></rc>
    <rc><c>Fe</c><c>   1</c></rc>
    <rc><c>Fe</c><c>   1</c></rc>
    <rc><c>Fe</c><c>   1</c></rc>
    <rc><c>Fe</c><c>   1</c></rc>
    <rc><c>Fe</c><c>   1</c></rc>
    <rc><c>Fe</c><c>   1</c></rc>
    <rc><c>Fe</c><c>   1</c></rc>
    <rc><c>Fe</c><c>   1</c></rc>
    <rc><c>Fe</c><c>   1</c></rc>
    <rc><c>Fe</c><c>   1</c></rc>
    <rc><c>Fe</c><c>   1</c></rc>
    <rc><c>Fe</c><c>   1</c></rc>
    <rc><c>Fe</c><c>   1</c></rc>
    <rc><c>Fe</c><c>   1</c></rc>
    <rc><c>Fe</c><c>   1</c></rc>
    <rc><c>Fe</c><c>   1</c></rc>
    <rc><c>Fe</c><c>   1</c></rc>
    <rc><c>Fe</c><c>   1</c></rc>
    <rc><c>Fe</c><c>   1</c></rc>
    <rc><c>Fe</c><c>   1</c></rc>
    <rc><c>Fe</c><c>   1</c></rc>
    <rc><c>Fe</c><c>   1</c></rc>
    <rc><c>Fe</c><c>   1</c></rc>
    <rc><c>Fe</c><c>   1</c></rc>
    <rc><c>Fe</c><c>   1</c></rc>
    <rc><c>Fe</c><c>   1</c></rc>
    <rc><c>Fe</c><c>   1</c></rc>
    <rc><c>Fe</c><c>   1</c></rc>
    <rc><c>Fe</c><c>   1</c></rc>
    <rc><c>Fe</c><c>   1</c></rc>
    <rc><c>Fe</c><c>   1</c></rc>
    <rc><c>Fe</c><c>   1</c></rc>
    <rc><c>Fe</c><c>   1</c></rc>
    <rc><c>Fe</c><c>   1</c></rc>
    <rc><c>Fe</c><c>   1</c></rc>
    <rc><c>Fe</c><c>   1</c></rc>
    <rc><c>Fe</c><c>   1</c></rc>
    <rc><c>Fe</c><c>   1</c></rc>
    <rc><c>Fe</c><c>   1</c></rc>
    <rc><c>Fe</c><c>   1</c></rc>
    <rc><c>Fe</c><c>   1</c></rc>
    <rc><c>Fe</c><c>   1</c></rc>
    <rc><c>Fe</c><c>   1</c></rc>
    <rc><c>Fe</c><c>   1</c></rc>
    <rc><c>Fe</c><c>   1</c></rc>
    <rc><c>Fe</c><c>   1</c></rc>
    <rc><c>Fe</c><c>   1</c></rc>
    <rc><c>Fe</c><c>   1</c></rc>
    <rc><c>Fe</c><c>   1</c></rc>
    <rc><c>Fe</c><c>   1</c></rc>
    <rc><c>Fe</c><c>   1</c></rc>
    <rc><c>Fe</c><c>   1</c></rc>
    <rc><c>Fe</c><c>   1</c></rc>
    <rc><c>Fe</c><c>   1</c></rc>
    <rc><c>Fe</c><c>   1</c></rc>
    <rc><c>Fe</c><c>   1</c></rc>
    <rc><c>Fe</c><c>   1</c></rc>
    <rc><c>Fe</c><c>   1</c></rc>
    <rc><c>Fe</c><c>   1</c></rc>
    <rc><c>Fe</c><c>   1</c></rc>
    <rc><c>Fe</c><c>   1</c></rc>
    <rc><c>Fe</c><c>   1</c></rc>
    <rc><c>Fe</c><c>   1</c></rc>
    <rc><c>Fe</c><c>   1</c></rc>
    <rc><c>Fe</c><c>   1</c></rc>
    <rc><c>Fe</c><c>   1</c></rc>
    <rc><c>Fe</c><c>   1</c></rc>
    <rc><c>Fe</c><c>   1</c></rc>
    <rc><c>Fe</c><c>   1</c></rc>
    <rc><c>Fe</c><c>   1</c></rc>
    <rc><c>Fe</c><c>   1</c></rc>
    <rc><c>Fe</c><c>   1</c></rc>
    <rc><c>Fe</c><c>   1</c></rc>
    <rc><c>Fe</c><c>   1</c></rc>
    <rc><c>Fe</c><c>   1</c></rc>
    <rc><c>Fe</c><c>   1</c></rc>
    <rc><c>Fe</c><c>   1</c></rc>
    <rc><c>Fe</c><c>   1</c></rc>
    <rc><c>Fe</c><c>   1</c></rc>
    <rc><c>Fe</c><c>   1</c></rc>
    <rc><c>Fe</c><c>   1</c></rc>
    <rc><c>Fe</c><c>   1</c></rc>
    <rc><c>Fe</c><c>   1</c></rc>
    <rc><c>Fe</c><c>   1</c></rc>
    <rc><c>Fe</c><c>   1</c></rc>
    <rc><c>Fe</c><c>   1</c></rc>
    <rc><c>Fe</c><c>   1</c></rc>
    <rc><c>Fe</c><c>   1</c></rc>
    <rc><c>Fe</c><c>   1</c></rc>
    <rc><c>Fe</c><c>   1</c></rc>
    <rc><c>Fe</c><c>   1</c></rc>
    <rc><c>Fe</c><c>   1</c></rc>
    <rc><c>Fe</c><c>   1</c></rc>
    <rc><c>Fe</c><c>   1</c></rc>
    <rc><c>Fe</c><c>   1</c></rc>
    <rc><c>Fe</c><c>   1</c></rc>
    <rc><c>Fe</c><c>   1</c></rc>
    <rc><c>Fe</c><c>   1</c></rc>
    <rc><c>Fe</c><c>   1</c></rc>
    <rc><c>Fe</c><c>   1</c></rc>
    <rc><c>Fe</c><c>   1</c></rc>
    <rc><c>Fe</c><c>   1</c></rc>
    <rc><c>Mn</c><c>   2</c></rc>
    <rc><c>Mn</c><c>   2</c></rc>
    <rc><c>Mn</c><c>   2</c></rc>
    <rc><c>Mn</c><c>   2</c></rc>
    <rc><c>Mn</c><c>   2</c></rc>
    <rc><c>Mn</c><c>   2</c></rc>
    <rc><c>Mn</c><c>   2</c></rc>
   </set>
  </array>
  <array name="atomtypes" >
   <dimension dim="1">type</dimension>
   <field type="int">atomspertype</field>
   <field type="string">element</field>
   <field>mass</field>
   <field>valence</field>
   <field type="string">pseudopotential</field>
   <set>
    <rc><c> 281</c><c>Fe</c><c>     55.84700000</c><c>      8.00000000</c><c>  PAW_PBE Fe_GW 31Mar2010               </c></rc>
    <rc><c>   7</c><c>Mn</c><c>     54.93800000</c><c>      7.00000000</c><c>  PAW_PBE Mn_GW 31Mar2010               </c></rc>
   </set>
  </array>
 </atominfo>
 <structure name="initialpos" >
  <crystal>
   <varray name="basis" >
    <v>       9.72667804       0.00000000       0.00000000 </v>
    <v>       0.00000000       8.42355028       0.00000000 </v>
    <v>       0.00000000       0.00000000      45.00000000 </v>
   </varray>
   <i name="volume">   3686.99226691 </i>
   <varray name="rec_basis" >
    <v>       0.10281002       0.00000000       0.00000000 </v>
    <v>       0.00000000       0.11871479       0.00000000 </v>
    <v>       0.00000000       0.00000000       0.02222222 </v>
   </varray>
  </crystal>
  <varray name="positions" >
   <v>       0.06171081       0.03484105       0.12452052 </v>
   <v>       0.81462380       0.04257805       0.87575075 </v>
   <v>       0.19558348       0.12535280       0.78849895 </v>
   <v>       0.19511748       0.62510923       0.78829648 </v>
   <v>       0.31644321       0.36086408       0.16669752 </v>
   <v>       0.80893790       0.21327890       0.83309330 </v>
   <v>       0.18356936       0.78751138       0.38906687 </v>
   <v>       0.56381970       0.20767037       0.56542959 </v>
   <v>       0.06031981       0.04221831       0.74412328 </v>
   <v>       0.81344651       0.87201545       0.52132051 </v>
   <v>       0.18569319       0.29200133       0.74411618 </v>
   <v>       0.94136776       0.45179027       0.34494423 </v>
   <v>       0.93355021       0.28737366       0.38907622 </v>
   <v>       0.43845777       0.62186860       0.52130839 </v>
   <v>       0.18780850       0.79178768       0.61078844 </v>
   <v>       0.55835613       0.03770156       0.38906545 </v>
   <v>       0.93341853       0.96286612       0.83323218 </v>
   <v>       0.31419659       0.54258282       0.87554567 </v>
   <v>       0.68566803       0.29207851       0.74407002 </v>
   <v>       0.94141502       0.95184662       0.34495712 </v>
   <v>       0.81280247       0.20582754       0.47861785 </v>
   <v>       0.81279011       0.54177821       0.61077507 </v>
   <v>       0.31314665       0.87033820       0.43440993 </v>
   <v>       0.81553501       0.03528462       0.25604637 </v>
   <v>       0.69138976       0.95166280       0.34491786 </v>
   <v>       0.94273288       0.11329309       0.16698473 </v>
   <v>       0.93845247       0.12198941       0.52130405 </v>
   <v>       0.56505885       0.53541214       0.25601033 </v>
   <v>       0.69368799       0.79678100       0.87571366 </v>
   <v>       0.56710106       0.36267629       0.16692904 </v>
   <v>       0.43573245       0.79198404       0.74417180 </v>
   <v>       0.81377590       0.70771772       0.56543936 </v>
   <v>       0.57080259       0.87399617       0.78826176 </v>
   <v>       0.68846729       0.12196031       0.52129560 </v>
   <v>       0.19004366       0.28567593       0.25597385 </v>
   <v>       0.93355660       0.46316264       0.83303288 </v>
   <v>       0.06549557       0.20862178       0.69969851 </v>
   <v>       0.80856681       0.03751687       0.38901122 </v>
   <v>       0.30878757       0.21318172       0.83351720 </v>
   <v>       0.43400582       0.62605508       0.65496520 </v>
   <v>       0.31282154       0.54177634       0.61078361 </v>
   <v>       0.93878328       0.45777924       0.56544939 </v>
   <v>       0.68557893       0.79217941       0.74417480 </v>
   <v>       0.30887280       0.87567377       0.65492228 </v>
   <v>       0.68371628       0.78741955       0.38906565 </v>
   <v>       0.93608970       0.79215808       0.74422570 </v>
   <v>       0.06625652       0.20189310       0.34496072 </v>
   <v>       0.43673618       0.78071019       0.12417633 </v>
   <v>       0.44520044       0.12507068       0.78856680 </v>
   <v>       0.05490747       0.20276351       0.21189935 </v>
   <v>       0.06726036       0.36176782       0.16679652 </v>
   <v>       0.94028338       0.78521713       0.25601613 </v>
   <v>       0.56541974       0.20837213       0.69971277 </v>
   <v>       0.69041426       0.95834573       0.69970561 </v>
   <v>       0.68352392       0.28750525       0.38906186 </v>
   <v>       0.43885347       0.95775023       0.56541750 </v>
   <v>       0.82055844       0.37418829       0.78840956 </v>
   <v>       0.68996274       0.28542524       0.25603853 </v>
   <v>       0.18873411       0.45784529       0.56545159 </v>
   <v>       0.06769631       0.86162672       0.16672402 </v>
   <v>       0.18788511       0.29179263       0.61078274 </v>
   <v>       0.56647575       0.70227691       0.34503961 </v>
   <v>       0.31543132       0.20835469       0.69970822 </v>
   <v>       0.56606187       0.54163729       0.87562813 </v>
   <v>       0.06378350       0.70770553       0.56543066 </v>
   <v>       0.69519181       0.62500407       0.78857834 </v>
   <v>       0.30866028       0.53705809       0.38904552 </v>
   <v>       0.18848306       0.62194418       0.52130933 </v>
   <v>       0.56303989       0.87040823       0.43443232 </v>
   <v>       0.43884140       0.45776636       0.56543316 </v>
   <v>       0.43592017       0.29181882       0.74414915 </v>
   <v>       0.80340312       0.87181092       0.30035874 </v>
   <v>       0.81645621       0.70202265       0.34498568 </v>
   <v>       0.43332592       0.46432549       0.83313703 </v>
   <v>       0.68781543       0.95576205       0.47861041 </v>
   <v>       0.69075006       0.45848267       0.69969664 </v>
   <v>       0.56347138       0.87202018       0.52131081 </v>
   <v>       0.55879701       0.37564997       0.65491962 </v>
   <v>       0.80877205       0.87555380       0.65486361 </v>
   <v>       0.81333083       0.37065608       0.43423948 </v>
   <v>       0.81507984       0.53540536       0.25604325 </v>
   <v>       0.68356392       0.46303327       0.83308957 </v>
   <v>       0.18774620       0.77975348       0.12433335 </v>
   <v>       0.06382207       0.04338226       0.87557526 </v>
   <v>       0.30885839       0.37566347       0.65490036 </v>
   <v>       0.31637087       0.20180953       0.34497930 </v>
   <v>       0.81068971       0.54227684       0.74406303 </v>
   <v>       0.68415061       0.96318778       0.83312312 </v>
   <v>       0.55890449       0.87564960       0.65491827 </v>
   <v>       0.31375800       0.70773449       0.56545357 </v>
   <v>       0.31268403       0.53477611       0.12414924 </v>
   <v>       0.67998963       0.95211498       0.21158203 </v>
   <v>       0.31383635       0.20765436       0.56542690 </v>
   <v>       0.31101302       0.54233718       0.74436194 </v>
   <v>       0.68877791       0.95766171       0.56543043 </v>
   <v>       0.43783235       0.79175577       0.61079457 </v>
   <v>       0.69254310       0.61149452       0.16704787 </v>
   <v>       0.30374255       0.87227353       0.30027959 </v>
   <v>       0.31281326       0.70577804       0.47862870 </v>
   <v>       0.93776240       0.29164929       0.61075574 </v>
   <v>       0.42857838       0.62218806       0.30028789 </v>
   <v>       0.81694716       0.86193019       0.16698036 </v>
   <v>       0.55555372       0.20235476       0.21160672 </v>
   <v>       0.94189942       0.61301641       0.16695506 </v>
   <v>       0.94186072       0.79720192       0.87564784 </v>
   <v>       0.57044973       0.37474588       0.78834043 </v>
   <v>       0.06344188       0.37197307       0.52130509 </v>
   <v>       0.56346377       0.37200028       0.52131087 </v>
   <v>       0.67870906       0.12205684       0.30029265 </v>
   <v>       0.43263238       0.96398855       0.83337616 </v>
   <v>       0.18779967       0.95576544       0.47860634 </v>
   <v>       0.82073297       0.87445488       0.78839863 </v>
   <v>       0.31303014       0.37034233       0.43445256 </v>
   <v>       0.93759623       0.79182415       0.61095361 </v>
   <v>       0.43771647       0.29185042       0.61084437 </v>
   <v>       0.19139040       0.45187833       0.34498250 </v>
   <v>       0.43816804       0.28121882       0.12443041 </v>
   <v>       0.69004634       0.78542521       0.25605445 </v>
   <v>       0.19059625       0.95850905       0.69968005 </v>
   <v>       0.19083127       0.29567392       0.87585090 </v>
   <v>       0.18387059       0.12570060       0.65490238 </v>
   <v>       0.93383871       0.12579721       0.65491856 </v>
   <v>       0.30560021       0.20266154       0.21192575 </v>
   <v>       0.05868482       0.03744985       0.38903271 </v>
   <v>       0.44014177       0.95816728       0.69964921 </v>
   <v>       0.06306088       0.54165031       0.61070543 </v>
   <v>       0.94042100       0.28528921       0.25603531 </v>
   <v>       0.56287834       0.54175422       0.61075159 </v>
   <v>       0.93887513       0.95768923       0.56541899 </v>
   <v>       0.67868816       0.62198630       0.30030968 </v>
   <v>       0.93808186       0.62043230       0.43442512 </v>
   <v>       0.94540683       0.62496677       0.78857297 </v>
   <v>       0.56532024       0.70839631       0.69966936 </v>
   <v>       0.05888125       0.71313136       0.83319183 </v>
   <v>       0.92843564       0.12202248       0.30036503 </v>
   <v>       0.94020691       0.45834063       0.69964781 </v>
   <v>       0.44003857       0.78556279       0.25601220 </v>
   <v>       0.32104544       0.37541282       0.78821411 </v>
   <v>       0.42983034       0.45185178       0.21164102 </v>
   <v>       0.18846035       0.12198410       0.52130442 </v>
   <v>       0.81538937       0.70843729       0.69964582 </v>
   <v>       0.06268359       0.04181842       0.61086315 </v>
   <v>       0.55885148       0.21321176       0.83330330 </v>
   <v>       0.31348744       0.87201353       0.52129981 </v>
   <v>       0.68696373       0.28110921       0.12431159 </v>
   <v>       0.17994565       0.95235755       0.21187219 </v>
   <v>       0.68783571       0.29181478       0.61073500 </v>
   <v>       0.31255975       0.04194871       0.61084976 </v>
   <v>       0.94565733       0.12535348       0.78839204 </v>
   <v>       0.44132489       0.79636488       0.87568573 </v>
   <v>       0.81087305       0.04245256       0.74408238 </v>
   <v>       0.43850750       0.12199380       0.52131059 </v>
   <v>       0.18385831       0.62572215       0.65489601 </v>
   <v>       0.31520808       0.70816222       0.69963272 </v>
   <v>       0.93449435       0.27990604       0.12455372 </v>
   <v>       0.43783316       0.45584043       0.47862558 </v>
   <v>       0.06279764       0.70591473       0.47861779 </v>
   <v>       0.93803302       0.12039910       0.43443760 </v>
   <v>       0.42870985       0.12210798       0.30033234 </v>
   <v>       0.18781361       0.12047452       0.43443961 </v>
   <v>       0.56548377       0.04422781       0.87551487 </v>
   <v>       0.18871990       0.95783230       0.56544774 </v>
   <v>       0.68842597       0.78158958       0.12431166 </v>
   <v>       0.56437068       0.53274076       0.12452573 </v>
   <v>       0.30872860       0.03746387       0.38905695 </v>
   <v>       0.69279690       0.11197249       0.16723818 </v>
   <v>       0.80541672       0.20306493       0.21183672 </v>
   <v>       0.06557927       0.53535256       0.25599858 </v>
   <v>       0.56276062       0.70576761       0.47863920 </v>
   <v>       0.06377923       0.20768242       0.56542757 </v>
   <v>       0.55368802       0.37198796       0.30034353 </v>
   <v>       0.44126842       0.95211751       0.34501168 </v>
   <v>       0.18419506       0.96424227       0.83339402 </v>
   <v>       0.44165099       0.61261023       0.16684498 </v>
   <v>       0.93015682       0.45301053       0.21186784 </v>
   <v>       0.06225664       0.53337499       0.12460093 </v>
   <v>       0.81348265       0.37197676       0.52130285 </v>
   <v>       0.92859237       0.62202034       0.30035161 </v>
   <v>       0.31542064       0.03533048       0.25601677 </v>
   <v>       0.06340112       0.87201395       0.52131643 </v>
   <v>       0.18396753       0.46480881       0.83339288 </v>
   <v>       0.44254677       0.11124177       0.16673374 </v>
   <v>       0.31346128       0.37196562       0.52129976 </v>
   <v>       0.44594597       0.62488073       0.78833421 </v>
   <v>       0.06533677       0.03532835       0.25603140 </v>
   <v>       0.56375997       0.70765788       0.56542648 </v>
   <v>       0.17877797       0.62215668       0.30032959 </v>
   <v>       0.69586465       0.12491696       0.78841316 </v>
   <v>       0.18085263       0.45169792       0.21161447 </v>
   <v>       0.93360629       0.78751314       0.38904687 </v>
   <v>       0.69391711       0.29814862       0.87586317 </v>
   <v>       0.68775552       0.79188271       0.61082666 </v>
   <v>       0.44019693       0.45819093       0.69962604 </v>
   <v>       0.80883809       0.37562055       0.65491861 </v>
   <v>       0.68849273       0.62205822       0.52129868 </v>
   <v>       0.05892114       0.87557990       0.65490859 </v>
   <v>       0.07025189       0.87406176       0.78828511 </v>
   <v>       0.05886121       0.37556876       0.65491980 </v>
   <v>       0.68785100       0.45577383       0.47862109 </v>
   <v>       0.19002563       0.78568682       0.25597707 </v>
   <v>       0.43800743       0.12039081       0.43439324 </v>
   <v>       0.05867486       0.53759264       0.38906269 </v>
   <v>       0.93846812       0.62198457       0.52130666 </v>
   <v>       0.06307390       0.87039250       0.43442304 </v>
   <v>       0.81088015       0.53317625       0.12442691 </v>
   <v>       0.44142572       0.45175858       0.34497402 </v>
   <v>       0.81643666       0.20194235       0.34498533 </v>
   <v>       0.18616804       0.28097749       0.12439814 </v>
   <v>       0.68380618       0.12575256       0.65489270 </v>
   <v>       0.55387899       0.87212723       0.30027219 </v>
   <v>       0.06057804       0.54198139       0.74419992 </v>
   <v>       0.93556566       0.78043058       0.12452444 </v>
   <v>       0.80540355       0.70307135       0.21186208 </v>
   <v>       0.05376925       0.87210194       0.30032036 </v>
   <v>       0.17861090       0.12228133       0.30030797 </v>
   <v>       0.06639169       0.70192160       0.34497549 </v>
   <v>       0.81266903       0.04187240       0.61086173 </v>
   <v>       0.06273926       0.37041627       0.43441535 </v>
   <v>       0.56636778       0.20188751       0.34496459 </v>
   <v>       0.80358362       0.37201211       0.30034330 </v>
   <v>       0.43786370       0.95586282       0.47864237 </v>
   <v>       0.55854350       0.53744019       0.38906122 </v>
   <v>       0.06275477       0.20587195       0.47860671 </v>
   <v>       0.32037376       0.87479035       0.78838455 </v>
   <v>       0.94032382       0.95850756       0.69976227 </v>
   <v>       0.05369147       0.37212559       0.30031104 </v>
   <v>       0.68417110       0.62609548       0.65497888 </v>
   <v>       0.68876615       0.45775181       0.56544326 </v>
   <v>       0.43036559       0.95209469       0.21170638 </v>
   <v>       0.31283490       0.20577393       0.47862900 </v>
   <v>       0.43385589       0.12573296       0.65492630 </v>
   <v>       0.68803965       0.62045730       0.43443796 </v>
   <v>       0.81528545       0.20836184       0.69966819 </v>
   <v>       0.81282294       0.70587322       0.47862907 </v>
   <v>       0.56308615       0.37033046       0.43443446 </v>
   <v>       0.93779155       0.95575647       0.47860253 </v>
   <v>       0.56284892       0.20577976       0.47861939 </v>
   <v>       0.18783917       0.62043418       0.43443979 </v>
   <v>       0.31072892       0.04169457       0.74403693 </v>
   <v>       0.93388676       0.62590774       0.65489908 </v>
   <v>       0.55912000       0.71333146       0.83314711 </v>
   <v>       0.30376264       0.37212976       0.30031746 </v>
   <v>       0.55494677       0.70228140       0.21169106 </v>
   <v>       0.18789267       0.45581766       0.47863084 </v>
   <v>       0.56412147       0.03352306       0.12436383 </v>
   <v>       0.19007407       0.45809417       0.69963099 </v>
   <v>       0.81450543       0.54243901       0.87561264 </v>
   <v>       0.18367032       0.28757191       0.38907060 </v>
   <v>       0.43802041       0.62045107       0.43442439 </v>
   <v>       0.05522864       0.70312884       0.21189531 </v>
   <v>       0.81137936       0.03319524       0.12448056 </v>
   <v>       0.81648842       0.36217509       0.16700134 </v>
   <v>       0.80836428       0.71369008       0.83312904 </v>
   <v>       0.07092504       0.37459800       0.78842503 </v>
   <v>       0.44413280       0.29668192       0.87576336 </v>
   <v>       0.31350987       0.03403432       0.12446559 </v>
   <v>       0.68802384       0.12049896       0.43445759 </v>
   <v>       0.19122515       0.95163389       0.34496359 </v>
   <v>       0.05904833       0.21337889       0.83335057 </v>
   <v>       0.56273766       0.04191888       0.61086635 </v>
   <v>       0.68011228       0.45289141       0.21180501 </v>
   <v>       0.18630899       0.79147596       0.74418298 </v>
   <v>       0.81294819       0.87037198       0.43442655 </v>
   <v>       0.43368213       0.78733795       0.38905724 </v>
   <v>       0.44046883       0.28526853       0.25597124 </v>
   <v>       0.06410541       0.54235850       0.87569732 </v>
   <v>       0.56058426       0.04200684       0.74410117 </v>
   <v>       0.19423142       0.79688260       0.87600269 </v>
   <v>       0.93778582       0.45573446       0.47863091 </v>
   <v>       0.80859510       0.53758014       0.38909283 </v>
   <v>       0.81379212       0.20774313       0.56543034 </v>
   <v>       0.31634684       0.70195810       0.34496937 </v>
   <v>       0.93052382       0.95290367       0.21180910 </v>
   <v>       0.06528343       0.70829336       0.69969017 </v>
   <v>       0.31497480       0.53560910       0.25603745 </v>
   <v>       0.30565913       0.70240924       0.21189619 </v>
   <v>       0.56692585       0.86284377       0.16688481 </v>
   <v>       0.56080141       0.54243649       0.74409474 </v>
   <v>       0.69108026       0.45172748       0.34493264 </v>
   <v>       0.94127361       0.29769976       0.87592803 </v>
   <v>       0.56506511       0.03539150       0.25602048 </v>
   <v>       0.19242728       0.11166270       0.16604220 </v>
   <v>       0.30853722       0.71547530       0.83413716 </v>
   <v>       0.31832694       0.86027805       0.16591505 </v>
   <v>       0.93624267       0.29226433       0.74407042 </v>
   <v>       0.31529377       0.04187964       0.87540657 </v>
   <v>       0.19346803       0.61183916       0.16598141 </v>
   <v>       0.43322104       0.28755462       0.38898481 </v>
  </varray>
 </structure>
 <calculation>
  <scstep>
   <time name="dav">   54.49   54.50</time>
   <time name="total">   54.64   54.69</time>
   <energy>
    <i name="alphaZ">  16403.00255340 </i>
    <i name="ewald"> 737802.45725108 </i>
    <i name="hartreedc">-929453.22058832 </i>
    <i name="XCdc">  -6388.78898895 </i>
    <i name="pawpsdc"> 163151.95320885 </i>
    <i name="pawaedc">-160818.84594568 </i>
    <i name="eentropy">     -1.05078882 </i>
    <i name="bandstr">  38624.04753580 </i>
    <i name="atom"> 169914.59583762 </i>
    <i name="e_fr_energy">  29234.15007499 </i>
    <i name="e_wo_entrp">  29235.20086380 </i>
    <i name="e_0_energy">  29234.67546939 </i>
   </energy>
  </scstep>
  <scstep>
   <time name="dav">   53.95   53.98</time>
   <time name="total">   53.96   53.99</time>
   <energy>
    <i name="e_fr_energy">   1197.90541555 </i>
    <i name="e_wo_entrp">   1199.37920655 </i>
    <i name="e_0_energy">   1198.64231105 </i>
   </energy>
  </scstep>
  <scstep>
   <time name="dav">   71.28   71.32</time>
   <time name="total">   71.28   71.32</time>
   <energy>
    <i name="e_fr_energy">  -1940.24852533 </i>
    <i name="e_wo_entrp">  -1936.66510030 </i>
    <i name="e_0_energy">  -1938.45681281 </i>
   </energy>
  </scstep>
  <scstep>
   <time name="dav">   88.69   88.73</time>
   <time name="total">   88.70   88.74</time>
   <energy>
    <i name="e_fr_energy">  -2610.37938655 </i>
    <i name="e_wo_entrp">  -2606.83134281 </i>
    <i name="e_0_energy">  -2608.60536468 </i>
   </energy>
  </scstep>
  <scstep>
   <time name="dav">   84.94   84.98</time>
   <time name="total">   87.00   87.04</time>
   <energy>
    <i name="e_fr_energy">  -2730.47420858 </i>
    <i name="e_wo_entrp">  -2726.80442177 </i>
    <i name="e_0_energy">  -2728.63931518 </i>
   </energy>
  </scstep>
  <scstep>
   <time name="diag">    8.25    8.26</time>
   <time name="diis">   37.42   37.42</time>
   <time name="orth">    2.26    2.26</time>
   <time name="total">   50.17   50.21</time>
   <energy>
    <i name="e_fr_energy">  -4904.38891388 </i>
    <i name="e_wo_entrp">  -4900.85200344 </i>
    <i name="e_0_energy">  -4902.62045866 </i>
   </energy>
  </scstep>
  <scstep>
   <time name="diag">    8.29    8.30</time>
   <time name="diis">   22.57   22.57</time>
   <time name="orth">    2.27    2.27</time>
   <time name="total">   35.29   35.33</time>
[...]
       <r>     5.8331     0.0000  2772.0000 </r>
       <r>     5.8759     0.0000  2772.0000 </r>
       <r>     5.9186     0.0000  2772.0000 </r>
       <r>     5.9614     0.0000  2772.0000 </r>
       <r>     6.0042     0.0000  2772.0000 </r>
       <r>     6.0470     0.0000  2772.0000 </r>
       <r>     6.0898     0.0000  2772.0000 </r>
       <r>     6.1325     0.0000  2772.0000 </r>
       <r>     6.1753     0.0000  2772.0000 </r>
       <r>     6.2181     0.0000  2772.0000 </r>
       <r>     6.2609     0.0000  2772.0000 </r>
       <r>     6.3037     0.0000  2772.0000 </r>
       <r>     6.3464     0.0000  2772.0000 </r>
       <r>     6.3892     0.0000  2772.0000 </r>
       <r>     6.4320     0.0000  2772.0000 </r>
       <r>     6.4748     0.0000  2772.0000 </r>
       <r>     6.5176     0.0000  2772.0000 </r>
       <r>     6.5604     0.0000  2772.0000 </r>
       <r>     6.6031     0.0000  2772.0000 </r>
       <r>     6.6459     0.0000  2772.0000 </r>
       <r>     6.6887     0.0000  2772.0000 </r>
       <r>     6.7315     0.0000  2772.0000 </r>
       <r>     6.7743     0.0000  2772.0000 </r>
      </set>
     </set>
    </array>
   </total>
  </dos>
 </calculation>
 <structure name="finalpos" >
  <crystal>
   <varray name="basis" >
    <v>       9.72667804       0.00000000       0.00000000 </v>
    <v>       0.00000000       8.42355028       0.00000000 </v>
    <v>       0.00000000       0.00000000      45.00000000 </v>
   </varray>
   <i name="volume">   3686.99226691 </i>
   <varray name="rec_basis" >
    <v>       0.10281002       0.00000000       0.00000000 </v>
    <v>       0.00000000       0.11871479       0.00000000 </v>
    <v>       0.00000000       0.00000000       0.02222222 </v>
   </varray>
  </crystal>
  <varray name="positions" >
   <v>       0.06249420       0.03326525       0.12435618 </v>
   <v>       0.81484916       0.04391523       0.87578386 </v>
   <v>       0.19351105       0.12618273       0.78875651 </v>
   <v>       0.19292050       0.62488676       0.78845166 </v>
   <v>       0.31564943       0.36155365       0.16660546 </v>
   <v>       0.81122904       0.21238010       0.83349125 </v>
   <v>       0.18395769       0.78747760       0.38948446 </v>
   <v>       0.56377504       0.20719245       0.56556118 </v>
   <v>       0.06140850       0.04207267       0.74381957 </v>
   <v>       0.81327175       0.87271525       0.52144358 </v>
   <v>       0.18694560       0.29194417       0.74380559 </v>
   <v>       0.93950147       0.45229896       0.34517051 </v>
   <v>       0.93426137       0.28729123       0.38942309 </v>
   <v>       0.43829099       0.62264794       0.52146853 </v>
   <v>       0.18723759       0.79207210       0.61053381 </v>
   <v>       0.55957742       0.03766962       0.38945898 </v>
   <v>       0.93544192       0.96295951       0.83363331 </v>
   <v>       0.31421531       0.54274014       0.87546558 </v>
   <v>       0.68694873       0.29212762       0.74385948 </v>
   <v>       0.93945652       0.95238956       0.34516408 </v>
   <v>       0.81302659       0.20530416       0.47828083 </v>
   <v>       0.81321566       0.54129432       0.61059647 </v>
   <v>       0.31263673       0.87047146       0.43437808 </v>
   <v>       0.81347093       0.03555287       0.25591868 </v>
   <v>       0.69004663       0.95224800       0.34513719 </v>
   <v>       0.94096879       0.11365815       0.16676686 </v>
   <v>       0.93836531       0.12259301       0.52147179 </v>
   <v>       0.56347633       0.53530272       0.25595847 </v>
   <v>       0.69273328       0.79598623       0.87577093 </v>
   <v>       0.56662521       0.36240913       0.16679022 </v>
   <v>       0.43689216       0.79197882       0.74375578 </v>
   <v>       0.81347525       0.70761548       0.56556708 </v>
   <v>       0.56955900       0.87530391       0.78818726 </v>
   <v>       0.68838473       0.12249523       0.52145487 </v>
   <v>       0.18858859       0.28533160       0.25583011 </v>
   <v>       0.93564602       0.46166599       0.83349169 </v>
   <v>       0.06457513       0.20854405       0.69951223 </v>
   <v>       0.80966223       0.03719582       0.38940223 </v>
   <v>       0.30989910       0.21309952       0.83367791 </v>
   <v>       0.43487635       0.62575090       0.65489547 </v>
   <v>       0.31201223       0.54160064       0.61054422 </v>
   <v>       0.93862203       0.45696065       0.56563670 </v>
   <v>       0.68695195       0.79240342       0.74391881 </v>
   <v>       0.30925990       0.87575942       0.65484061 </v>
   <v>       0.68523352       0.78749033       0.38945555 </v>
   <v>       0.93686175       0.79252449       0.74393165 </v>
   <v>       0.06415363       0.20237558       0.34515824 </v>
   <v>       0.43640231       0.78263118       0.12404728 </v>
   <v>       0.44374423       0.12614663       0.78866722 </v>
   <v>       0.05676388       0.20208408       0.21188527 </v>
   <v>       0.06589730       0.36203139       0.16671261 </v>
   <v>       0.93846814       0.78552009       0.25590641 </v>
   <v>       0.56476378       0.20818707       0.69966640 </v>
   <v>       0.68990607       0.95844577       0.69966993 </v>
   <v>       0.68488383       0.28743506       0.38945374 </v>
   <v>       0.43843580       0.95728479       0.56556294 </v>
   <v>       0.81883169       0.37432122       0.78838853 </v>
   <v>       0.68831850       0.28518916       0.25591671 </v>
   <v>       0.18824269       0.45726480       0.56562525 </v>
   <v>       0.06648518       0.86319519       0.16664188 </v>
   <v>       0.18701010       0.29123027       0.61055705 </v>
   <v>       0.56479475       0.70282035       0.34512954 </v>
   <v>       0.31442665       0.20829282       0.69962329 </v>
   <v>       0.56561297       0.54249581       0.87566572 </v>
   <v>       0.06376366       0.70764737       0.56564002 </v>
   <v>       0.69412520       0.62520591       0.78840390 </v>
   <v>       0.30935339       0.53708487       0.38945563 </v>
   <v>       0.18834143       0.62253303       0.52146311 </v>
   <v>       0.56312373       0.87050081       0.43438589 </v>
   <v>       0.43856721       0.45762601       0.56553310 </v>
   <v>       0.43702311       0.29200426       0.74388644 </v>
   <v>       0.80555631       0.87122983       0.30035869 </v>
   <v>       0.81483364       0.70253237       0.34518241 </v>
   <v>       0.43464172       0.46240507       0.83349046 </v>
   <v>       0.68811380       0.95520910       0.47832556 </v>
   <v>       0.69043626       0.45821773       0.69965818 </v>
   <v>       0.56340980       0.87259692       0.52150655 </v>
   <v>       0.56011075       0.37527384       0.65485883 </v>
   <v>       0.81045864       0.87566367       0.65488601 </v>
   <v>       0.81338590       0.37085847       0.43427393 </v>
   <v>       0.81321038       0.53519987       0.25600190 </v>
   <v>       0.68511159       0.46181898       0.83361639 </v>
   <v>       0.18859053       0.78245205       0.12419858 </v>
   <v>       0.06253240       0.04552694       0.87547462 </v>
   <v>       0.30927225       0.37513432       0.65479902 </v>
   <v>       0.31436020       0.20245491       0.34516899 </v>
   <v>       0.81185353       0.54229503       0.74375691 </v>
   <v>       0.68587011       0.96347097       0.83356067 </v>
   <v>       0.56014246       0.87559757       0.65489228 </v>
   <v>       0.31339024       0.70796411       0.56560091 </v>
   <v>       0.31299513       0.53368057       0.12417762 </v>
   <v>       0.68143467       0.95264623       0.21164196 </v>
   <v>       0.31316500       0.20705505       0.56565096 </v>
   <v>       0.31199548       0.54187348       0.74386652 </v>
   <v>       0.68843136       0.95747782       0.56554502 </v>
   <v>       0.43709987       0.79206480       0.61046936 </v>
   <v>       0.69123355       0.61257126       0.16707029 </v>
   <v>       0.30585592       0.87150078       0.30032300 </v>
   <v>       0.31274476       0.70525044       0.47832294 </v>
   <v>       0.93809114       0.29120646       0.61058518 </v>
   <v>       0.43081230       0.62169937       0.30025568 </v>
   <v>       0.81606357       0.86376498       0.16683160 </v>
   <v>       0.55694398       0.20142877       0.21165893 </v>
   <v>       0.94089794       0.61389410       0.16689459 </v>
   <v>       0.94052809       0.79669542       0.87566762 </v>
   <v>       0.56894296       0.37461607       0.78828470 </v>
   <v>       0.06334278       0.37237061       0.52146766 </v>
   <v>       0.56334661       0.37248039       0.52144685 </v>
   <v>       0.68084884       0.12129637       0.30017697 </v>
   <v>       0.43357346       0.96440575       0.83369291 </v>
   <v>       0.18756616       0.95520262       0.47828380 </v>
   <v>       0.81924730       0.87550103       0.78835018 </v>
   <v>       0.31273311       0.37069996       0.43440166 </v>
   <v>       0.93816760       0.79185328       0.61073815 </v>
   <v>       0.43720263       0.29142678       0.61058199 </v>
   <v>       0.18935780       0.45235098       0.34515321 </v>
   <v>       0.43804735       0.27978485       0.12449647 </v>
   <v>       0.68831563       0.78556869       0.25598465 </v>
   <v>       0.18946568       0.95878083       0.69954854 </v>
   <v>       0.18946616       0.29454136       0.87560827 </v>
   <v>       0.18434753       0.12545084       0.65477495 </v>
   <v>       0.93525662       0.12581073       0.65484842 </v>
   <v>       0.30722653       0.20165372       0.21181929 </v>
   <v>       0.05924166       0.03712974       0.38942063 </v>
   <v>       0.43938642       0.95842771       0.69962398 </v>
   <v>       0.06268085       0.54124201       0.61057983 </v>
   <v>       0.93874531       0.28520343       0.25591254 </v>
   <v>       0.56272750       0.54154941       0.61052475 </v>
   <v>       0.93877863       0.95778247       0.56564166 </v>
   <v>       0.68056571       0.62142758       0.30029725 </v>
   <v>       0.93784312       0.62092133       0.43438872 </v>
   <v>       0.94360991       0.62525879       0.78852827 </v>
   <v>       0.56469870       0.70844234       0.69964804 </v>
   <v>       0.06024535       0.71265725       0.83353388 </v>
   <v>       0.93040092       0.12126327       0.30037261 </v>
   <v>       0.93955828       0.45824821       0.69950257 </v>
   <v>       0.43855068       0.78566703       0.25591841 </v>
   <v>       0.31907609       0.37503540       0.78840598 </v>
   <v>       0.43161798       0.45129683       0.21170279 </v>
   <v>       0.18813794       0.12259299       0.52151157 </v>
   <v>       0.81510556       0.70840105       0.69956683 </v>
   <v>       0.06267384       0.04193573       0.61060111 </v>
   <v>       0.56005805       0.21314256       0.83367449 </v>
   <v>       0.31334663       0.87246192       0.52154479 </v>
   <v>       0.68732850       0.27899612       0.12440918 </v>
   <v>       0.18179718       0.95215459       0.21175712 </v>
   <v>       0.68809496       0.29152565       0.61051951 </v>
   <v>       0.31177865       0.04188334       0.61056205 </v>
   <v>       0.94385477       0.12532385       0.78857694 </v>
   <v>       0.44142894       0.79560425       0.87576693 </v>
   <v>       0.81203171       0.04245213       0.74388967 </v>
   <v>       0.43845297       0.12249618       0.52149083 </v>
   <v>       0.18417587       0.62569519       0.65479878 </v>
   <v>       0.31439690       0.70847529       0.69962811 </v>
   <v>       0.93593531       0.27861359       0.12455767 </v>
   <v>       0.43784469       0.45547166       0.47838943 </v>
   <v>       0.06260131       0.70548079       0.47826614 </v>
   <v>       0.93780665       0.12051890       0.43437593 </v>
   <v>       0.43084242       0.12152871       0.30022852 </v>
   <v>       0.18751215       0.12059341       0.43440480 </v>
   <v>       0.56566516       0.04601123       0.87559795 </v>
   <v>       0.18843408       0.95757744       0.56571464 </v>
   <v>       0.68796641       0.78425683       0.12452615 </v>
   <v>       0.56317597       0.53155067       0.12476176 </v>
   <v>       0.30947017       0.03743883       0.38945132 </v>
   <v>       0.69129842       0.11328610       0.16688754 </v>
   <v>       0.80678282       0.20187844       0.21179204 </v>
   <v>       0.06398071       0.53512716       0.25585831 </v>
   <v>       0.56296545       0.70544663       0.47834200 </v>
   <v>       0.06341981       0.20722052       0.56570507 </v>
   <v>       0.55576160       0.37153924       0.30023202 </v>
   <v>       0.43944435       0.95256970       0.34515413 </v>
   <v>       0.18521139       0.96467614       0.83363936 </v>
   <v>       0.44056591       0.61387080       0.16665269 </v>
   <v>       0.93193797       0.45183754       0.21187612 </v>
   <v>       0.06305483       0.53178287       0.12459424 </v>
   <v>       0.81342410       0.37235485       0.52144824 </v>
   <v>       0.93047487       0.62139946       0.30041581 </v>
   <v>       0.31369965       0.03572992       0.25579839 </v>
   <v>       0.06329061       0.87262135       0.52147047 </v>
   <v>       0.18500022       0.46278847       0.83365470 </v>
   <v>       0.44164030       0.11185710       0.16657872 </v>
   <v>       0.31325037       0.37259170       0.52143483 </v>
   <v>       0.44462708       0.62465585       0.78829187 </v>
   <v>       0.06382134       0.03600121       0.25586390 </v>
   <v>       0.56340045       0.70789306       0.56549727 </v>
   <v>       0.18094971       0.62161031       0.30035130 </v>
   <v>       0.69423272       0.12561141       0.78839561 </v>
   <v>       0.18204662       0.45096996       0.21172324 </v>
   <v>       0.93431082       0.78751900       0.38946255 </v>
   <v>       0.69206050       0.29653238       0.87586461 </v>
   <v>       0.68780680       0.79198144       0.61056458 </v>
   <v>       0.43940140       0.45815910       0.69968930 </v>
   <v>       0.81071916       0.37524363       0.65486833 </v>
   <v>       0.68830290       0.62274177       0.52144252 </v>
   <v>       0.05968636       0.87592167       0.65483028 </v>
   <v>       0.06787102       0.87526356       0.78832821 </v>
   <v>       0.05943221       0.37516444       0.65483834 </v>
   <v>       0.68818855       0.45534564       0.47834187 </v>
   <v>       0.18852850       0.78567368       0.25587693 </v>
   <v>       0.43778506       0.12062259       0.43437339 </v>
   <v>       0.05920507       0.53767688       0.38946315 </v>
   <v>       0.93838297       0.62252839       0.52142392 </v>
   <v>       0.06254109       0.87059686       0.43437798 </v>
   <v>       0.81193403       0.53145068       0.12467524 </v>
   <v>       0.43958407       0.45248722       0.34508177 </v>
   <v>       0.81498928       0.20238314       0.34520500 </v>
   <v>       0.18672475       0.28012074       0.12428236 </v>
   <v>       0.68533298       0.12555095       0.65483052 </v>
   <v>       0.55581075       0.87139977       0.30026805 </v>
   <v>       0.06139189       0.54191607       0.74384047 </v>
   <v>       0.93720739       0.78284306       0.12459650 </v>
   <v>       0.80700531       0.70299122       0.21191256 </v>
   <v>       0.05561704       0.87148817       0.30039956 </v>
   <v>       0.18057876       0.12169678       0.30022714 </v>
   <v>       0.06426287       0.70248970       0.34516471 </v>
   <v>       0.81320084       0.04207991       0.61059667 </v>
   <v>       0.06240249       0.37079115       0.43437931 </v>
   <v>       0.56483336       0.20250896       0.34511031 </v>
   <v>       0.80556107       0.37132344       0.30032522 </v>
   <v>       0.43796877       0.95526048       0.47837532 </v>
   <v>       0.55979689       0.53737802       0.38946429 </v>
   <v>       0.06252954       0.20541559       0.47828512 </v>
   <v>       0.31855875       0.87649087       0.78840625 </v>
   <v>       0.93978917       0.95870297       0.69965825 </v>
   <v>       0.05565127       0.37134846       0.30031895 </v>
   <v>       0.68570463       0.62574116       0.65496849 </v>
   <v>       0.68864623       0.45733754       0.56553683 </v>
   <v>       0.43169741       0.95244210       0.21168465 </v>
   <v>       0.31275913       0.20533437       0.47836643 </v>
   <v>       0.43456927       0.12550003       0.65485033 </v>
   <v>       0.68832172       0.62089109       0.43438871 </v>
   <v>       0.81507512       0.20851738       0.69956358 </v>
   <v>       0.81303440       0.70564483       0.47826290 </v>
   <v>       0.56310208       0.37064126       0.43439707 </v>
   <v>       0.93773413       0.95525911       0.47824875 </v>
   <v>       0.56303350       0.20522559       0.47836132 </v>
   <v>       0.18746550       0.62089493       0.43441219 </v>
   <v>       0.31157386       0.04196033       0.74378533 </v>
   <v>       0.93508653       0.62570479       0.65486168 </v>
   <v>       0.56074084       0.71258453       0.83359342 </v>
   <v>       0.30587259       0.37152717       0.30021475 </v>
   <v>       0.55643536       0.70244278       0.21183120 </v>
   <v>       0.18752219       0.45538866       0.47838149 </v>
   <v>       0.56392529       0.03303769       0.12434445 </v>
   <v>       0.18912821       0.45807067       0.69959790 </v>
   <v>       0.81436713       0.54389460       0.87564642 </v>
   <v>       0.18426558       0.28740331       0.38943622 </v>
   <v>       0.43779478       0.62078204       0.43439810 </v>
   <v>       0.05705729       0.70307344       0.21183253 </v>
   <v>       0.81184434       0.03330676       0.12447869 </v>
   <v>       0.81524072       0.36209402       0.16689747 </v>
   <v>       0.81082210       0.71316493       0.83361526 </v>
   <v>       0.06890619       0.37440355       0.78860521 </v>
   <v>       0.44308252       0.29543241       0.87571423 </v>
   <v>       0.31358672       0.03231430       0.12418605 </v>
   <v>       0.68822570       0.12069295       0.43439886 </v>
   <v>       0.18917983       0.95228872       0.34513740 </v>
   <v>       0.06076675       0.21290310       0.83367920 </v>
   <v>       0.56243952       0.04200736       0.61058378 </v>
   <v>       0.68160494       0.45165595       0.21183061 </v>
   <v>       0.18706685       0.79201010       0.74373245 </v>
   <v>       0.81326429       0.87063890       0.43437416 </v>
   <v>       0.43459483       0.78731267       0.38945906 </v>
   <v>       0.43857382       0.28523557       0.25582604 </v>
   <v>       0.06347352       0.54318746       0.87553492 </v>
   <v>       0.56190735       0.04211449       0.74388838 </v>
   <v>       0.19178672       0.79641545       0.87589736 </v>
   <v>       0.93782713       0.45533177       0.47827407 </v>
   <v>       0.80968188       0.53769375       0.38948023 </v>
   <v>       0.81376279       0.20737846       0.56562818 </v>
   <v>       0.31449912       0.70267197       0.34507857 </v>
   <v>       0.93235477       0.95272446       0.21177795 </v>
   <v>       0.06431776       0.70866345       0.69957360 </v>
   <v>       0.31351336       0.53511817       0.25593945 </v>
   <v>       0.30706797       0.70243548       0.21177723 </v>
   <v>       0.56562465       0.86441975       0.16667513 </v>
   <v>       0.56205488       0.54208417       0.74382384 </v>
   <v>       0.68975119       0.45242093       0.34515247 </v>
   <v>       0.94100670       0.29638897       0.87577093 </v>
   <v>       0.56355266       0.03558509       0.25580776 </v>
   <v>       0.19136388       0.11201871       0.16607195 </v>
   <v>       0.30920470       0.71454271       0.83443701 </v>
   <v>       0.31717517       0.86227205       0.16590543 </v>
   <v>       0.93636605       0.29213325       0.74377573 </v>
   <v>       0.31486396       0.04436960       0.87509045 </v>
   <v>       0.19231039       0.61288607       0.16618602 </v>
   <v>       0.43406674       0.28735264       0.38940331 </v>
  </varray>
 </structure>
</modeling>
