unknown system                          
           1
     9.726678    0.000000    0.000000
     0.000000    8.423550    0.000000
     0.000000    0.000000   45.000000
   Fe   Mn
 281   7
Direct configuration=     1
   0.06171081  0.03484105  0.12452052
   0.81462380  0.04257805  0.87575075
   0.19558348  0.12535280  0.78849895
   0.19511748  0.62510923  0.78829648
   0.31644321  0.36086408  0.16669752
   0.80893790  0.21327890  0.83309330
   0.18356936  0.78751138  0.38906687
   0.56381970  0.20767037  0.56542959
   0.06031981  0.04221831  0.74412328
   0.81344651  0.87201545  0.52132051
   0.18569319  0.29200133  0.74411618
   0.94136776  0.45179027  0.34494423
   0.93355021  0.28737366  0.38907622
   0.43845777  0.62186860  0.52130839
   0.18780850  0.79178768  0.61078844
   0.55835613  0.03770156  0.38906545
   0.93341853  0.96286612  0.83323218
   0.31419659  0.54258282  0.87554567
   0.68566803  0.29207851  0.74407002
   0.94141502  0.95184662  0.34495712
   0.81280247  0.20582754  0.47861785
   0.81279011  0.54177821  0.61077507
   0.31314665  0.87033820  0.43440993
   0.81553501  0.03528462  0.25604637
   0.69138976  0.95166280  0.34491786
   0.94273288  0.11329309  0.16698473
   0.93845247  0.12198941  0.52130405
   0.56505885  0.53541214  0.25601033
   0.69368799  0.79678100  0.87571366
   0.56710106  0.36267629  0.16692904
   0.43573245  0.79198404  0.74417180
   0.81377590  0.70771772  0.56543936
   0.57080259  0.87399617  0.78826176
   0.68846729  0.12196031  0.52129560
   0.19004366  0.28567593  0.25597385
   0.93355660  0.46316264  0.83303288
   0.06549557  0.20862178  0.69969851
   0.80856681  0.03751687  0.38901122
   0.30878757  0.21318172  0.83351720
   0.43400582  0.62605508  0.65496520
   0.31282154  0.54177634  0.61078361
   0.93878328  0.45777924  0.56544939
   0.68557893  0.79217941  0.74417480
   0.30887280  0.87567377  0.65492228
   0.68371628  0.78741955  0.38906565
   0.93608970  0.79215808  0.74422570
   0.06625652  0.20189310  0.34496072
   0.43673618  0.78071019  0.12417633
   0.44520044  0.12507068  0.78856680
   0.05490747  0.20276351  0.21189935
   0.06726036  0.36176782  0.16679652
   0.94028338  0.78521713  0.25601613
   0.56541974  0.20837213  0.69971277
   0.69041426  0.95834573  0.69970561
   0.68352392  0.28750525  0.38906186
   0.43885347  0.95775023  0.56541750
   0.82055844  0.37418829  0.78840956
   0.68996274  0.28542524  0.25603853
   0.18873411  0.45784529  0.56545159
   0.06769631  0.86162672  0.16672402
   0.18788511  0.29179263  0.61078274
   0.56647575  0.70227691  0.34503961
   0.31543132  0.20835469  0.69970822
   0.56606187  0.54163729  0.87562813
   0.06378350  0.70770553  0.56543066
   0.69519181  0.62500407  0.78857834
   0.30866028  0.53705809  0.38904552
   0.18848306  0.62194418  0.52130933
   0.56303989  0.87040823  0.43443232
   0.43884140  0.45776636  0.56543316
   0.43592017  0.29181882  0.74414915
   0.80340312  0.87181092  0.30035874
   0.81645621  0.70202265  0.34498568
   0.43332592  0.46432549  0.83313703
   0.68781543  0.95576205  0.47861041
   0.69075006  0.45848267  0.69969664
   0.56347138  0.87202018  0.52131081
   0.55879701  0.37564997  0.65491962
   0.80877205  0.87555380  0.65486361
   0.81333083  0.37065608  0.43423948
   0.81507984  0.53540536  0.25604325
   0.68356392  0.46303327  0.83308957
   0.18774620  0.77975348  0.12433335
   0.06382207  0.04338226  0.87557526
   0.30885839  0.37566347  0.65490036
   0.31637087  0.20180953  0.34497930
   0.81068971  0.54227684  0.74406303
   0.68415061  0.96318778  0.83312312
   0.55890449  0.87564960  0.65491827
   0.31375800  0.70773449  0.56545357
   0.31268403  0.53477611  0.12414924
   0.67998963  0.95211498  0.21158203
   0.31383635  0.20765436  0.56542690
   0.31101302  0.54233718  0.74436194
   0.68877791  0.95766171  0.56543043
   0.43783235  0.79175577  0.61079457
   0.69254310  0.61149452  0.16704787
   0.30374255  0.87227353  0.30027959
   0.31281326  0.70577804  0.47862870
   0.93776240  0.29164929  0.61075574
   0.42857838  0.62218806  0.30028789
   0.81694716  0.86193019  0.16698036
   0.55555372  0.20235476  0.21160672
   0.94189942  0.61301641  0.16695506
   0.94186072  0.79720192  0.87564784
   0.57044973  0.37474588  0.78834043
   0.06344188  0.37197307  0.52130509
   0.56346377  0.37200028  0.52131087
   0.67870906  0.12205684  0.30029265
   0.43263238  0.96398855  0.83337616
   0.18779967  0.95576544  0.47860634
   0.82073297  0.87445488  0.78839863
   0.31303014  0.37034233  0.43445256
   0.93759623  0.79182415  0.61095361
   0.43771647  0.29185042  0.61084437
   0.19139040  0.45187833  0.34498250
   0.43816804  0.28121882  0.12443041
   0.69004634  0.78542521  0.25605445
   0.19059625  0.95850905  0.69968005
   0.19083127  0.29567392  0.87585090
   0.18387059  0.12570060  0.65490238
   0.93383871  0.12579721  0.65491856
   0.30560021  0.20266154  0.21192575
   0.05868482  0.03744985  0.38903271
   0.44014177  0.95816728  0.69964921
   0.06306088  0.54165031  0.61070543
   0.94042100  0.28528921  0.25603531
   0.56287834  0.54175422  0.61075159
   0.93887513  0.95768923  0.56541899
   0.67868816  0.62198630  0.30030968
   0.93808186  0.62043230  0.43442512
   0.94540683  0.62496677  0.78857297
   0.56532024  0.70839631  0.69966936
   0.05888125  0.71313136  0.83319183
   0.92843564  0.12202248  0.30036503
   0.94020691  0.45834063  0.69964781
   0.44003857  0.78556279  0.25601220
   0.32104544  0.37541282  0.78821411
   0.42983034  0.45185178  0.21164102
   0.18846035  0.12198410  0.52130442
   0.81538937  0.70843729  0.69964582
   0.06268359  0.04181842  0.61086315
   0.55885148  0.21321176  0.83330330
   0.31348744  0.87201353  0.52129981
   0.68696373  0.28110921  0.12431159
   0.17994565  0.95235755  0.21187219
   0.68783571  0.29181478  0.61073500
   0.31255975  0.04194871  0.61084976
   0.94565733  0.12535348  0.78839204
   0.44132489  0.79636488  0.87568573
   0.81087305  0.04245256  0.74408238
   0.43850750  0.12199380  0.52131059
   0.18385831  0.62572215  0.65489601
   0.31520808  0.70816222  0.69963272
   0.93449435  0.27990604  0.12455372
   0.43783316  0.45584043  0.47862558
   0.06279764  0.70591473  0.47861779
   0.93803302  0.12039910  0.43443760
   0.42870985  0.12210798  0.30033234
   0.18781361  0.12047452  0.43443961
   0.56548377  0.04422781  0.87551487
   0.18871990  0.95783230  0.56544774
   0.68842597  0.78158958  0.12431166
   0.56437068  0.53274076  0.12452573
   0.30872860  0.03746387  0.38905695
   0.69279690  0.11197249  0.16723818
   0.80541672  0.20306493  0.21183672
   0.06557927  0.53535256  0.25599858
   0.56276062  0.70576761  0.47863920
   0.06377923  0.20768242  0.56542757
   0.55368802  0.37198796  0.30034353
   0.44126842  0.95211751  0.34501168
   0.18419506  0.96424227  0.83339402
   0.44165099  0.61261023  0.16684498
   0.93015682  0.45301053  0.21186784
   0.06225664  0.53337499  0.12460093
   0.81348265  0.37197676  0.52130285
   0.92859237  0.62202034  0.30035161
   0.31542064  0.03533048  0.25601677
   0.06340112  0.87201395  0.52131643
   0.18396753  0.46480881  0.83339288
   0.44254677  0.11124177  0.16673374
   0.31346128  0.37196562  0.52129976
   0.44594597  0.62488073  0.78833421
   0.06533677  0.03532835  0.25603140
   0.56375997  0.70765788  0.56542648
   0.17877797  0.62215668  0.30032959
   0.69586465  0.12491696  0.78841316
   0.18085263  0.45169792  0.21161447
   0.93360629  0.78751314  0.38904687
   0.69391711  0.29814862  0.87586317
   0.68775552  0.79188271  0.61082666
   0.44019693  0.45819093  0.69962604
   0.80883809  0.37562055  0.65491861
   0.68849273  0.62205822  0.52129868
   0.05892114  0.87557990  0.65490859
   0.07025189  0.87406176  0.78828511
   0.05886121  0.37556876  0.65491980
   0.68785100  0.45577383  0.47862109
   0.19002563  0.78568682  0.25597707
   0.43800743  0.12039081  0.43439324
   0.05867486  0.53759264  0.38906269
   0.93846812  0.62198457  0.52130666
   0.06307390  0.87039250  0.43442304
   0.81088015  0.53317625  0.12442691
   0.44142572  0.45175858  0.34497402
   0.81643666  0.20194235  0.34498533
   0.18616804  0.28097749  0.12439814
   0.68380618  0.12575256  0.65489270
   0.55387899  0.87212723  0.30027219
   0.06057804  0.54198139  0.74419992
   0.93556566  0.78043058  0.12452444
   0.80540355  0.70307135  0.21186208
   0.05376925  0.87210194  0.30032036
   0.17861090  0.12228133  0.30030797
   0.06639169  0.70192160  0.34497549
   0.81266903  0.04187240  0.61086173
   0.06273926  0.37041627  0.43441535
   0.56636778  0.20188751  0.34496459
   0.80358362  0.37201211  0.30034330
   0.43786370  0.95586282  0.47864237
   0.55854350  0.53744019  0.38906122
   0.06275477  0.20587195  0.47860671
   0.32037376  0.87479035  0.78838455
   0.94032382  0.95850756  0.69976227
   0.05369147  0.37212559  0.30031104
   0.68417110  0.62609548  0.65497888
   0.68876615  0.45775181  0.56544326
   0.43036559  0.95209469  0.21170638
   0.31283490  0.20577393  0.47862900
   0.43385589  0.12573296  0.65492630
   0.68803965  0.62045730  0.43443796
   0.81528545  0.20836184  0.69966819
   0.81282294  0.70587322  0.47862907
   0.56308615  0.37033046  0.43443446
   0.93779155  0.95575647  0.47860253
   0.56284892  0.20577976  0.47861939
   0.18783917  0.62043418  0.43443979
   0.31072892  0.04169457  0.74403693
   0.93388676  0.62590774  0.65489908
   0.55912000  0.71333146  0.83314711
   0.30376264  0.37212976  0.30031746
   0.55494677  0.70228140  0.21169106
   0.18789267  0.45581766  0.47863084
   0.56412147  0.03352306  0.12436383
   0.19007407  0.45809417  0.69963099
   0.81450543  0.54243901  0.87561264
   0.18367032  0.28757191  0.38907060
   0.43802041  0.62045107  0.43442439
   0.05522864  0.70312884  0.21189531
   0.81137936  0.03319524  0.12448056
   0.81648842  0.36217509  0.16700134
   0.80836428  0.71369008  0.83312904
   0.07092504  0.37459800  0.78842503
   0.44413280  0.29668192  0.87576336
   0.31350987  0.03403432  0.12446559
   0.68802384  0.12049896  0.43445759
   0.19122515  0.95163389  0.34496359
   0.05904833  0.21337889  0.83335057
   0.56273766  0.04191888  0.61086635
   0.68011228  0.45289141  0.21180501
   0.18630899  0.79147596  0.74418298
   0.81294819  0.87037198  0.43442655
   0.43368213  0.78733795  0.38905724
   0.44046883  0.28526853  0.25597124
   0.06410541  0.54235850  0.87569732
   0.56058426  0.04200684  0.74410117
   0.19423142  0.79688260  0.87600269
   0.93778582  0.45573446  0.47863091
   0.80859510  0.53758014  0.38909283
   0.81379212  0.20774313  0.56543034
   0.31634684  0.70195810  0.34496937
   0.93052382  0.95290367  0.21180910
   0.06528343  0.70829336  0.69969017
   0.31497480  0.53560910  0.25603745
   0.30565913  0.70240924  0.21189619
   0.56692585  0.86284377  0.16688481
   0.56080141  0.54243649  0.74409474
   0.69108026  0.45172748  0.34493264
   0.94127361  0.29769976  0.87592803
   0.56506511  0.03539150  0.25602048
   0.19242728  0.11166270  0.16604220
   0.30853722  0.71547530  0.83413716
   0.31832694  0.86027805  0.16591505
   0.93624267  0.29226433  0.74407042
   0.31529377  0.04187964  0.87540657
   0.19346803  0.61183916  0.16598141
   0.43322104  0.28755462  0.38898481
Direct configuration=     2
   0.06193261  0.03431764  0.12442135
   0.81482469  0.04306158  0.87577008
   0.19488820  0.12576505  0.78866587
   0.19428067  0.62486886  0.78838061
   0.31626195  0.36093673  0.16666683
   0.80985953  0.21293849  0.83330341
   0.18358809  0.78752057  0.38926602
   0.56387029  0.20742794  0.56547949
   0.06058549  0.04211184  0.74396252
   0.81331220  0.87231043  0.52136577
   0.18612099  0.29193758  0.74395370
   0.94074699  0.45193696  0.34504508
   0.93372607  0.28733905  0.38923640
   0.43840317  0.62217686  0.52138209
   0.18753657  0.79202578  0.61067278
   0.55879310  0.03771088  0.38925154
   0.93426049  0.96309496  0.83344063
   0.31426017  0.54231346  0.87546660
   0.68612070  0.29208044  0.74396087
   0.94076408  0.95200695  0.34505251
   0.81292825  0.20560045  0.47844608
   0.81309435  0.54150725  0.61070706
   0.31290214  0.87034264  0.43440510
   0.81481930  0.03545755  0.25595962
   0.69110366  0.95180056  0.34501099
   0.94210042  0.11334312  0.16689036
   0.93842188  0.12223017  0.52138182
   0.56454349  0.53529820  0.25597943
   0.69351812  0.79657556  0.87575156
   0.56706930  0.36226434  0.16689321
   0.43616357  0.79195769  0.74394564
   0.81366391  0.70773619  0.56548739
   0.57056515  0.87463626  0.78822548
   0.68843218  0.12209826  0.52136753
   0.18961724  0.28553273  0.25588006
   0.93438899  0.46244227  0.83326828
   0.06513940  0.20859887  0.69961401
   0.80897781  0.03738438  0.38919130
   0.30896599  0.21323876  0.83364004
   0.43425290  0.62598811  0.65495383
   0.31238354  0.54170144  0.61067078
   0.93876557  0.45735391  0.56553983
   0.68612454  0.79227444  0.74403363
   0.30880484  0.87580895  0.65489202
   0.68433218  0.78745860  0.38924830
   0.93624485  0.79234233  0.74407119
   0.06549435  0.20204369  0.34505337
   0.43645252  0.78177209  0.12408271
   0.44473629  0.12561976  0.78864626
   0.05555788  0.20246477  0.21190795
   0.06676956  0.36165727  0.16677601
   0.93965927  0.78537325  0.25594158
   0.56524109  0.20827151  0.69971963
   0.69033418  0.95838541  0.69970550
   0.68404092  0.28747261  0.38924594
   0.43867861  0.95753944  0.56547604
   0.82001419  0.37408103  0.78841670
   0.68940259  0.28529937  0.25595952
   0.18850686  0.45759256  0.56553008
   0.06740205  0.86230602  0.16668574
   0.18741127  0.29146593  0.61068842
   0.56600047  0.70245985  0.34507268
   0.31503528  0.20830314  0.69968228
   0.56603381  0.54171947  0.87565967
   0.06387322  0.70776030  0.56552700
   0.69499139  0.62502881  0.78850031
   0.30882652  0.53705885  0.38923746
   0.18849927  0.62213272  0.52137873
   0.56314616  0.87039487  0.43442600
   0.43875905  0.45775203  0.56546523
   0.43631911  0.29189524  0.74401652
   0.80405341  0.87162734  0.30035106
   0.81601032  0.70219413  0.34507731
   0.43357648  0.46330510  0.83333359
   0.68802475  0.95552962  0.47847019
   0.69080071  0.45834043  0.69970133
   0.56347596  0.87220268  0.52140898
   0.55929038  0.37545077  0.65490481
   0.80948872  0.87562672  0.65488746
   0.81345844  0.37072725  0.43425147
   0.81440385  0.53527479  0.25600729
   0.68407691  0.46242716  0.83336055
   0.18817057  0.78109444  0.12425615
   0.06320975  0.04423480  0.87549393
   0.30879692  0.37534963  0.65486221
   0.31567498  0.20202260  0.34506595
   0.81105543  0.54229478  0.74390227
   0.68479602  0.96352997  0.83334567
   0.55935369  0.87568886  0.65492373
   0.31362200  0.70796557  0.56551422
   0.31282730  0.53443534  0.12411805
   0.68038841  0.95256278  0.21160551
   0.31351498  0.20732351  0.56553258
   0.31137569  0.54210366  0.74411390
   0.68863272  0.95762554  0.56546396
   0.43743991  0.79197631  0.61063441
   0.69208579  0.61182474  0.16710421
   0.30444660  0.87198386  0.30028083
   0.31277445  0.70554815  0.47847398
   0.93801884  0.29138850  0.61068805
   0.42932844  0.62202968  0.30025850
   0.81671093  0.86282975  0.16692972
   0.55599011  0.20189690  0.21162140
   0.94166589  0.61337353  0.16696446
   0.94136064  0.79721636  0.87565556
   0.57000820  0.37447932  0.78832707
   0.06344305  0.37207305  0.52137945
   0.56342042  0.37214020  0.52136980
   0.67940690  0.12183513  0.30022369
   0.43270734  0.96451028  0.83356198
   0.18761460  0.95552056  0.47843306
   0.82037289  0.87495737  0.78838233
   0.31289559  0.37047193  0.43443776
   0.93796272  0.79192335  0.61088160
   0.43744083  0.29160094  0.61073015
   0.19067628  0.45201220  0.34505612
   0.43814628  0.28032731  0.12443499
   0.68946278  0.78552381  0.25600912
   0.19015649  0.95865625  0.69961989
   0.19035546  0.29513206  0.87571227
   0.18382424  0.12560722  0.65484850
   0.93440491  0.12586502  0.65489433
   0.30610249  0.20217434  0.21190642
   0.05875398  0.03732110  0.38921297
   0.43985837  0.95825969  0.69964847
   0.06292721  0.54141263  0.61065743
   0.93991811  0.28519419  0.25595281
   0.56284253  0.54164468  0.61064324
   0.93892131  0.95783970  0.56552338
   0.67923592  0.62182335  0.30028889
   0.93800180  0.62065081  0.43442133
   0.94476983  0.62504982  0.78857218
   0.56513598  0.70843611  0.69968191
   0.05922500  0.71304379  0.83338343
   0.92900865  0.12177626  0.30036242
   0.93999222  0.45824450  0.69957901
   0.43963045  0.78562685  0.25594956
   0.32043317  0.37497656  0.78833826
   0.43039670  0.45151975  0.21168973
   0.18830266  0.12222728  0.52140991
   0.81540887  0.70840500  0.69962432
   0.06273806  0.04196472  0.61075738
   0.55905392  0.21326359  0.83350556
   0.31349738  0.87210529  0.52143011
   0.68710075  0.27979585  0.12432483
   0.18059499  0.95241407  0.21181391
   0.68806011  0.29165230  0.61063741
   0.31210495  0.04196070  0.61071866
   0.94510350  0.12529714  0.78851322
   0.44151456  0.79621082  0.87571664
   0.81125827  0.04244927  0.74397134
   0.43855864  0.12212519  0.52139532
   0.18374247  0.62575038  0.65485636
   0.31491370  0.70831589  0.69965041
   0.93491783  0.27899896  0.12453714
   0.43781665  0.45573962  0.47851428
   0.06265343  0.70577862  0.47842745
   0.93794630  0.12037341  0.43442582
   0.42939845  0.12194079  0.30026071
   0.18764003  0.12045754  0.43443317
   0.56563524  0.04501274  0.87555364
   0.18864466  0.95777614  0.56558059
   0.68811048  0.78310947  0.12435915
   0.56369827  0.53224883  0.12460441
   0.30892025  0.03748302  0.38924037
   0.69228502  0.11242075  0.16709693
   0.80577881  0.20256909  0.21181912
   0.06511794  0.53516645  0.25591452
   0.56286704  0.70569539  0.47849483
   0.06363801  0.20745957  0.56556708
   0.55435164  0.37191905  0.30027098
   0.44067771  0.95221573  0.34506972
   0.18437526  0.96477200  0.83354356
   0.44124836  0.61310616  0.16677748
   0.93073279  0.45247598  0.21189374
   0.06265119  0.53272012  0.12457299
   0.81346130  0.37204227  0.52137192
   0.92912374  0.62182236  0.30037858
   0.31491045  0.03559416  0.25588457
   0.06336974  0.87225654  0.52138490
   0.18423661  0.46376516  0.83355218
   0.44233740  0.11129023  0.16667323
   0.31337808  0.37222475  0.52135026
   0.44563527  0.62460276  0.78831573
   0.06487400  0.03571403  0.25592434
   0.56360313  0.70786452  0.56543703
   0.17951158  0.62199661  0.30033222
   0.69539322  0.12522970  0.78841170
   0.18122437  0.45131031  0.21167809
   0.93377179  0.78754037  0.38924072
   0.69331204  0.29759813  0.87587128
   0.68782331  0.79200372  0.61071192
   0.43989089  0.45814555  0.69967880
   0.80967008  0.37543726  0.65491507
   0.68836098  0.62235384  0.52136457
   0.05909247  0.87580790  0.65487611
   0.06930679  0.87465379  0.78833939
   0.05889415  0.37533987  0.65489068
   0.68804254  0.45562342  0.47847791
   0.18957348  0.78573436  0.25590155
   0.43792611  0.12045426  0.43438893
   0.05872476  0.53764346  0.38924999
   0.93845414  0.62218170  0.52135000
   0.06280335  0.87042306  0.43441699
   0.81131471  0.53232389  0.12449630
   0.44083532  0.45199757  0.34501272
   0.81608842  0.20206992  0.34508450
   0.18634743  0.28034083  0.12432195
   0.68445441  0.12571148  0.65488156
   0.55449350  0.87184619  0.30024760
   0.06072980  0.54198675  0.74400641
   0.93627908  0.78178195  0.12451525
   0.80592296  0.70315936  0.21190424
   0.05430891  0.87192994  0.30034761
   0.17921627  0.12215094  0.30025652
   0.06562727  0.70211076  0.34506153
   0.81302876  0.04207415  0.61075224
   0.06253597  0.37055723  0.43440967
   0.56594895  0.20210088  0.34503071
   0.80417854  0.37180391  0.30032478
   0.43795052  0.95564069  0.47850618
   0.55900702  0.53742731  0.38925092
   0.06258715  0.20573350  0.47844050
   0.31975830  0.87564673  0.78841329
   0.94019794  0.95860716  0.69972252
   0.05429934  0.37185538  0.30030081
   0.68484336  0.62599056  0.65499845
   0.68877502  0.45756505  0.56547478
   0.43071003  0.95239148  0.21168542
   0.31281040  0.20566747  0.47849659
   0.43397342  0.12563515  0.65490244
   0.68826132  0.62065899  0.43442626
   0.81535242  0.20844835  0.69963197
   0.81295749  0.70587557  0.47843467
   0.56314435  0.37042531  0.43442179
   0.93772324  0.95553425  0.47841221
   0.56295271  0.20557540  0.47849433
   0.18763801  0.62065039  0.43444023
   0.31097354  0.04182917  0.74388964
   0.93430517  0.62580966  0.65490318
   0.55964592  0.71307677  0.83339026
   0.30444192  0.37195234  0.30024827
   0.55534799  0.70243867  0.21176490
   0.18769699  0.45568155  0.47850516
   0.56408112  0.03349446  0.12432067
   0.18970072  0.45802655  0.69962130
   0.81449170  0.54283592  0.87564065
   0.18380639  0.28749221  0.38924059
   0.43792967  0.62060725  0.43442798
   0.05587427  0.70323540  0.21187407
   0.81148841  0.03349224  0.12444932
   0.81600687  0.36178190  0.16696909
   0.80936498  0.71357479  0.83338285
   0.07027281  0.37426974  0.78856130
   0.44383961  0.29614786  0.87572961
   0.31360623  0.03330829  0.12434284
   0.68822018  0.12053103  0.43444571
   0.19050943  0.95183592  0.34503818
   0.05971992  0.21319468  0.83353125
   0.56258731  0.04201447  0.61073572
   0.68054835  0.45229116  0.21183837
   0.18645882  0.79169370  0.74394403
   0.81317953  0.87043303  0.43441772
   0.43397254  0.78733956  0.38924474
   0.43983596  0.28522316  0.25588176
   0.06373204  0.54246124  0.87560757
   0.56109096  0.04208732  0.74398533
   0.19330832  0.79689448  0.87593758
   0.93781315  0.45559659  0.47844333
   0.80900475  0.53765027  0.38927507
   0.81386819  0.20760051  0.56552058
   0.31574762  0.70219187  0.34500871
   0.93113794  0.95301075  0.21179973
   0.06490160  0.70847476  0.69964277
   0.31455723  0.53530093  0.25598413
   0.30606106  0.70255106  0.21184753
   0.56638778  0.86364920  0.16679468
   0.56125744  0.54225477  0.74394488
   0.69078462  0.45195956  0.34502062
   0.94124338  0.29721676  0.87584699
   0.56461366  0.03551398  0.25590001
   0.19215806  0.11156975  0.16605453
   0.30851374  0.71517223  0.83433248
   0.31797540  0.86115751  0.16589222
   0.93610750  0.29217946  0.74389853
   0.31516174  0.04296090  0.87520961
   0.19318885  0.61233323  0.16609229
   0.43346407  0.28745151  0.38918617
Direct configuration=     3
   0.06199793  0.03416348  0.12439214
   0.81488386  0.04320399  0.87577577
   0.19468343  0.12588646  0.78871503
   0.19403422  0.62479807  0.78840539
   0.31620857  0.36095812  0.16665778
   0.81013096  0.21283823  0.83336530
   0.18359361  0.78752328  0.38932468
   0.56388519  0.20735654  0.56549419
   0.06066374  0.04208049  0.74391517
   0.81327265  0.87239731  0.52137909
   0.18624698  0.29191881  0.74390584
   0.94056417  0.45198017  0.34507478
   0.93377786  0.28732886  0.38928358
   0.43838710  0.62226765  0.52140380
   0.18745648  0.79209591  0.61063871
   0.55892179  0.03771362  0.38930635
   0.93450846  0.96316236  0.83350203
   0.31427889  0.54223413  0.87544332
   0.68625402  0.29208100  0.74392872
   0.94057237  0.95205417  0.34508060
   0.81296529  0.20553357  0.47839549
   0.81318395  0.54142745  0.61068703
   0.31283013  0.87034395  0.43440368
   0.81460851  0.03550848  0.25593407
   0.69101940  0.95184113  0.34503842
   0.94191415  0.11335785  0.16686257
   0.93841287  0.12230108  0.52140472
   0.56439170  0.53526464  0.25597033
   0.69346809  0.79651505  0.87576272
   0.56705994  0.36214302  0.16688265
   0.43629055  0.79194992  0.74387904
   0.81363093  0.70774163  0.56550153
   0.57049523  0.87482478  0.78821480
   0.68842185  0.12213888  0.52138871
   0.18949165  0.28549056  0.25585244
   0.93463414  0.46223010  0.83333761
   0.06503450  0.20859212  0.69958912
   0.80909885  0.03734536  0.38924434
   0.30901854  0.21325556  0.83367622
   0.43432567  0.62596838  0.65495048
   0.31225454  0.54167938  0.61063755
   0.93876035  0.45722864  0.56556646
   0.68628524  0.79230243  0.74399205
   0.30878483  0.87584876  0.65488311
   0.68451358  0.78747010  0.38930209
   0.93629054  0.79239659  0.74402568
   0.06526987  0.20208804  0.34508065
   0.43636898  0.78208484  0.12405514
   0.44459959  0.12578147  0.78866966
   0.05574944  0.20237678  0.21191048
   0.06662501  0.36162471  0.16676998
   0.93947546  0.78541923  0.25591963
   0.56518847  0.20824188  0.69972166
   0.69031059  0.95839709  0.69970547
   0.68419319  0.28746299  0.38930015
   0.43862711  0.95747735  0.56549329
   0.81985390  0.37404944  0.78841881
   0.68923761  0.28526229  0.25593625
   0.18843993  0.45751813  0.56555320
   0.06731539  0.86250608  0.16667447
   0.18727172  0.29136971  0.61066064
   0.56586049  0.70251373  0.34508241
   0.31491864  0.20828795  0.69967464
   0.56602555  0.54174367  0.87566896
   0.06389964  0.70777644  0.56555537
   0.69493236  0.62503609  0.78847733
   0.30887547  0.53705907  0.38929399
   0.18850405  0.62218825  0.52139917
   0.56317746  0.87039093  0.43442414
   0.43873480  0.45774782  0.56547467
   0.43643661  0.29191775  0.74397746
   0.80424493  0.87157328  0.30034880
   0.81587900  0.70224463  0.34510429
   0.43365028  0.46300458  0.83339148
   0.68808640  0.95546116  0.47842890
   0.69081563  0.45829853  0.69970272
   0.56347731  0.87225643  0.52143789
   0.55943569  0.37539211  0.65490045
   0.80969980  0.87564820  0.65489449
   0.81349602  0.37074821  0.43425500
   0.81420476  0.53523633  0.25599670
   0.68422800  0.46224865  0.83344036
   0.18829556  0.78148938  0.12423341
   0.06302941  0.04448589  0.87546997
   0.30877882  0.37525720  0.65485098
   0.31547002  0.20208536  0.34509147
   0.81116314  0.54230006  0.74385492
   0.68498610  0.96363076  0.83341121
   0.55948599  0.87570042  0.65492535
   0.31358195  0.70803363  0.56553207
   0.31286950  0.53433498  0.12410887
   0.68050585  0.95269466  0.21161243
   0.31342033  0.20722607  0.56556370
   0.31148250  0.54203489  0.74404085
   0.68858996  0.95761488  0.56547383
   0.43732432  0.79204126  0.61058724
   0.69195110  0.61192200  0.16712081
   0.30465395  0.87189854  0.30028120
   0.31276302  0.70548044  0.47842841
   0.93809437  0.29131169  0.61066811
   0.42954934  0.62198303  0.30024984
   0.81664136  0.86309468  0.16691481
   0.55611864  0.20176205  0.21162572
   0.94159710  0.61347871  0.16696723
   0.94121335  0.79722061  0.87565784
   0.56987816  0.37440082  0.78832314
   0.06344339  0.37210249  0.52140135
   0.56340765  0.37218141  0.52138715
   0.67961242  0.12176984  0.30020338
   0.43272942  0.96466394  0.83361670
   0.18756009  0.95544843  0.47838202
   0.82026684  0.87510536  0.78837753
   0.31285596  0.37051009  0.43443340
   0.93807066  0.79195257  0.61086039
   0.43735964  0.29152746  0.61069651
   0.19046596  0.45205163  0.34507781
   0.43813988  0.28006474  0.12443633
   0.68929091  0.78555285  0.25599577
   0.19002697  0.95869960  0.69960217
   0.19021532  0.29497247  0.87567144
   0.18381059  0.12557972  0.65483264
   0.93457167  0.12588499  0.65488720
   0.30625043  0.20203084  0.21190073
   0.05877435  0.03728318  0.38926606
   0.43977490  0.95828691  0.69964825
   0.06288784  0.54134262  0.61064330
   0.93976999  0.28516621  0.25592851
   0.56283199  0.54161242  0.61061133
   0.93893491  0.95788402  0.56555412
   0.67939724  0.62177537  0.30028277
   0.93797822  0.62071516  0.43442022
   0.94458222  0.62507428  0.78857195
   0.56508171  0.70844783  0.69968561
   0.05932624  0.71301800  0.83343986
   0.92917742  0.12170374  0.30036165
   0.93992899  0.45821619  0.69955875
   0.43951024  0.78564571  0.25593112
   0.32025284  0.37484807  0.78837483
   0.43056350  0.45142196  0.21170407
   0.18825622  0.12229890  0.52144097
   0.81541462  0.70839549  0.69961799
   0.06275411  0.04200781  0.61072623
   0.55911355  0.21327885  0.83356513
   0.31350031  0.87213232  0.52146849
   0.68714111  0.27940905  0.12432873
   0.18078624  0.95243072  0.21179675
   0.68812620  0.29160445  0.61060867
   0.31197100  0.04196423  0.61068004
   0.94494039  0.12528055  0.78854891
   0.44157042  0.79616545  0.87572574
   0.81137173  0.04244830  0.74393864
   0.43857370  0.12216389  0.52142028
   0.18370835  0.62575869  0.65484469
   0.31482700  0.70836114  0.69965562
   0.93504255  0.27873181  0.12453225
   0.43781178  0.45570993  0.47848150
   0.06261096  0.70573854  0.47837139
   0.93792075  0.12036585  0.43442235
   0.42960126  0.12189155  0.30023962
   0.18758891  0.12045254  0.43443128
   0.56567985  0.04524392  0.87556506
   0.18862250  0.95775960  0.56561971
   0.68801756  0.78355710  0.12437313
   0.56350023  0.53210395  0.12462758
   0.30897670  0.03748866  0.38929439
   0.69213426  0.11255277  0.16705533
   0.80588546  0.20242305  0.21181394
   0.06498207  0.53511164  0.25588977
   0.56289838  0.70567412  0.47845231
   0.06359641  0.20739394  0.56560816
   0.55454709  0.37189875  0.30024962
   0.44050374  0.95224466  0.34508681
   0.18442833  0.96492801  0.83358760
   0.44112978  0.61325222  0.16675760
   0.93090242  0.45231854  0.21190136
   0.06276739  0.53252725  0.12456475
   0.81345501  0.37206157  0.52139226
   0.92928025  0.62176405  0.30038653
   0.31476019  0.03567182  0.25584563
   0.06336050  0.87232798  0.52140507
   0.18431586  0.46345779  0.83359910
   0.44227574  0.11130450  0.16665541
   0.31335357  0.37230107  0.52136513
   0.44554377  0.62452089  0.78831029
   0.06473771  0.03582761  0.25589281
   0.56355693  0.70792538  0.56544014
   0.17972763  0.62194947  0.30033299
   0.69525437  0.12532181  0.78841126
   0.18133385  0.45119615  0.21169683
   0.93382053  0.78754840  0.38929781
   0.69313384  0.29743599  0.87587367
   0.68784327  0.79203936  0.61067813
   0.43980075  0.45813218  0.69969433
   0.80991512  0.37538328  0.65491403
   0.68832217  0.62244090  0.52138398
   0.05914293  0.87587505  0.65486654
   0.06902845  0.87482815  0.78835537
   0.05890385  0.37527245  0.65488211
   0.68809895  0.45557913  0.47843574
   0.18944032  0.78574836  0.25587931
   0.43790217  0.12047295  0.43438765
   0.05873945  0.53765843  0.38930515
   0.93845002  0.62223976  0.52136277
   0.06272366  0.87043206  0.43441521
   0.81144270  0.53207285  0.12451673
   0.44066143  0.45206795  0.34502411