unknown system                          
            1
     9.726678    0.000000    0.000000
     0.000000    8.423550    0.000000
     0.000000    0.000000   45.000000
   Fe   Mn
 273  15
Direct configuration=     1
   0.43668878  0.94599971  0.21230144
   0.06253561  0.70788831  0.56572656
   0.43750220  0.11379016  0.16730401
   0.68700363  0.63201618  0.78760023
   0.93795069  0.61997592  0.43438699
   0.68791584  0.28609787  0.38953990
   0.81229554  0.54748489  0.74347400
   0.93765356  0.29172845  0.61051601
   0.56230267  0.52966234  0.12538833
   0.43731318  0.29224647  0.61062009
   0.93778093  0.62139986  0.52144339
   0.06243153  0.03527708  0.38940017
   0.81400115  0.37338978  0.52155602
   0.06280673  0.38287988  0.78781103
   0.81252596  0.21200717  0.69937153
   0.18849032  0.63162504  0.78754000
   0.06259296  0.53078715  0.25653294
   0.68729393  0.29975668  0.87473268
   0.06269697  0.04735793  0.74347838
   0.93741505  0.96209337  0.69918866
   0.81262358  0.71196631  0.69934089
   0.18784159  0.62001907  0.43442101
   0.93752321  0.95187957  0.34531668
   0.31230877  0.19580058  0.21230549
   0.43730652  0.61980703  0.43429354
   0.93728983  0.45778176  0.56552979
   0.43790234  0.45811436  0.56563193
   0.18746651  0.12277104  0.52134593
   0.06211423  0.21305384  0.83276269
   0.56282430  0.53043877  0.25647760
   0.31254008  0.38270600  0.78779384
   0.18727646  0.79728382  0.74354388
   0.93752268  0.94459678  0.21257626
   0.43745679  0.28556004  0.38940760
   0.81195583  0.69481203  0.21229425
   0.68757468  0.12626226  0.65472707
   0.06238788  0.36583075  0.30061903
   0.06272650  0.70168572  0.34524465
   0.06240960  0.21246519  0.69940020
   0.93696813  0.96331994  0.83275736
   0.81281399  0.20198898  0.34520621
   0.06235331  0.54749428  0.87469232
   0.93745915  0.11620196  0.30079516
   0.81240050  0.53570847  0.38943192
   0.68763752  0.61553717  0.30072530
   0.56272124  0.87000150  0.43427911
   0.68697858  0.80007799  0.87452183
   0.43719846  0.62648039  0.65478410
   0.43823907  0.63236855  0.78766864
   0.31260889  0.36971723  0.43434151
   0.06217806  0.37327003  0.52150776
   0.68749673  0.12164070  0.52135639
   0.93746802  0.28097874  0.25646437
   0.06258458  0.53561032  0.38945132
   0.56212673  0.21384828  0.83271382
   0.93795876  0.79192541  0.61064282
   0.43734370  0.11998101  0.43438407
   0.56219953  0.69536588  0.21220168
   0.81241507  0.37583743  0.65474614
   0.93718942  0.44533100  0.21242213
   0.18814292  0.27745326  0.12543159
   0.06253060  0.36421590  0.16740421
   0.56281960  0.86470578  0.16729313
   0.18744120  0.77819242  0.12526285
   0.93737071  0.79715256  0.74359635
   0.18784029  0.28041081  0.25648082
   0.81262336  0.04237928  0.61058742
   0.56222918  0.04717936  0.74348268
   0.56240165  0.03560138  0.38945534
   0.81266387  0.86404515  0.16741038
   0.31229196  0.37615116  0.65462038
   0.06190978  0.71384277  0.83262551
   0.68677467  0.46396781  0.83260183
   0.68757004  0.11580516  0.30072084
   0.31259162  0.70808351  0.56569170
   0.06291812  0.20849314  0.56565275
   0.81216518  0.36586363  0.30061475
   0.81271142  0.87594590  0.65476951
   0.31233434  0.87653955  0.65475487
   0.68819658  0.13254123  0.78761310
   0.81219592  0.86953317  0.43413093
   0.68739141  0.29654699  0.74346147
   0.93738856  0.61589849  0.30068550
   0.43725429  0.95512782  0.47862584
   0.43751840  0.79907619  0.87459507
   0.81430602  0.70557652  0.47860895
   0.56254403  0.88215702  0.78769520
   0.18731926  0.11963985  0.43435917
   0.81254076  0.38332833  0.78775544
   0.06223209  0.87654055  0.65462882
   0.68665810  0.45460322  0.47856997
   0.43711900  0.79237989  0.61055528
   0.43747249  0.29634937  0.74347351
   0.31266211  0.88178146  0.78781942
   0.68826053  0.11372008  0.16719085
   0.18775234  0.29249924  0.61054990
   0.56247200  0.87600298  0.65474408
   0.18839438  0.79941482  0.87458508
   0.31273348  0.20102704  0.34525930
   0.31255554  0.53096041  0.25651221
   0.56270661  0.20485432  0.47855007
   0.31268425  0.86535709  0.30067790
   0.31199133  0.21362830  0.83272295
   0.43738649  0.95803492  0.56557252
   0.56276518  0.21179054  0.69939241
   0.31238225  0.04871337  0.87479386
   0.18680725  0.29647101  0.74361462
   0.56260803  0.70188727  0.34527721
   0.68651044  0.27815740  0.12538439
   0.06373462  0.20492398  0.47856017
   0.43724386  0.27860749  0.12538273
   0.56238354  0.70834789  0.56562404
   0.56212876  0.36556073  0.30063793
   0.56140136  0.70516068  0.47866614
   0.56258896  0.54874271  0.87471729
   0.18701285  0.28578278  0.38943424
   0.81277854  0.70802262  0.56569304
   0.43786389  0.95173215  0.34529282
   0.31242594  0.71340345  0.83259892
   0.56201255  0.53562793  0.38938530
   0.06151596  0.70549311  0.47852550
   0.93697877  0.45594216  0.47865486
   0.56260652  0.36438814  0.16742411
   0.93761817  0.77794387  0.12531795
   0.18762813  0.45805518  0.56556286
   0.31231337  0.69526556  0.21211003
   0.81291353  0.53021480  0.25648451
   0.56262081  0.04223703  0.61052489
   0.31239654  0.52935089  0.12533169
   0.93699473  0.46454147  0.83279441
   0.18790640  0.95131366  0.34528349
   0.43753313  0.45138488  0.34518369
   0.31226105  0.03103027  0.25648075
   0.31234227  0.03564157  0.38946801
   0.81176015  0.04687716  0.74346848
   0.93755137  0.78104638  0.25638637
   0.56270390  0.71149486  0.69942806
   0.56229521  0.86558729  0.30059437
   0.68757762  0.61395691  0.16749489
   0.68792084  0.78085286  0.25643435
   0.31265682  0.86421066  0.16730879
   0.56204367  0.37324132  0.52145772
   0.18661070  0.96387753  0.83278978
   0.68675227  0.44595488  0.21252336
   0.68754407  0.95212548  0.34519930
   0.06204219  0.52992749  0.12523704
   0.43742434  0.46213928  0.69945018
   0.06253493  0.54271081  0.61061391
   0.31258171  0.71219812  0.69933778
   0.81139474  0.20505067  0.47854122
   0.81055479  0.87273988  0.52147854
   0.31250322  0.04234976  0.61051715
   0.56258359  0.36974566  0.43427303
   0.43776540  0.13195578  0.78773272
   0.68738306  0.96102726  0.69928315
   0.06335696  0.04850743  0.87478481
   0.68772424  0.79182901  0.61050890
   0.68754039  0.45213713  0.34521536
   0.06257821  0.88170346  0.78763708
   0.81205237  0.54227908  0.61055789
   0.06305521  0.03117340  0.25653691
   0.43820912  0.45542688  0.47854991
   0.31289756  0.04679085  0.74343310
   0.31237760  0.54819210  0.87474524
   0.18754313  0.44614512  0.21252310
   0.43703515  0.44577716  0.21228863
   0.18775160  0.96242415  0.69926952
   0.81216464  0.71381511  0.83269951
   0.68757896  0.28019796  0.25639158
   0.31269646  0.53541778  0.38943130
   0.93749718  0.29649266  0.74361008
   0.06354211  0.87229206  0.52136680
   0.18758821  0.46380925  0.83257548
   0.06233318  0.71260915  0.69933705
   0.93780541  0.95806306  0.56543329
   0.43794975  0.96178330  0.69922315
   0.56231482  0.37597310  0.65475729
   0.56267498  0.04889560  0.87473797
   0.56200793  0.71361117  0.83259485
   0.81277811  0.88218471  0.78774349
   0.56225298  0.20778642  0.56544041
   0.68748676  0.46194659  0.69940714
   0.81255189  0.53034422  0.12531591
   0.31280247  0.70530958  0.47855139
   0.93766847  0.46310767  0.69928806
   0.06225848  0.04195242  0.61054873
   0.93780313  0.11941020  0.43471987
   0.43741034  0.61584472  0.30066757
   0.43730837  0.96428153  0.83260160
   0.93747708  0.62623305  0.65482505
   0.68757100  0.95821501  0.56574177
   0.43790834  0.28038758  0.25646590
   0.56260217  0.54713991  0.74352082
   0.81247665  0.36971810  0.43411142
   0.43762716  0.78520703  0.38947217
   0.56276716  0.54258746  0.61057535
   0.68718508  0.78555352  0.38939179
   0.18738088  0.79247274  0.61056700
   0.81210630  0.19534040  0.21225740
   0.18829423  0.29902569  0.87466595
   0.31266781  0.54316677  0.61057424
   0.56298298  0.38309992  0.78796326
   0.31270244  0.70171495  0.34531542
   0.43770364  0.78076224  0.25663331
   0.43730888  0.62231818  0.52148062
   0.93779720  0.61329544  0.16709052
   0.81140293  0.02921566  0.12527831
   0.93744670  0.28623262  0.38932055
   0.31266224  0.36569104  0.30064126
   0.68702521  0.77897823  0.12532620
   0.18791892  0.62187850  0.52153313
   0.81306593  0.54810499  0.87479942
   0.68738518  0.62582615  0.65467392
   0.06214540  0.86550023  0.30063430
   0.68733965  0.79732523  0.74339139
   0.18748433  0.62649191  0.65480361
   0.81219518  0.86564207  0.30059188
   0.06250187  0.20141579  0.34520856
   0.56246386  0.02885398  0.12519851
   0.31246767  0.54694246  0.74342836
   0.31209980  0.02900521  0.12523406
   0.06206415  0.19593740  0.21228723
   0.93720983  0.29953003  0.87463879
   0.06204949  0.69464288  0.21220822
   0.81159688  0.04862836  0.87472683
   0.43755607  0.12649693  0.65467821
   0.93729561  0.78568065  0.38939278
   0.43725971  0.12254493  0.52135444
   0.18732365  0.95828160  0.56578906
   0.93738003  0.63228385  0.78756402
   0.81268612  0.03114472  0.25653450
   0.18778350  0.46284680  0.69920843
   0.18798631  0.61412646  0.16736071
   0.43678491  0.77795089  0.12537888
   0.18791936  0.45113240  0.34529027
   0.31196732  0.37308693  0.52143288
   0.06298572  0.86347805  0.16741252
   0.68720456  0.96449630  0.83265589
   0.18769462  0.78549574  0.38940752
   0.56219446  0.19536887  0.21225414
   0.43803680  0.30022391  0.87464511
   0.56318491  0.87329619  0.52153889
   0.18703043  0.61603528  0.30065574
   0.43784113  0.61373390  0.16726734
   0.68729626  0.45811598  0.56559742
   0.43733555  0.79690280  0.74349620
   0.06271263  0.36983010  0.43419729
   0.18709052  0.12662520  0.65468811
   0.18725598  0.95563454  0.47852577
   0.93803964  0.11455526  0.16729902
   0.18828686  0.45522227  0.47863344
   0.06258964  0.37645165  0.65469509
   0.31241395  0.20814774  0.56562368
   0.56285863  0.03087189  0.25650212
   0.31294861  0.87275997  0.52139560
   0.81291888  0.36386504  0.16736944
   0.06332976  0.02922141  0.12533332
   0.18744255  0.11396382  0.16729860
   0.81285205  0.70180844  0.34523004
   0.31227125  0.20483700  0.47855452
   0.43704985  0.46400479  0.83279253
   0.81232080  0.21415376  0.83268242
   0.68787345  0.11989465  0.43433695
   0.06290204  0.86953873  0.43438435
   0.18681433  0.94525907  0.21235165
   0.18725017  0.11554932  0.30063228
   0.93724230  0.12652939  0.65473324
   0.31315964  0.36459494  0.16742373
   0.31264993  0.87014253  0.43450826
   0.56282848  0.20154254  0.34526630
   0.81251807  0.03525634  0.38937557
   0.81250503  0.20830144  0.56567227
   0.68798025  0.95605212  0.47859020
   0.18889432  0.13238496  0.78731468
   0.93777710  0.12340689  0.52141051
   0.93727870  0.27881457  0.12564898
   0.93786013  0.45204777  0.34534473
   0.06200511  0.54719095  0.74354735
   0.93773640  0.95452254  0.47849274
   0.68723398  0.94521460  0.21260444
   0.93687000  0.13274750  0.78721144
   0.68734403  0.61999926  0.43469921
   0.31265223  0.21213549  0.69941722
   0.18762077  0.78088292  0.25642128
   0.68763200  0.29229800  0.61077149
   0.43727762  0.11585493  0.30070659
   0.93798702  0.79805595  0.87438707
   0.68717638  0.62257696  0.52135897
Direct configuration=     2
   0.43671057  0.94601943  0.21228699
   0.06253011  0.70781671  0.56569588
   0.43749776  0.11376451  0.16735024
   0.68697129  0.63194400  0.78760860
   0.93796382  0.62004201  0.43437660
   0.68792515  0.28608791  0.38954905
   0.81229196  0.54738347  0.74347509
   0.93766079  0.29174995  0.61049843
   0.56235024  0.52962647  0.12536439
   0.43730753  0.29224966  0.61059635
   0.93786075  0.62199545  0.52150346
   0.06242428  0.03531049  0.38941263
   0.81351919  0.37328313  0.52155872
   0.06276737  0.38268399  0.78780860
   0.81251716  0.21201485  0.69934045
   0.18845038  0.63154497  0.78755586
   0.06258087  0.53084100  0.25653590
   0.68727265  0.29960104  0.87477389
   0.06268948  0.04732372  0.74347391
   0.93740644  0.96205443  0.69916631
   0.81262752  0.71196834  0.69931685
   0.18783027  0.62010457  0.43445330
   0.93751890  0.95181607  0.34534354
   0.31232624  0.19595313  0.21231054
   0.43727341  0.61992371  0.43429278
   0.93728237  0.45773843  0.56556071
   0.43789955  0.45804688  0.56562091
   0.18755674  0.12263947  0.52141229
   0.06211593  0.21319803  0.83272832
   0.56277823  0.53048799  0.25647553
   0.31254129  0.38253004  0.78778910
   0.18731989  0.79721165  0.74353416
   0.93755375  0.94467107  0.21255592
   0.43745504  0.28558014  0.38941923
   0.81201307  0.69502430  0.21229177
   0.68752144  0.12630804  0.65469808
   0.06240107  0.36585999  0.30065190
   0.06272827  0.70158843  0.34526246
   0.06239288  0.21246651  0.69937186
   0.93702789  0.96332251  0.83273433
   0.81275008  0.20193317  0.34523434
   0.06237386  0.54755873  0.87471261
   0.93747603  0.11620413  0.30081776
   0.81239807  0.53572797  0.38943762
   0.68768630  0.61550874  0.30075141
   0.56267649  0.87004785  0.43431025
   0.68697860  0.79988513  0.87455697
   0.43721628  0.62652421  0.65476160
   0.43821534  0.63227055  0.78767712
   0.31262755  0.36976263  0.43436594
   0.06232671  0.37321018  0.52150383
   0.68747094  0.12203296  0.52141939
   0.93743039  0.28098090  0.25647338
   0.06255814  0.53560503  0.38946376
   0.56217058  0.21393583  0.83265715
   0.93795396  0.79195637  0.61063315
   0.43731672  0.12000317  0.43438964
   0.56219046  0.69555212  0.21221165
   0.81240714  0.37594676  0.65472353
   0.93724533  0.44542309  0.21239330
   0.18812726  0.27764960  0.12540702
   0.06242815  0.36399028  0.16742695
   0.56282689  0.86453987  0.16734637
   0.18743605  0.77835136  0.12523149
   0.93736052  0.79712225  0.74358374
   0.18784664  0.28047976  0.25647644
   0.81265732  0.04235746  0.61057757
   0.56224996  0.04711715  0.74348251
   0.56240939  0.03560924  0.38946310
   0.81263311  0.86391609  0.16745117
   0.31232527  0.37622679  0.65460510
   0.06185342  0.71403581  0.83259750
   0.68681379  0.46404507  0.83255892
   0.68758152  0.11579905  0.30074685
   0.31259561  0.70803554  0.56566658
   0.06291139  0.20841896  0.56565095
   0.81221321  0.36586211  0.30064577
   0.81267156  0.87605056  0.65474800
   0.31236113  0.87661759  0.65473448
   0.68814729  0.13248298  0.78762785
   0.81221260  0.86959863  0.43412718
   0.68741734  0.29656551  0.74348513
   0.93742539  0.61587885  0.30070813
   0.43743550  0.95503823  0.47857987
   0.43750664  0.79893479  0.87462875
   0.81372378  0.70530312  0.47858172
   0.56253271  0.88198481  0.78769094
   0.18734985  0.11968538  0.43434667
   0.81252400  0.38311690  0.78774995
   0.06225495  0.87659547  0.65460493
   0.68697436  0.45452469  0.47854907
   0.43711116  0.79240272  0.61054897
   0.43744098  0.29639739  0.74349046
   0.31265985  0.88163644  0.78781405
   0.68824632  0.11369082  0.16722673
   0.18773783  0.29247514  0.61053878
   0.56247708  0.87612111  0.65473421
   0.18837528  0.79923860  0.87462135
   0.31273629  0.20095412  0.34527280
   0.31256163  0.53099288  0.25650917
   0.56267897  0.20496440  0.47852660
   0.31264850  0.86542232  0.30070788
   0.31197511  0.21372392  0.83267312
   0.43738911  0.95799659  0.56556605
   0.56276869  0.21180580  0.69935582
   0.31234571  0.04872687  0.87481143
   0.18689103  0.29652347  0.74362054
   0.56262333  0.70181665  0.34530105
   0.68654688  0.27835352  0.12535098
   0.06343691  0.20520104  0.47852910
   0.43725883  0.27877344  0.12534206
   0.56235416  0.70829517  0.56561811
   0.56218519  0.36556314  0.30065824
   0.56173913  0.70530088  0.47862374
   0.56259886  0.54875638  0.87473905
   0.18701792  0.28578558  0.38945681
   0.81280452  0.70794835  0.56568788
   0.43783758  0.95168464  0.34532246
   0.31244926  0.71358707  0.83255375
   0.56208464  0.53563587  0.38939681
   0.06193085  0.70507721  0.47851550
   0.93711135  0.45552325  0.47858082
   0.56259335  0.36424638  0.16746994
   0.93763535  0.77813872  0.12527643
   0.18761553  0.45799626  0.56557495
   0.31232217  0.69542501  0.21212965
   0.81287047  0.53027921  0.25648931
   0.56262044  0.04223327  0.61051863
   0.31237880  0.52930492  0.12530623
   0.93704283  0.46461093  0.83274853
   0.18794583  0.95128928  0.34530479
   0.43752050  0.45129040  0.34520445
   0.31231675  0.03100721  0.25647678
   0.31234803  0.03564889  0.38947782
   0.81179124  0.04685953  0.74346335
   0.93750814  0.78110232  0.25637830
   0.56272346  0.71151738  0.69939154
   0.56231573  0.86564696  0.30062566
   0.68755826  0.61386101  0.16752645
   0.68789152  0.78088139  0.25642493
   0.31265473  0.86409654  0.16736228
   0.56207074  0.37304709  0.52149653
   0.18662403  0.96393237  0.83276281
   0.68674584  0.44604288  0.21250129
   0.68747130  0.95205820  0.34521746
   0.06210508  0.52987826  0.12522295
   0.43741944  0.46209667  0.69941777
   0.06253533  0.54266745  0.61060950
   0.31255354  0.71219399  0.69931456
   0.81167316  0.20525717  0.47852028
   0.81113938  0.87289599  0.52152120
   0.31250326  0.04233515  0.61050673
   0.56254647  0.36978653  0.43428374
   0.43772626  0.13190791  0.78774545
   0.68735836  0.96102660  0.69925458
   0.06334947  0.04856656  0.87479950
   0.68772510  0.79186540  0.61049414
   0.68752710  0.45203165  0.34523497
   0.06257405  0.88162585  0.78764987
   0.81210919  0.54225006  0.61054780
   0.06297791  0.03112262  0.25653664
   0.43801700  0.45523260  0.47851843
   0.31290301  0.04676659  0.74343512
   0.31235247  0.54824043  0.87476702
   0.18760264  0.44623075  0.21250652
   0.43704125  0.44588963  0.21227323
   0.18774040  0.96239065  0.69923748
   0.81225931  0.71403727  0.83267350
   0.68752572  0.28027095  0.25639559
   0.31269588  0.53542032  0.38944809
   0.93748625  0.29655416  0.74361462
   0.06331480  0.87239504  0.52142811
   0.18758680  0.46388990  0.83253791
   0.06232511  0.71261381  0.69931156
   0.93779198  0.95792837  0.56539651
   0.43795735  0.96178668  0.69918979
   0.56230554  0.37605872  0.65474061
   0.56268013  0.04889545  0.87475682
   0.56205869  0.71376470  0.83254192
   0.81273623  0.88204970  0.78773926
   0.56231177  0.20777699  0.56542136
   0.68750903  0.46195863  0.69937089
   0.81251743  0.53029788  0.12530119
   0.31267854  0.70516264  0.47852672
   0.93769239  0.46306653  0.69926120
   0.06223537  0.04196153  0.61052579
   0.93781730  0.11952368  0.43473355
   0.43739741  0.61584224  0.30068879
   0.43732198  0.96429298  0.83256705
   0.93749518  0.62627789  0.65479186
   0.68754621  0.95816431  0.56575557
   0.43790719  0.28046001  0.25646423
   0.56258704  0.54704606  0.74353170
   0.81252213  0.36981205  0.43414224
   0.43765079  0.78523022  0.38949984
   0.56271706  0.54255377  0.61056018
   0.68719052  0.78554597  0.38940688
   0.18737732  0.79246844  0.61054523
   0.81212629  0.19543197  0.21225025
   0.18824612  0.29886185  0.87471990
   0.31265527  0.54311889  0.61055837
   0.56295024  0.38292398  0.78794550
   0.31265336  0.70164647  0.34533514
   0.43771234  0.78080264  0.25661134
   0.43721408  0.62242802  0.52153596
   0.93774548  0.61319610  0.16713471
   0.81139646  0.02920236  0.12526131
   0.93747168  0.28620797  0.38933354
   0.31261195  0.36570286  0.30066601
   0.68707451  0.77909870  0.12529281
   0.18783890  0.62237922  0.52154098
   0.81299656  0.54812034  0.87481624
   0.68739720  0.62592131  0.65465445
   0.06219438  0.86554797  0.30065808
   0.68734516  0.79730895  0.74340124
   0.18747133  0.62650721  0.65477634
   0.81222495  0.86566591  0.30061876
   0.06253155  0.20136693  0.34522846
   0.56251667  0.02887655  0.12517533
   0.31250060  0.54687373  0.74342951
   0.31209531  0.02902938  0.12521472
   0.06210243  0.19601661  0.21228287
   0.93719872  0.29932445  0.87469181
   0.06210254  0.69483866  0.21221790
   0.81160008  0.04863050  0.87473825
   0.43757423  0.12654104  0.65465883
   0.93728335  0.78569539  0.38941550
   0.43722504  0.12270224  0.52139729
   0.18736494  0.95820932  0.56576150
   0.93738200  0.63218369  0.78759170
   0.81266207  0.03111397  0.25653231
   0.18772453  0.46281694  0.69917483
   0.18794902  0.61400168  0.16740265
   0.43681806  0.77811533  0.12532793
   0.18789676  0.45107011  0.34531602
   0.31227878  0.37292838  0.52145614
   0.06290025  0.86340475  0.16745650
   0.68728202  0.96448818  0.83262634
   0.18771122  0.78552546  0.38942244
   0.56221712  0.19550911  0.21225894
   0.43802454  0.30003043  0.87469948
   0.56301557  0.87331358  0.52154910
   0.18701195  0.61598842  0.30068444
   0.43783092  0.61364316  0.16732048
   0.68731878  0.45795801  0.56558750
   0.43735532  0.79690786  0.74350391
   0.06267950  0.36992021  0.43423648
   0.18716659  0.12666932  0.65466325
   0.18746521  0.95548092  0.47850346
   0.93797983  0.11457548  0.16732377
   0.18804905  0.45514274  0.47856469
   0.06260701  0.37652669  0.65467920
   0.31242159  0.20807853  0.56560163
   0.56282245  0.03086982  0.25649886
   0.31271387  0.87277490  0.52144054
   0.81299125  0.36366869  0.16739626
   0.06334541  0.02922626  0.12531894
   0.18739353  0.11395395  0.16732228
   0.81281236  0.70171772  0.34525033
   0.31229485  0.20503379  0.47852615
   0.43708317  0.46407369  0.83273607
   0.81240809  0.21424296  0.83263856
   0.68783645  0.11992463  0.43433401
   0.06289722  0.86959741  0.43437395
   0.18685762  0.94534018  0.21233948
   0.18726811  0.11555397  0.30065838
   0.93723239  0.12657711  0.65470264
   0.31308546  0.36443449  0.16747025
   0.31265682  0.87017347  0.43451648
   0.56279031  0.20147152  0.34528470
   0.81255782  0.03530272  0.38938632
   0.81243542  0.20824982  0.56566729
   0.68774218  0.95563313  0.47852611
   0.18885467  0.13231848  0.78734123
   0.93775584  0.12312407  0.52141297
   0.93730784  0.27892164  0.12563413
   0.93783703  0.45190196  0.34536373
   0.06202865  0.54714796  0.74354063
   0.93763685  0.95470321  0.47851215
   0.68725686  0.94529847  0.21259034
   0.93683615  0.13270483  0.78724038
   0.68734649  0.62009883  0.43472949
   0.31265884  0.21213136  0.69937572
   0.18759934  0.78090099  0.25640144
   0.68763546  0.29226027  0.61075967
   0.43728558  0.11587084  0.30074080
   0.93791481  0.79799135  0.87440400
   0.68724310  0.62266091  0.52134810
Direct configuration=     3
   0.43674194  0.94604782  0.21226618
   0.06252219  0.70771362  0.56565170
   0.43749137  0.11372759  0.16741680
   0.68692471  0.63184006  0.78762065
   0.93798271  0.62013715  0.43436163
   0.68793856  0.28607357  0.38956223
   0.81228679  0.54723744  0.74347667
   0.93767121  0.29178090  0.61047312
   0.56241874  0.52957484  0.12532991
   0.43729939  0.29225425  0.61056216
   0.93797568  0.62285300  0.52158995
   0.06241384  0.03535861  0.38943058
   0.81282523  0.37312957  0.52156261
   0.06271071  0.38240194  0.78780509
   0.81250449  0.21202590  0.69929571
   0.18839287  0.63142968  0.78757870
   0.06256346  0.53091854  0.25654015
   0.68724201  0.29937692  0.87483323
   0.06267871  0.04727446  0.74346747
   0.93739405  0.96199836  0.69913412
   0.81263319  0.71197128  0.69928223
   0.18781397  0.62022768  0.43449980
   0.93751269  0.95172465  0.34538223
   0.31235139  0.19617279  0.21231781
   0.43722575  0.62009172  0.43429168
   0.93727162  0.45767606  0.56560524
   0.43789554  0.45794972  0.56560505
   0.18768666  0.12245002  0.52150785
   0.06211837  0.21340565  0.83267883
   0.56271190  0.53055885  0.25647255
   0.31254304  0.38227668  0.78778227
   0.18738243  0.79710775  0.74352017
   0.93759849  0.94477804  0.21252664
   0.43745252  0.28560907  0.38943596
   0.81209548  0.69532993  0.21228821
   0.68744478  0.12637396  0.65465634
   0.06242007  0.36590209  0.30069922
   0.06273082  0.70144835  0.34528809
   0.06236881  0.21246842  0.69933104
   0.93711393  0.96332620  0.83270116
   0.81265806  0.20185282  0.34527484
   0.06240344  0.54765153  0.87474183
   0.93750033  0.11620727  0.30085031
   0.81239456  0.53575603  0.38944583
   0.68775654  0.61546781  0.30078900
   0.56261204  0.87011459  0.43435509
   0.68697864  0.79960743  0.87460756
   0.43724194  0.62658730  0.65472922
   0.43818116  0.63212945  0.78768932
   0.31265441  0.36982799  0.43440111
   0.06254076  0.37312400  0.52149818
   0.68743380  0.12259777  0.52151011
   0.93737621  0.28098402  0.25648635
   0.06252007  0.53559741  0.38948166
   0.56223370  0.21406190  0.83257555
   0.93794706  0.79200094  0.61061923
   0.43727787  0.12003507  0.43439765
   0.56217739  0.69582029  0.21222600
   0.81239572  0.37610420  0.65469097
   0.93732583  0.44555568  0.21235180
   0.18810470  0.27793231  0.12537165
   0.06228062  0.36366543  0.16745970
   0.56283740  0.86430098  0.16742302
   0.18742863  0.77858022  0.12518634
   0.93734586  0.79707860  0.74356558
   0.18785577  0.28057904  0.25647013
   0.81270621  0.04232603  0.61056338
   0.56227988  0.04702756  0.74348227
   0.56242053  0.03562055  0.38947428
   0.81258882  0.86373026  0.16750991
   0.31237323  0.37633569  0.65458310
   0.06177226  0.71431375  0.83255717
   0.68687011  0.46415631  0.83249714
   0.68759804  0.11579025  0.30078432
   0.31260137  0.70796646  0.56563040
   0.06290170  0.20831214  0.56564835
   0.81228237  0.36585992  0.30069043
   0.81261415  0.87620125  0.65471703
   0.31239970  0.87672996  0.65470512
   0.68807631  0.13239912  0.78764910
   0.81223663  0.86969289  0.43412178
   0.68745468  0.29659218  0.74351920
   0.93747843  0.61585058  0.30074071
   0.43769642  0.95490923  0.47851367
   0.43748971  0.79873118  0.87467724
   0.81288544  0.70490945  0.47854252
   0.56251641  0.88173687  0.78768481
   0.18739389  0.11975094  0.43432867
   0.81249987  0.38281248  0.78774206
   0.06228786  0.87667455  0.65457052
   0.68742972  0.45441161  0.47851897
   0.43709987  0.79243557  0.61053990
   0.43739562  0.29646652  0.74351486
   0.31265661  0.88142763  0.78780631
   0.68822586  0.11364868  0.16727838
   0.18771694  0.29244044  0.61052277
   0.56248440  0.87629120  0.65472001
   0.18834777  0.79898488  0.87467359
   0.31274034  0.20084912  0.34529224
   0.31257040  0.53103963  0.25650480
   0.56263918  0.20512290  0.47849281
   0.31259701  0.86551623  0.30075105
   0.31195176  0.21386161  0.83260137
   0.43739289  0.95794141  0.56555674
   0.56277374  0.21182777  0.69930313
   0.31229309  0.04874631  0.87483673
   0.18701166  0.29659902  0.74362907
   0.56264536  0.70171497  0.34533539
   0.68659935  0.27863590  0.12530287
   0.06300826  0.20559997  0.47848437
   0.43728038  0.27901239  0.12528349
   0.56231185  0.70821926  0.56560958
   0.56226644  0.36556661  0.30068748
   0.56222548  0.70550275  0.47856270
   0.56261310  0.54877605  0.87477040
   0.18702522  0.28578961  0.38948931
   0.81284192  0.70784141  0.56568046
   0.43779970  0.95161622  0.34536515
   0.31248283  0.71385145  0.83248871
   0.56218845  0.53564729  0.38941338
   0.06252824  0.70447836  0.47850109
   0.93730225  0.45492008  0.47847422
   0.56257439  0.36404225  0.16753592
   0.93766009  0.77841929  0.12521665
   0.18759738  0.45791143  0.56559237
   0.31233483  0.69565460  0.21215790
   0.81280848  0.53037195  0.25649624
   0.56261992  0.04222785  0.61050963
   0.31235326  0.52923874  0.12526958
   0.93711209  0.46471093  0.83268248
   0.18800261  0.95125418  0.34533547
   0.43750233  0.45115437  0.34523434
   0.31239695  0.03097400  0.25647105
   0.31235632  0.03565942  0.38949194
   0.81183602  0.04683414  0.74345597
   0.93744590  0.78118286  0.25636668
   0.56275162  0.71154980  0.69933897
   0.56234527  0.86573287  0.30067071
   0.68753038  0.61372292  0.16757189
   0.68784930  0.78092247  0.25641138
   0.31265171  0.86393220  0.16743930
   0.56210970  0.37276742  0.52155240
   0.18664324  0.96401132  0.83272397
   0.68673658  0.44616958  0.21246949
   0.68736651  0.95196132  0.34524361
   0.06219564  0.52980737  0.12520266
   0.43741237  0.46203534  0.69937110
   0.06253589  0.54260501  0.61060315
   0.31251298  0.71218806  0.69928113
   0.81207404  0.20555450  0.47849013
   0.81198112  0.87312075  0.52158263
   0.31250330  0.04231411  0.61049172
   0.56249302  0.36984538  0.43429915
   0.43766991  0.13183898  0.78776377
   0.68732278  0.96102565  0.69921344
   0.06333870  0.04865171  0.87482066
   0.68772634  0.79191779  0.61047288
   0.68750798  0.45187976  0.34526320
   0.06256806  0.88151409  0.78766828
   0.81219101  0.54220828  0.61053327
   0.06286660  0.03104951  0.25653626
   0.43774036  0.45495288  0.47847310
   0.31291087  0.04673167  0.74343802
   0.31231630  0.54831002  0.87479839
   0.18768832  0.44635405  0.21248265
   0.43705003  0.44605157  0.21225106
   0.18772428  0.96234242  0.69919136
   0.81239562  0.71435715  0.83263604
   0.68744907  0.28037604  0.25640137
   0.31269504  0.53542399  0.38947226
   0.93747052  0.29664271  0.74362115
   0.06298749  0.87254332  0.52151639
   0.18758477  0.46400602  0.83248382
   0.06231348  0.71262051  0.69927486
   0.93777264  0.95773445  0.56534356
   0.43796829  0.96179154  0.69914175
   0.56229219  0.37618201  0.65471659
   0.56268755  0.04889523  0.87478397
   0.56213180  0.71398576  0.83246571
   0.81267592  0.88185529  0.78773318
   0.56239642  0.20776342  0.56539393
   0.68754109  0.46197597  0.69931869
   0.81246782  0.53023116  0.12528000
   0.31250010  0.70495107  0.47849121
   0.93772684  0.46300728  0.69922253
   0.06220210  0.04197465  0.61049277
   0.93783771  0.11968708  0.43475324
   0.43737880  0.61583867  0.30071933
   0.43734157  0.96430946  0.83251732
   0.93752125  0.62634245  0.65474408
   0.68751052  0.95809131  0.56577543
   0.43790555  0.28056429  0.25646184
   0.56256525  0.54691092  0.74354737
   0.81258761  0.36994732  0.43418662
   0.43768481  0.78526362  0.38953968
   0.56264492  0.54250526  0.61053835
   0.68719834  0.78553508  0.38942861
   0.18737219  0.79246226  0.61051390
   0.81215508  0.19556383  0.21223996
   0.18817685  0.29862594  0.87479759
   0.31263721  0.54304996  0.61053553
   0.56290309  0.38267064  0.78791993
   0.31258270  0.70154789  0.34536353
   0.43772487  0.78086079  0.25657971
   0.43707759  0.62258619  0.52161566
   0.93767101  0.61305306  0.16719832