 288 288   0   0
  0.1280206E+02  0.9726678E-09  0.8423550E-09  0.4500000E-08  0.2500000E-15
  1.000000000000000E-004
  CAR 
 unknown system                          
      6.85000377     -6.02025882  301      4.29654585      1.00000000
     -6.020  0.0000E+00  0.0000E+00
     -5.977  0.0000E+00  0.0000E+00
     -5.934  0.0000E+00  0.0000E+00
     -5.892  0.0000E+00  0.0000E+00
     -5.849  0.0000E+00  0.0000E+00
     -5.806  0.0000E+00  0.0000E+00
     -5.763  0.0000E+00  0.0000E+00
     -5.720  0.0000E+00  0.0000E+00
     -5.677  0.0000E+00  0.0000E+00
     -5.634  0.0000E+00  0.0000E+00
     -5.591  0.0000E+00  0.0000E+00
     -5.548  0.0000E+00  0.0000E+00
     -5.505  0.0000E+00  0.0000E+00
     -5.463  0.0000E+00  0.0000E+00
     -5.420  0.0000E+00  0.0000E+00
     -5.377  0.1941E-15  0.8327E-17
     -5.334  0.4788E-14  0.2137E-15
     -5.291  0.1033E-12  0.4645E-14
     -5.248  0.1887E-11  0.8559E-13
     -5.205  0.2933E-10  0.1344E-11
     -5.162  0.3881E-09  0.1800E-10
     -5.119  0.4373E-08  0.2056E-09
     -5.076  0.4196E-07  0.2006E-08
     -5.034  0.3433E-06  0.1673E-07
     -4.991  0.2396E-05  0.1195E-06
     -4.948  0.1428E-04  0.7323E-06
     -4.905  0.7288E-04  0.3859E-05
     -4.862  0.3190E-03  0.1754E-04
     -4.819  0.1202E-02  0.6912E-04
     -4.776  0.3919E-02  0.2373E-03
     -4.733  0.1112E-01  0.7145E-03
     -4.690  0.2772E-01  0.1904E-02
     -4.647  0.6122E-01  0.4530E-02
     -4.605  0.1213E+00  0.9732E-02
     -4.562  0.2178E+00  0.1907E-01
     -4.519  0.3583E+00  0.3444E-01
     -4.476  0.5444E+00  0.5780E-01
     -4.433  0.7686E+00  0.9078E-01
     -4.390  0.1013E+01  0.1343E+00
     -4.347  0.1253E+01  0.1880E+00
     -4.304  0.1462E+01  0.2507E+00
     -4.261  0.1619E+01  0.3202E+00
     -4.218  0.1721E+01  0.3940E+00
     -4.176  0.1782E+01  0.4705E+00
     -4.133  0.1833E+01  0.5491E+00
     -4.090  0.1916E+01  0.6313E+00
     -4.047  0.2061E+01  0.7197E+00
     -4.004  0.2276E+01  0.8174E+00
     -3.961  0.2542E+01  0.9264E+00
     -3.918  0.2813E+01  0.1047E+01
     -3.875  0.3036E+01  0.1177E+01
     -3.832  0.3165E+01  0.1313E+01
     -3.789  0.3188E+01  0.1450E+01
     -3.747  0.3131E+01  0.1584E+01
     -3.704  0.3050E+01  0.1715E+01
     -3.661  0.3009E+01  0.1844E+01
     -3.618  0.3056E+01  0.1975E+01
     -3.575  0.3206E+01  0.2113E+01
     -3.532  0.3430E+01  0.2260E+01
     -3.489  0.3676E+01  0.2418E+01
     -3.446  0.3889E+01  0.2585E+01
     -3.403  0.4033E+01  0.2758E+01
     -3.360  0.4107E+01  0.2934E+01
     -3.318  0.4131E+01  0.3111E+01
     -3.275  0.4139E+01  0.3289E+01
     -3.232  0.4161E+01  0.3467E+01
     -3.189  0.4220E+01  0.3648E+01
     -3.146  0.4326E+01  0.3834E+01
     -3.103  0.4477E+01  0.4026E+01
     -3.060  0.4663E+01  0.4226E+01
     -3.017  0.4862E+01  0.4434E+01
     -2.974  0.5049E+01  0.4651E+01
     -2.931  0.5199E+01  0.4874E+01
     -2.888  0.5300E+01  0.5101E+01
     -2.846  0.5361E+01  0.5331E+01
     -2.803  0.5407E+01  0.5563E+01
     -2.760  0.5470E+01  0.5798E+01
     -2.717  0.5564E+01  0.6037E+01
     -2.674  0.5664E+01  0.6280E+01
     -2.631  0.5711E+01  0.6525E+01
     -2.588  0.5657E+01  0.6767E+01
     -2.545  0.5517E+01  0.7004E+01
     -2.502  0.5389E+01  0.7235E+01
     -2.459  0.5413E+01  0.7467E+01
     -2.417  0.5693E+01  0.7712E+01
     -2.374  0.6220E+01  0.7978E+01
     -2.331  0.6856E+01  0.8273E+01
     -2.288  0.7392E+01  0.8590E+01
     -2.245  0.7644E+01  0.8918E+01
     -2.202  0.7556E+01  0.9242E+01
     -2.159  0.7232E+01  0.9552E+01
     -2.116  0.6888E+01  0.9848E+01
     -2.073  0.6749E+01  0.1014E+02
     -2.030  0.6934E+01  0.1043E+02
     -1.988  0.7406E+01  0.1075E+02
     -1.945  0.8006E+01  0.1110E+02
     -1.902  0.8531E+01  0.1146E+02
     -1.859  0.8834E+01  0.1184E+02
     -1.816  0.8886E+01  0.1222E+02
     -1.773  0.8779E+01  0.1260E+02
     -1.730  0.8666E+01  0.1297E+02
     -1.687  0.8667E+01  0.1334E+02
     -1.644  0.8813E+01  0.1372E+02
     -1.601  0.9058E+01  0.1411E+02
     -1.559  0.9339E+01  0.1451E+02
     -1.516  0.9618E+01  0.1492E+02
     -1.473  0.9890E+01  0.1535E+02
     -1.430  0.1014E+02  0.1578E+02
     -1.387  0.1035E+02  0.1623E+02
     -1.344  0.1047E+02  0.1667E+02
     -1.301  0.1056E+02  0.1713E+02
     -1.258  0.1079E+02  0.1759E+02
     -1.215  0.1136E+02  0.1808E+02
     -1.172  0.1235E+02  0.1861E+02
     -1.130  0.1358E+02  0.1919E+02
     -1.087  0.1472E+02  0.1982E+02
     -1.044  0.1543E+02  0.2048E+02
     -1.001  0.1561E+02  0.2115E+02
     -0.958  0.1551E+02  0.2182E+02
     -0.915  0.1555E+02  0.2249E+02
     -0.872  0.1611E+02  0.2318E+02
     -0.829  0.1731E+02  0.2392E+02
     -0.786  0.1907E+02  0.2474E+02
     -0.743  0.2129E+02  0.2565E+02
     -0.701  0.2404E+02  0.2668E+02
     -0.658  0.2756E+02  0.2787E+02
     -0.615  0.3193E+02  0.2923E+02
     -0.572  0.3687E+02  0.3082E+02
     -0.529  0.4176E+02  0.3261E+02
     -0.486  0.4593E+02  0.3458E+02
     -0.443  0.4909E+02  0.3668E+02
     -0.400  0.5138E+02  0.3889E+02
     -0.357  0.5313E+02  0.4117E+02
     -0.314  0.5460E+02  0.4351E+02
     -0.272  0.5581E+02  0.4590E+02
     -0.229  0.5664E+02  0.4833E+02
     -0.186  0.5702E+02  0.5078E+02
     -0.143  0.5701E+02  0.5323E+02
     -0.100  0.5686E+02  0.5567E+02
     -0.057  0.5685E+02  0.5811E+02
     -0.014  0.5725E+02  0.6056E+02
      0.029  0.5828E+02  0.6306E+02
      0.072  0.6003E+02  0.6564E+02
      0.115  0.6251E+02  0.6832E+02
      0.157  0.6563E+02  0.7113E+02
      0.200  0.6920E+02  0.7410E+02
      0.243  0.7299E+02  0.7723E+02
      0.286  0.7668E+02  0.8052E+02
      0.329  0.7997E+02  0.8395E+02
      0.372  0.8262E+02  0.8750E+02
      0.415  0.8460E+02  0.9113E+02
      0.458  0.8600E+02  0.9482E+02
      0.501  0.8691E+02  0.9855E+02
      0.544  0.8735E+02  0.1023E+03
      0.586  0.8729E+02  0.1060E+03
      0.629  0.8678E+02  0.1098E+03
      0.672  0.8589E+02  0.1134E+03
      0.715  0.8465E+02  0.1171E+03
      0.758  0.8305E+02  0.1206E+03
      0.801  0.8111E+02  0.1241E+03
      0.844  0.7905E+02  0.1275E+03
      0.887  0.7725E+02  0.1308E+03
      0.930  0.7608E+02  0.1341E+03
      0.973  0.7570E+02  0.1373E+03
      1.015  0.7590E+02  0.1406E+03
      1.058  0.7625E+02  0.1439E+03
      1.101  0.7633E+02  0.1471E+03
      1.144  0.7597E+02  0.1504E+03
      1.187  0.7524E+02  0.1536E+03
      1.230  0.7437E+02  0.1568E+03
      1.273  0.7357E+02  0.1600E+03
      1.316  0.7289E+02  0.1631E+03
      1.359  0.7221E+02  0.1662E+03
      1.402  0.7130E+02  0.1693E+03
      1.444  0.6998E+02  0.1723E+03
      1.487  0.6832E+02  0.1752E+03
      1.530  0.6675E+02  0.1781E+03
      1.573  0.6586E+02  0.1809E+03
      1.616  0.6615E+02  0.1837E+03
      1.659  0.6775E+02  0.1866E+03
      1.702  0.7036E+02  0.1896E+03
      1.745  0.7348E+02  0.1928E+03
      1.788  0.7666E+02  0.1961E+03
      1.831  0.7967E+02  0.1995E+03
      1.874  0.8242E+02  0.2030E+03
      1.916  0.8488E+02  0.2067E+03
      1.959  0.8704E+02  0.2104E+03
      2.002  0.8897E+02  0.2142E+03
      2.045  0.9073E+02  0.2181E+03
      2.088  0.9230E+02  0.2221E+03
      2.131  0.9362E+02  0.2261E+03
      2.174  0.9471E+02  0.2302E+03
      2.217  0.9580E+02  0.2343E+03
      2.260  0.9731E+02  0.2384E+03
      2.303  0.9964E+02  0.2427E+03
      2.345  0.1030E+03  0.2471E+03
      2.388  0.1071E+03  0.2517E+03
      2.431  0.1116E+03  0.2565E+03
      2.474  0.1158E+03  0.2615E+03
      2.517  0.1193E+03  0.2666E+03
      2.560  0.1220E+03  0.2718E+03
      2.603  0.1241E+03  0.2772E+03
      2.646  0.1260E+03  0.2826E+03
      2.689  0.1279E+03  0.2881E+03
      2.732  0.1300E+03  0.2936E+03
      2.774  0.1325E+03  0.2993E+03
      2.817  0.1353E+03  0.3051E+03
      2.860  0.1384E+03  0.3111E+03
      2.903  0.1410E+03  0.3171E+03
      2.946  0.1423E+03  0.3232E+03
      2.989  0.1413E+03  0.3293E+03
      3.032  0.1375E+03  0.3352E+03
      3.075  0.1310E+03  0.3408E+03
      3.118  0.1226E+03  0.3461E+03
      3.161  0.1135E+03  0.3509E+03
      3.203  0.1049E+03  0.3554E+03
      3.246  0.9774E+02  0.3596E+03
      3.289  0.9239E+02  0.3636E+03
      3.332  0.8878E+02  0.3674E+03
      3.375  0.8655E+02  0.3711E+03
      3.418  0.8527E+02  0.3748E+03
      3.461  0.8456E+02  0.3784E+03
      3.504  0.8403E+02  0.3820E+03
      3.547  0.8345E+02  0.3856E+03
      3.590  0.8281E+02  0.3891E+03
      3.632  0.8248E+02  0.3927E+03
      3.675  0.8304E+02  0.3962E+03
      3.718  0.8495E+02  0.3999E+03
      3.761  0.8826E+02  0.4037E+03
      3.804  0.9254E+02  0.4076E+03
      3.847  0.9708E+02  0.4118E+03
      3.890  0.1012E+03  0.4161E+03
      3.933  0.1046E+03  0.4206E+03
      3.976  0.1070E+03  0.4252E+03
      4.019  0.1085E+03  0.4299E+03
      4.061  0.1089E+03  0.4345E+03
      4.104  0.1084E+03  0.4392E+03
      4.147  0.1074E+03  0.4438E+03
      4.190  0.1061E+03  0.4483E+03
      4.233  0.1048E+03  0.4528E+03
      4.276  0.1035E+03  0.4573E+03
      4.319  0.1025E+03  0.4617E+03
      4.362  0.1018E+03  0.4660E+03
      4.405  0.1014E+03  0.4704E+03
      4.448  0.1012E+03  0.4747E+03
      4.490  0.1008E+03  0.4791E+03
      4.533  0.9990E+02  0.4833E+03
      4.576  0.9864E+02  0.4876E+03
      4.619  0.9745E+02  0.4918E+03
      4.662  0.9689E+02  0.4959E+03
      4.705  0.9737E+02  0.5001E+03
      4.748  0.9897E+02  0.5043E+03
      4.791  0.1014E+03  0.5087E+03
      4.834  0.1041E+03  0.5132E+03
      4.877  0.1066E+03  0.5177E+03
      4.919  0.1083E+03  0.5224E+03
      4.962  0.1088E+03  0.5270E+03
      5.005  0.1077E+03  0.5317E+03
      5.048  0.1044E+03  0.5361E+03
      5.091  0.9820E+02  0.5404E+03
      5.134  0.8842E+02  0.5441E+03
      5.177  0.7508E+02  0.5474E+03
      5.220  0.5928E+02  0.5499E+03
      5.263  0.4299E+02  0.5518E+03
      5.306  0.2837E+02  0.5530E+03
      5.348  0.1692E+02  0.5537E+03
      5.391  0.9073E+01  0.5541E+03
      5.434  0.4359E+01  0.5543E+03
      5.477  0.1872E+01  0.5544E+03
      5.520  0.7175E+00  0.5544E+03
      5.563  0.2452E+00  0.5544E+03
      5.606  0.7461E-01  0.5544E+03
      5.649  0.2020E-01  0.5544E+03
      5.692  0.4857E-02  0.5544E+03
      5.735  0.1035E-02  0.5544E+03
      5.777  0.1949E-03  0.5544E+03
      5.820  0.3232E-04  0.5544E+03
      5.863  0.4702E-05  0.5544E+03
      5.906  0.5978E-06  0.5544E+03
      5.949  0.6615E-07  0.5544E+03
      5.992  0.6349E-08  0.5544E+03
      6.035  0.5267E-09  0.5544E+03
      6.078  0.3766E-10  0.5544E+03
      6.121  0.2314E-11  0.5544E+03
      6.164  0.1221E-12  0.5544E+03
      6.206  0.5305E-14  0.5544E+03
      6.249  0.1941E-15  0.5544E+03
      6.292  0.0000E+00  0.5544E+03
      6.335  0.0000E+00  0.5544E+03
      6.378  0.0000E+00  0.5544E+03
      6.421  0.0000E+00  0.5544E+03
      6.464  0.0000E+00  0.5544E+03
      6.507  0.0000E+00  0.5544E+03
      6.550  0.0000E+00  0.5544E+03
      6.593  0.0000E+00  0.5544E+03
      6.635  0.0000E+00  0.5544E+03
      6.678  0.0000E+00  0.5544E+03
      6.721  0.0000E+00  0.5544E+03
      6.764  0.0000E+00  0.5544E+03
      6.807  0.0000E+00  0.5544E+03
      6.850  0.0000E+00  0.5544E+03
