<?xml version="1.0" encoding="ISO-8859-1"?>
<modeling>
 <generator>
  <i name="program" type="string">vasp </i>
  <i name="version" type="string">5.4.4.18Apr17-6-g9f103f2a35  </i>
  <i name="subversion" type="string">(build Sep 27 2018 12:46:37) complex + VL-xray_ parallel </i>
  <i name="platform" type="string">LLNL_Quartz_ifc </i>
  <i name="date" type="string">2021 09 26 </i>
  <i name="time" type="string">17:59:27 </i>
 </generator>
 <incar>
  <i type="int" name="ISTART">     2</i>
  <i type="string" name="PREC">accurate</i>
  <i type="string" name="ALGO"> Fast</i>
  <i type="int" name="ICHARG">     2</i>
  <i type="int" name="INIWAV">     1</i>
  <i type="int" name="NELM">   200</i>
  <i type="int" name="NELMIN">     4</i>
  <i type="int" name="IBRION">     2</i>
  <i name="EDIFF">      0.00000100</i>
  <i type="int" name="NSW">     5</i>
  <i type="int" name="ISIF">     2</i>
  <i type="int" name="ISYM">     2</i>
  <i name="ENCUT">    450.00000000</i>
  <i name="POTIM">      0.25000000</i>
  <i type="string" name="LREAL"> Auto</i>
  <i type="int" name="ISMEAR">     0</i>
  <i name="SIGMA">      0.15000000</i>
  <i type="logical" name="LWAVE"> F  </i>
  <i type="logical" name="LCHARG"> F  </i>
  <i type="int" name="ICORELEVEL">     0</i>
  <i type="int" name="CLNT">     1</i>
  <i type="int" name="CLN">     1</i>
  <i type="int" name="INCAR     ">     0</i>
  <i name="CLZ">      0.00000000</i>
  <v type="int" name="KPOINT_BSE">    -1     0     0     0</v>
  <i type="int" name="NELM">   200</i>
 </incar>
 <structure name="primitive_cell" >
  <crystal>
   <varray name="basis" >
    <v>       9.72667804       0.00000000       0.00000000 </v>
    <v>       0.00000000       8.42355028       0.00000000 </v>
    <v>       0.00000000       0.00000000      45.00000000 </v>
   </varray>
   <i name="volume">   3686.99226691 </i>
   <varray name="rec_basis" >
    <v>       0.10281002       0.00000000       0.00000000 </v>
    <v>       0.00000000       0.11871479       0.00000000 </v>
    <v>       0.00000000       0.00000000       0.02222222 </v>
   </varray>
  </crystal>
  <varray name="positions" >
   <v>       0.05318198      -0.29866278       0.21134232 </v>
   <v>      -0.05978610      -0.21187824       0.25544296 </v>
   <v>       0.06496231      -0.46241004       0.25536433 </v>
   <v>      -0.07080639      -0.04934453       0.21159716 </v>
   <v>      -0.05964218      -0.38975288       0.16645016 </v>
   <v>      -0.07128411       0.45103886       0.21135291 </v>
   <v>       0.17860613      -0.04883570       0.21145834 </v>
   <v>       0.17806230       0.45088790       0.21147001 </v>
   <v>      -0.19715120      -0.29861568       0.21142744 </v>
   <v>       0.30382424      -0.29882209       0.21134895 </v>
   <v>       0.06653310      -0.13712346       0.16637178 </v>
   <v>       0.18994795      -0.21185483       0.25544327 </v>
   <v>       0.19060885      -0.38968495       0.16627222 </v>
   <v>      -0.18544814      -0.46245050       0.25549398 </v>
   <v>      -0.18206200      -0.13670733       0.16606405 </v>
   <v>       0.06522954       0.03731734       0.25508832 </v>
   <v>       0.06700952       0.36395015       0.16644467 </v>
   <v>       0.31453204      -0.46221228       0.25553426 </v>
   <v>       0.31816107      -0.13704190       0.16609002 </v>
   <v>      -0.31004312      -0.21187968       0.25543107 </v>
   <v>      -0.30878391      -0.38759090       0.16669008 </v>
   <v>      -0.05928774       0.11065060       0.16665107 </v>
   <v>      -0.06380330      -0.21587241       0.12415092 </v>
   <v>      -0.05996806       0.28825339       0.25546241 </v>
   <v>      -0.18516815       0.03746639       0.25533910 </v>
   <v>      -0.18270894       0.36314270       0.16671278 </v>
   <v>       0.05836593      -0.47401289       0.12451215 </v>
   <v>       0.18675324      -0.21536945       0.12427990 </v>
   <v>       0.17761115      -0.37616658       0.29957999 </v>
   <v>       0.05374514       0.20035454       0.21155316 </v>
   <v>      -0.07228400      -0.37639555       0.29965800 </v>
   <v>      -0.32153003      -0.04863524       0.21145567 </v>
   <v>      -0.32148754       0.45093995       0.21131945 </v>
   <v>       0.42874150       0.45113546       0.21149461 </v>
   <v>       0.19131695       0.11172043       0.16657305 </v>
   <v>       0.18993773       0.28822183       0.25545261 </v>
   <v>       0.42971429      -0.04914329       0.21145163 </v>
   <v>       0.05280233      -0.12608803       0.29984381 </v>
   <v>       0.31486438       0.03777881       0.25516266 </v>
   <v>       0.43993850      -0.21187609       0.25543872 </v>
   <v>       0.44029962      -0.38975068       0.16635414 </v>
   <v>       0.31728996       0.36413482       0.16569060 </v>
   <v>       0.05993653       0.02852782       0.12409672 </v>
   <v>      -0.19270824      -0.47387711       0.12408407 </v>
   <v>       0.05251810       0.37383465       0.29971551 </v>
   <v>      -0.19623739       0.20109713       0.21126808 </v>
   <v>       0.30375600       0.20087271       0.21134528 </v>
   <v>      -0.44680468      -0.29847144       0.21134993 </v>
   <v>       0.30274937      -0.12582290       0.29978254 </v>
   <v>      -0.19733991      -0.12603436       0.29977029 </v>
   <v>       0.31028512      -0.47346914       0.12393805 </v>
   <v>      -0.43275000      -0.13622265       0.16639625 </v>
   <v>      -0.30893282       0.11117665       0.16668994 </v>
   <v>      -0.43499363      -0.46247352       0.25541537 </v>
   <v>      -0.31189481      -0.21646740       0.12419802 </v>
   <v>      -0.31005763       0.28820746       0.25548591 </v>
   <v>      -0.19008852       0.02789814       0.12396539 </v>
   <v>      -0.06557639       0.28334722       0.12418687 </v>
   <v>       0.31148722       0.02768014       0.12401597 </v>
   <v>       0.30272856       0.37381569       0.29970269 </v>
   <v>      -0.19728439       0.37367171       0.29963383 </v>
   <v>       0.42755749      -0.37627967       0.29962656 </v>
   <v>       0.18630385       0.28326498       0.12414792 </v>
   <v>      -0.32234414      -0.37624451       0.29961426 </v>
   <v>       0.43679972      -0.21544754       0.12413292 </v>
   <v>       0.17770626       0.12390048       0.29973367 </v>
   <v>      -0.07236228       0.12395212       0.29983478 </v>
   <v>       0.44058502       0.11076291       0.16659910 </v>
   <v>       0.43988389       0.28821603       0.25547950 </v>
   <v>      -0.43519721       0.03749286       0.25540518 </v>
   <v>      -0.43385252       0.36369331       0.16664277 </v>
   <v>       0.06518458      -0.29087586       0.34403240 </v>
   <v>      -0.31338694       0.28339306       0.12414649 </v>
   <v>      -0.44106336      -0.47413390       0.12389771 </v>
   <v>      -0.18471860      -0.29058881       0.34408727 </v>
   <v>      -0.05965013       0.45941528       0.34418713 </v>
   <v>      -0.44674358       0.20150958       0.21130254 </v>
   <v>      -0.44741585      -0.12592306       0.29986448 </v>
   <v>      -0.05965144      -0.04047442       0.34415606 </v>
   <v>       0.19036610       0.45943768       0.34416413 </v>
   <v>       0.43517700       0.28380255       0.12386608 </v>
   <v>       0.42760877       0.12376393       0.29972234 </v>
   <v>      -0.32224729       0.12385103       0.29975251 </v>
   <v>       0.31533679      -0.29056220       0.34415634 </v>
   <v>       0.19022319      -0.04068852       0.34419151 </v>
   <v>      -0.44007544       0.02708866       0.12407329 </v>
   <v>      -0.44733778       0.37382137       0.29967313 </v>
   <v>      -0.30978244       0.45928204       0.34418596 </v>
   <v>       0.06506482       0.20916474       0.34397604 </v>
   <v>      -0.30976826      -0.04065703       0.34417502 </v>
   <v>       0.44024186       0.45925512       0.34418524 </v>
   <v>       0.44029659      -0.04066447       0.34417602 </v>
   <v>      -0.18488956       0.20922132       0.34401593 </v>
   <v>      -0.43478082      -0.29057215       0.34411632 </v>
   <v>       0.31522834       0.20932819       0.34412360 </v>
   <v>       0.06202150      -0.45849317       0.38848848 </v>
   <v>      -0.06319422      -0.20834150       0.38850468 </v>
   <v>       0.18656615      -0.20855784       0.38841819 </v>
   <v>      -0.18839890      -0.45846209       0.38843004 </v>
   <v>       0.31219192      -0.45820418       0.38859819 </v>
   <v>       0.06210011       0.04180829       0.38854446 </v>
   <v>      -0.43481326       0.20935294       0.34409011 </v>
   <v>      -0.06271658       0.29194211       0.38862018 </v>
   <v>      -0.31320545      -0.20848116       0.38847019 </v>
   <v>       0.18699741       0.29179636       0.38849151 </v>
   <v>      -0.18779628       0.04189794       0.38861401 </v>
   <v>       0.43678102      -0.20840225       0.38845005 </v>
   <v>       0.31211785       0.04200226       0.38867428 </v>
   <v>      -0.31300886       0.29175160       0.38848449 </v>
   <v>      -0.43807111      -0.45828793       0.38851704 </v>
   <v>       0.43695405       0.29167729       0.38850750 </v>
   <v>      -0.43772855       0.04204505       0.38867875 </v>
   <v>      -0.06766776      -0.37466121       0.43330869 </v>
   <v>       0.18336708      -0.37494515       0.43313135 </v>
   <v>       0.05828850      -0.12538212       0.43313821 </v>
   <v>       0.05832097       0.37501518       0.43309592 </v>
   <v>      -0.19154082      -0.12506335       0.43307953 </v>
   <v>       0.30833810      -0.12505733       0.43311338 </v>
   <v>      -0.19150802       0.37505526       0.43312290 </v>
   <v>      -0.31649797      -0.37493811       0.43310617 </v>
   <v>       0.30845834       0.37489025       0.43306711 </v>
   <v>       0.43334926      -0.37498800       0.43310484 </v>
   <v>      -0.06657439       0.12501760       0.43311877 </v>
   <v>       0.18352010       0.12503958       0.43310357 </v>
   <v>      -0.44157915      -0.12506682       0.43312133 </v>
   <v>      -0.31661142       0.12500112       0.43307887 </v>
   <v>       0.43342749       0.12489637       0.43309186 </v>
   <v>      -0.44156072       0.37493766       0.43312142 </v>
   <v>       0.06803265      -0.28933093       0.47747386 </v>
   <v>      -0.05705767       0.46069161       0.47743853 </v>
   <v>      -0.18226313      -0.28920186       0.47745274 </v>
   <v>      -0.05719074      -0.03940368       0.47743041 </v>
   <v>       0.19272233       0.46081983       0.47747258 </v>
   <v>       0.31782259      -0.28949017       0.47742503 </v>
   <v>       0.19269955      -0.03940969       0.47751519 </v>
   <v>      -0.30717491       0.46067621       0.47745667 </v>
   <v>       0.06776709       0.21073978       0.47746154 </v>
   <v>      -0.30739983      -0.03937706       0.47749348 </v>
   <v>       0.44289780       0.46058046       0.47750112 </v>
   <v>       0.44274454      -0.03927547       0.47746384 </v>
   <v>      -0.43225412      -0.28935768       0.47745140 </v>
   <v>      -0.18203956       0.21085596       0.47755026 </v>
   <v>       0.31779014       0.21060202       0.47746658 </v>
   <v>      -0.43218769       0.21064249       0.47751488 </v>
   <v>      -0.06787594      -0.21161556      -0.47763906 </v>
   <v>       0.05698262      -0.46113810      -0.47757841 </v>
   <v>       0.18225511      -0.21082825      -0.47745431 </v>
   <v>      -0.19280817      -0.46079366      -0.47745775 </v>
   <v>       0.30720579      -0.46159426      -0.47757015 </v>
   <v>       0.05719702       0.03836472      -0.47755700 </v>
   <v>      -0.06775908       0.28832006      -0.47758177 </v>
   <v>       0.18236436       0.28835181      -0.47763951 </v>
   <v>      -0.31821197      -0.21101812      -0.47750924 </v>
   <v>      -0.19301172       0.03868389      -0.47747257 </v>
   <v>       0.30711294       0.03840592      -0.47765411 </v>
   <v>       0.43199955      -0.21133912      -0.47757528 </v>
   <v>      -0.31767626       0.28819371      -0.47765637 </v>
   <v>      -0.44313894      -0.46089111      -0.47746679 </v>
   <v>       0.43243980       0.28834355      -0.47767119 </v>
   <v>      -0.44277033       0.03837257      -0.47764556 </v>
   <v>       0.06776899      -0.27719224      -0.12387590 </v>
   <v>      -0.18310061      -0.27704749      -0.12380321 </v>
   <v>      -0.06079803       0.46812928      -0.12411507 </v>
   <v>       0.18927521       0.46742247      -0.12410933 </v>
   <v>      -0.06041977      -0.03192506      -0.12389736 </v>
   <v>       0.31818071      -0.27615968      -0.12387028 </v>
   <v>       0.18954962      -0.03265860      -0.12396746 </v>
   <v>       0.06783007       0.22281147      -0.12392938 </v>
   <v>      -0.31063136       0.46736419      -0.12411072 </v>
   <v>      -0.31024132      -0.03164930      -0.12390574 </v>
   <v>       0.43924834       0.46746146      -0.12422714 </v>
   <v>       0.43943777      -0.03241197      -0.12408562 </v>
   <v>      -0.18272176       0.22357365      -0.12388564 </v>
   <v>      -0.43239875      -0.27565120      -0.12388872 </v>
   <v>       0.31747813       0.22310889      -0.12393048 </v>
   <v>      -0.05846866      -0.37497266      -0.43316561 </v>
   <v>       0.06656870      -0.12493778      -0.43313218 </v>
   <v>       0.19164000      -0.37507632      -0.43312240 </v>
   <v>      -0.18338584      -0.12504491      -0.43313073 </v>
   <v>       0.06657962       0.37495165      -0.43312722 </v>
   <v>       0.31661333      -0.12525581      -0.43316677 </v>
   <v>      -0.43177549       0.22385975      -0.12393549 </v>
   <v>      -0.30833551      -0.37502567      -0.43312005 </v>
   <v>      -0.18339833       0.37505212      -0.43311894 </v>
   <v>      -0.05824554       0.12499494      -0.43324208 </v>
   <v>       0.31651416       0.37492781      -0.43314606 </v>
   <v>       0.19160359       0.12501482      -0.43311964 </v>
   <v>       0.44159511      -0.37497912      -0.43313653 </v>
   <v>      -0.43343938      -0.12526502      -0.43318314 </v>
   <v>      -0.30843548       0.12499126      -0.43310309 </v>
   <v>       0.44154699       0.12498939      -0.43309515 </v>
   <v>      -0.43345355       0.37501337      -0.43314280 </v>
   <v>      -0.06636073      -0.36240420      -0.16633273 </v>
   <v>       0.18330413      -0.36238599      -0.16648677 </v>
   <v>       0.05838155      -0.11236928      -0.16652018 </v>
   <v>       0.05869067       0.38844724      -0.16663007 </v>
   <v>      -0.19141024      -0.11221071      -0.16649066 </v>
   <v>       0.30864883      -0.11227306      -0.16650611 </v>
   <v>      -0.19175881       0.38769399      -0.16652969 </v>
   <v>       0.30831640       0.38748088      -0.16651982 </v>
   <v>      -0.31638926      -0.36212857      -0.16655474 </v>
   <v>       0.43360932      -0.36203835      -0.16651246 </v>
   <v>      -0.06639448       0.13752178      -0.16647569 </v>
   <v>       0.18357927       0.13767012      -0.16646174 </v>
   <v>      -0.44131876      -0.11244421      -0.16669021 </v>
   <v>      -0.31652552       0.13769242      -0.16648334 </v>
   <v>       0.43353582       0.13777217      -0.16653207 </v>
   <v>      -0.44144826       0.38766222      -0.16672088 </v>
   <v>       0.06289789      -0.29186535      -0.38849683 </v>
   <v>      -0.06221051       0.45803774      -0.38857567 </v>
   <v>      -0.18691846      -0.29158546      -0.38845942 </v>
   <v>       0.18767257       0.45800673      -0.38864530 </v>
   <v>      -0.06242732      -0.04199248      -0.38862250 </v>
   <v>       0.18766656      -0.04181906      -0.38867326 </v>
   <v>       0.31309821      -0.29161682      -0.38849134 </v>
   <v>      -0.31234658       0.45801329      -0.38862743 </v>
   <v>       0.06279130       0.20805467      -0.38867977 </v>
   <v>      -0.31234118      -0.04183788      -0.38863715 </v>
   <v>       0.43783972       0.45805804      -0.38860067 </v>
   <v>       0.43789260      -0.04175004      -0.38855158 </v>
   <v>      -0.18724100       0.20811635      -0.38863334 </v>
   <v>      -0.43693405      -0.29163903      -0.38848826 </v>
   <v>       0.31265779       0.20794842      -0.38865711 </v>
   <v>      -0.05420745      -0.20071871      -0.21126635 </v>
   <v>       0.07158140      -0.45096218      -0.21141815 </v>
   <v>      -0.43729714       0.20794993      -0.38870028 </v>
   <v>       0.19554480      -0.20101593      -0.21128580 </v>
   <v>      -0.17946440      -0.45078135      -0.21120834 </v>
   <v>       0.32014247      -0.45066487      -0.21119487 </v>
   <v>       0.07027692       0.04908657      -0.21114187 </v>
   <v>      -0.30420235      -0.20105767      -0.21124662 </v>
   <v>      -0.05418144       0.29816565      -0.21134909 </v>
   <v>      -0.17994563       0.04941245      -0.21109861 </v>
   <v>       0.19597122       0.29831807      -0.21134843 </v>
   <v>       0.44575960      -0.20125402      -0.21130339 </v>
   <v>       0.32102540       0.04913219      -0.21129226 </v>
   <v>      -0.42952187      -0.45067604      -0.21116166 </v>
   <v>      -0.30411037       0.29853926      -0.21131510 </v>
   <v>       0.44519356       0.29854558      -0.21135083 </v>
   <v>      -0.43003463       0.04935105      -0.21117279 </v>
   <v>       0.05971790      -0.45939841      -0.34420201 </v>
   <v>      -0.06531787      -0.20936385      -0.34418499 </v>
   <v>       0.18470240      -0.20935837      -0.34419683 </v>
   <v>      -0.19041446      -0.45903485      -0.34424524 </v>
   <v>       0.30963928      -0.45933606      -0.34418295 </v>
   <v>       0.05971497       0.04055817      -0.34410975 </v>
   <v>      -0.06527484       0.29068996      -0.34418339 </v>
   <v>      -0.31538850      -0.20948779      -0.34416618 </v>
   <v>       0.18459259       0.29050078      -0.34414502 </v>
   <v>      -0.19033487       0.04047448      -0.34413932 </v>
   <v>       0.43456044      -0.20954455      -0.34416346 </v>
   <v>       0.30960387       0.04060334      -0.34418846 </v>
   <v>      -0.44033817      -0.45943418      -0.34419111 </v>
   <v>      -0.31524303       0.29063577      -0.34409553 </v>
   <v>       0.43496579       0.29067980      -0.34405036 </v>
   <v>      -0.44036583       0.04080523      -0.34422122 </v>
   <v>       0.05987968      -0.28804353      -0.25511226 </v>
   <v>      -0.06525097       0.46234109      -0.25510151 </v>
   <v>       0.18480786       0.46201258      -0.25526136 </v>
   <v>      -0.18902243      -0.28863431      -0.25539408 </v>
   <v>      -0.06621187      -0.03781345      -0.25548737 </v>
   <v>       0.31009126      -0.28828446      -0.25545948 </v>
   <v>       0.18431689      -0.03761246      -0.25547299 </v>
   <v>      -0.31556074       0.46253342      -0.25506422 </v>
   <v>       0.06025472       0.21247612      -0.25518014 </v>
   <v>       0.43501067       0.46272087      -0.25534341 </v>
   <v>      -0.31503848      -0.03748985      -0.25545944 </v>
   <v>       0.43437513      -0.03770285      -0.25545666 </v>
   <v>      -0.18911865       0.21147970      -0.25542966 </v>
   <v>      -0.43935358      -0.28852041      -0.25539863 </v>
   <v>       0.31058288       0.21148008      -0.25540401 </v>
   <v>      -0.43949773       0.21241276      -0.25540052 </v>
   <v>      -0.05294039      -0.37359759      -0.29961838 </v>
   <v>       0.07224136      -0.12375692      -0.29983026 </v>
   <v>       0.19718064      -0.37402335      -0.29986564 </v>
   <v>      -0.17785633      -0.12369615      -0.29963453 </v>
   <v>       0.07210043       0.37633417      -0.29964766 </v>
   <v>       0.32213851      -0.12365512      -0.29961167 </v>
   <v>      -0.17808244       0.37621780      -0.29988284 </v>
   <v>      -0.30285203      -0.37375479      -0.29966494 </v>
   <v>      -0.05284928       0.12621864      -0.29971666 </v>
   <v>       0.32232434       0.37616729      -0.29979731 </v>
   <v>       0.19723751       0.12597528      -0.29985094 </v>
   <v>       0.44706862      -0.37389406      -0.29979189 </v>
   <v>      -0.42833902      -0.12398635      -0.29953633 </v>
   <v>      -0.30268853       0.12640377      -0.29966887 </v>
   <v>       0.44722251       0.12600477      -0.29980093 </v>
   <v>      -0.42768286       0.37613702      -0.29978314 </v>
  </varray>
 </structure>
 <varray name="primitive_index" >
  <v type="int" >        1 </v>
  <v type="int" >      238 </v>
  <v type="int" >      220 </v>
  <v type="int" >       71 </v>
  <v type="int" >      193 </v>
  <v type="int" >      242 </v>
  <v type="int" >      109 </v>
  <v type="int" >       10 </v>
  <v type="int" >       81 </v>
  <v type="int" >      192 </v>
  <v type="int" >      208 </v>
  <v type="int" >       89 </v>
  <v type="int" >       35 </v>
  <v type="int" >      227 </v>
  <v type="int" >      285 </v>
  <v type="int" >      263 </v>
  <v type="int" >       55 </v>
  <v type="int" >      243 </v>
  <v type="int" >      283 </v>
  <v type="int" >      128 </v>
  <v type="int" >      117 </v>
  <v type="int" >      158 </v>
  <v type="int" >      155 </v>
  <v type="int" >      252 </v>
  <v type="int" >      222 </v>
  <v type="int" >      183 </v>
  <v type="int" >      288 </v>
  <v type="int" >      262 </v>
  <v type="int" >      162 </v>
  <v type="int" >      160 </v>
  <v type="int" >       38 </v>
  <v type="int" >      161 </v>
  <v type="int" >      205 </v>
  <v type="int" >       28 </v>
  <v type="int" >      126 </v>
  <v type="int" >       45 </v>
  <v type="int" >       15 </v>
  <v type="int" >      147 </v>
  <v type="int" >      278 </v>
  <v type="int" >      226 </v>
  <v type="int" >      265 </v>
  <v type="int" >      286 </v>
  <v type="int" >       48 </v>
  <v type="int" >       14 </v>
  <v type="int" >       26 </v>
  <v type="int" >       70 </v>
  <v type="int" >       61 </v>
  <v type="int" >      251 </v>
  <v type="int" >      108 </v>
  <v type="int" >      277 </v>
  <v type="int" >      197 </v>
  <v type="int" >      191 </v>
  <v type="int" >       90 </v>
  <v type="int" >       33 </v>
  <v type="int" >       25 </v>
  <v type="int" >      203 </v>
  <v type="int" >       99 </v>
  <v type="int" >      133 </v>
  <v type="int" >       23 </v>
  <v type="int" >       52 </v>
  <v type="int" >      104 </v>
  <v type="int" >      100 </v>
  <v type="int" >      189 </v>
  <v type="int" >      144 </v>
  <v type="int" >       83 </v>
  <v type="int" >      142 </v>
  <v type="int" >      145 </v>
  <v type="int" >      143 </v>
  <v type="int" >        5 </v>
  <v type="int" >      261 </v>
  <v type="int" >      122 </v>
  <v type="int" >      112 </v>
  <v type="int" >      267 </v>
  <v type="int" >       43 </v>
  <v type="int" >      118 </v>
  <v type="int" >      190 </v>
  <v type="int" >       63 </v>
  <v type="int" >      255 </v>
  <v type="int" >       92 </v>
  <v type="int" >      120 </v>
  <v type="int" >      279 </v>
  <v type="int" >      169 </v>
  <v type="int" >      170 </v>
  <v type="int" >      257 </v>
  <v type="int" >      254 </v>
  <v type="int" >      214 </v>
  <v type="int" >      124 </v>
  <v type="int" >       34 </v>
  <v type="int" >      153 </v>
  <v type="int" >       24 </v>
  <v type="int" >       95 </v>
  <v type="int" >      236 </v>
  <v type="int" >      172 </v>
  <v type="int" >      123 </v>
  <v type="int" >      258 </v>
  <v type="int" >      247 </v>
  <v type="int" >      198 </v>
  <v type="int" >      229 </v>
  <v type="int" >       86 </v>
  <v type="int" >       57 </v>
  <v type="int" >      246 </v>
  <v type="int" >       50 </v>
  <v type="int" >      273 </v>
  <v type="int" >      156 </v>
  <v type="int" >      105 </v>
  <v type="int" >       17 </v>
  <v type="int" >       79 </v>
  <v type="int" >      134 </v>
  <v type="int" >      232 </v>
  <v type="int" >      171 </v>
  <v type="int" >      248 </v>
  <v type="int" >      244 </v>
  <v type="int" >      282 </v>
  <v type="int" >      168 </v>
  <v type="int" >      211 </v>
  <v type="int" >      256 </v>
  <v type="int" >       46 </v>
  <v type="int" >      240 </v>
  <v type="int" >       29 </v>
  <v type="int" >       94 </v>
  <v type="int" >      215 </v>
  <v type="int" >      281 </v>
  <v type="int" >       32 </v>
  <v type="int" >      223 </v>
  <v type="int" >      239 </v>
  <v type="int" >      115 </v>
  <v type="int" >      184 </v>
  <v type="int" >      136 </v>
  <v type="int" >       62 </v>
  <v type="int" >      166 </v>
  <v type="int" >      268 </v>
  <v type="int" >      179 </v>
  <v type="int" >      132 </v>
  <v type="int" >      217 </v>
  <v type="int" >      176 </v>
  <v type="int" >      249 </v>
  <v type="int" >      185 </v>
  <v type="int" >       91 </v>
  <v type="int" >       19 </v>
  <v type="int" >      130 </v>
  <v type="int" >      207 </v>
  <v type="int" >      206 </v>
  <v type="int" >      175 </v>
  <v type="int" >       11 </v>
  <v type="int" >      116 </v>
  <v type="int" >      178 </v>
  <v type="int" >      107 </v>
  <v type="int" >      241 </v>
  <v type="int" >      230 </v>
  <v type="int" >      218 </v>
  <v type="int" >      209 </v>
  <v type="int" >      225 </v>
  <v type="int" >       18 </v>
  <v type="int" >       93 </v>
  <v type="int" >      266 </v>
  <v type="int" >      187 </v>
  <v type="int" >       87 </v>
  <v type="int" >      141 </v>
  <v type="int" >      111 </v>
  <v type="int" >      181 </v>
  <v type="int" >       58 </v>
  <v type="int" >      101 </v>
  <v type="int" >      151 </v>
  <v type="int" >      125 </v>
  <v type="int" >      274 </v>
  <v type="int" >        2 </v>
  <v type="int" >      154 </v>
  <v type="int" >      212 </v>
  <v type="int" >       27 </v>
  <v type="int" >      234 </v>
  <v type="int" >      173 </v>
  <v type="int" >       97 </v>
  <v type="int" >       41 </v>
  <v type="int" >      131 </v>
  <v type="int" >       39 </v>
  <v type="int" >       72 </v>
  <v type="int" >       12 </v>
  <v type="int" >      148 </v>
  <v type="int" >      276 </v>
  <v type="int" >      250 </v>
  <v type="int" >       40 </v>
  <v type="int" >       13 </v>
  <v type="int" >      264 </v>
  <v type="int" >      146 </v>
  <v type="int" >      259 </v>
  <v type="int" >      216 </v>
  <v type="int" >      233 </v>
  <v type="int" >       21 </v>
  <v type="int" >       98 </v>
  <v type="int" >      235 </v>
  <v type="int" >       68 </v>
  <v type="int" >       16 </v>
  <v type="int" >       59 </v>
  <v type="int" >       66 </v>
  <v type="int" >      177 </v>
  <v type="int" >        6 </v>
  <v type="int" >       75 </v>
  <v type="int" >        7 </v>
  <v type="int" >       73 </v>
  <v type="int" >      150 </v>
  <v type="int" >      271 </v>
  <v type="int" >      152 </v>
  <v type="int" >      129 </v>
  <v type="int" >      188 </v>
  <v type="int" >      174 </v>
  <v type="int" >      221 </v>
  <v type="int" >      269 </v>
  <v type="int" >      103 </v>
  <v type="int" >      180 </v>
  <v type="int" >      245 </v>
  <v type="int" >       82 </v>
  <v type="int" >      194 </v>
  <v type="int" >      201 </v>
  <v type="int" >       51 </v>
  <v type="int" >      280 </v>
  <v type="int" >      102 </v>
  <v type="int" >      228 </v>
  <v type="int" >        3 </v>
  <v type="int" >        4 </v>
  <v type="int" >      260 </v>
  <v type="int" >      167 </v>
  <v type="int" >       30 </v>
  <v type="int" >       77 </v>
  <v type="int" >      149 </v>
  <v type="int" >      284 </v>
  <v type="int" >      275 </v>
  <v type="int" >       36 </v>
  <v type="int" >      106 </v>
  <v type="int" >       60 </v>
  <v type="int" >       67 </v>
  <v type="int" >       88 </v>
  <v type="int" >      199 </v>
  <v type="int" >      253 </v>
  <v type="int" >       54 </v>
  <v type="int" >      114 </v>
  <v type="int" >       85 </v>
  <v type="int" >      121 </v>
  <v type="int" >      182 </v>
  <v type="int" >      127 </v>
  <v type="int" >       44 </v>
  <v type="int" >      196 </v>
  <v type="int" >      157 </v>
  <v type="int" >      113 </v>
  <v type="int" >       42 </v>
  <v type="int" >       49 </v>
  <v type="int" >      135 </v>
  <v type="int" >       69 </v>
  <v type="int" >      210 </v>
  <v type="int" >      200 </v>
  <v type="int" >      213 </v>
  <v type="int" >       53 </v>
  <v type="int" >      186 </v>
  <v type="int" >       31 </v>
  <v type="int" >       76 </v>
  <v type="int" >      159 </v>
  <v type="int" >      140 </v>
  <v type="int" >      204 </v>
  <v type="int" >      119 </v>
  <v type="int" >      110 </v>
  <v type="int" >      202 </v>
  <v type="int" >      287 </v>
  <v type="int" >       84 </v>
  <v type="int" >      237 </v>
  <v type="int" >      137 </v>
  <v type="int" >        9 </v>
  <v type="int" >       78 </v>
  <v type="int" >       80 </v>
  <v type="int" >       20 </v>
  <v type="int" >       96 </v>
  <v type="int" >      272 </v>
  <v type="int" >       64 </v>
  <v type="int" >      138 </v>
  <v type="int" >      164 </v>
  <v type="int" >      195 </v>
  <v type="int" >       74 </v>
  <v type="int" >      163 </v>
  <v type="int" >       65 </v>
  <v type="int" >      219 </v>
  <v type="int" >      231 </v>
  <v type="int" >       56 </v>
  <v type="int" >      139 </v>
  <v type="int" >      270 </v>
  <v type="int" >      165 </v>
  <v type="int" >        8 </v>
  <v type="int" >       22 </v>
  <v type="int" >      224 </v>
  <v type="int" >       37 </v>
  <v type="int" >       47 </v>
 </varray>
 <kpoints>
  <generation param="Gamma">
   <v type="int" name="divisions">       4        4        1 </v>
   <v name="usershift">      0.00000000       0.00000000       0.00000000 </v>
   <v name="genvec1">      0.25000000       0.00000000       0.00000000 </v>
   <v name="genvec2">      0.00000000       0.25000000       0.00000000 </v>
   <v name="genvec3">      0.00000000       0.00000000       1.00000000 </v>
   <v name="shift">      0.00000000       0.00000000       0.00000000 </v>
  </generation>
  <varray name="kpointlist" >
   <v>       0.00000000       0.00000000       0.00000000 </v>
   <v>       0.25000000       0.00000000       0.00000000 </v>
   <v>       0.50000000       0.00000000       0.00000000 </v>
   <v>       0.00000000       0.25000000       0.00000000 </v>
   <v>       0.25000000       0.25000000       0.00000000 </v>
   <v>       0.50000000       0.25000000       0.00000000 </v>
   <v>      -0.25000000       0.25000000       0.00000000 </v>
   <v>       0.00000000       0.50000000       0.00000000 </v>
   <v>       0.25000000       0.50000000       0.00000000 </v>
   <v>       0.50000000       0.50000000       0.00000000 </v>
  </varray>
  <varray name="weights" >
   <v>       0.06250000 </v>
   <v>       0.12500000 </v>
   <v>       0.06250000 </v>
   <v>       0.12500000 </v>
   <v>       0.12500000 </v>
   <v>       0.12500000 </v>
   <v>       0.12500000 </v>
   <v>       0.06250000 </v>
   <v>       0.12500000 </v>
   <v>       0.06250000 </v>
  </varray>
 </kpoints>
 <parameters>
  <separator name="general" >
   <i type="string" name="SYSTEM">unknown system</i>
   <i type="logical" name="LCOMPAT"> F  </i>
  </separator>
  <separator name="electronic" >
   <i type="string" name="PREC">accura</i>
   <i name="ENMAX">    450.00000000</i>
   <i name="ENAUG">    838.43500000</i>
   <i name="EDIFF">      0.00000100</i>
   <i type="int" name="IALGO">    68</i>
   <i type="int" name="IWAVPR">    11</i>
   <i type="int" name="NBANDS">  1386</i>
   <i name="NELECT">   2297.00000000</i>
   <i type="int" name="TURBO">     0</i>
   <i type="int" name="IRESTART">     0</i>
   <i type="int" name="NREBOOT">     0</i>
   <i type="int" name="NMIN">     0</i>
   <i name="EREF">      0.00000000</i>
   <separator name="electronic smearing" >
    <i type="int" name="ISMEAR">     0</i>
    <i name="SIGMA">      0.15000000</i>
    <i name="KSPACING">      0.50000000</i>
    <i type="logical" name="KGAMMA"> T  </i>
   </separator>
   <separator name="electronic projectors" >
    <i type="logical" name="LREAL"> T  </i>
    <v name="ROPT">     -0.00025000     -0.00025000</v>
    <i type="int" name="LMAXPAW">  -100</i>
    <i type="int" name="LMAXMIX">     2</i>
    <i type="logical" name="NLSPLINE"> F  </i>
   </separator>
   <separator name="electronic startup" >
    <i type="int" name="ISTART">     0</i>
    <i type="int" name="ICHARG">     2</i>
    <i type="int" name="INIWAV">     1</i>
   </separator>
   <separator name="electronic spin" >
    <i type="int" name="ISPIN">     1</i>
    <i type="logical" name="LNONCOLLINEAR"> F  </i>
    <v name="MAGMOM">      1.00000000      1.00000000      1.00000000      1.00000000      1.00000000      1.00000000      1.00000000      1.00000000      1.00000000      1.00000000      1.00000000      1.00000000      1.00000000      1.00000000      1.00000000      1.00000000      1.00000000      1.00000000      1.00000000      1.00000000
      1.00000000      1.00000000      1.00000000      1.00000000      1.00000000      1.00000000      1.00000000      1.00000000      1.00000000      1.00000000      1.00000000      1.00000000      1.00000000      1.00000000      1.00000000      1.00000000      1.00000000      1.00000000      1.00000000      1.00000000
      1.00000000      1.00000000      1.00000000      1.00000000      1.00000000      1.00000000      1.00000000      1.00000000      1.00000000      1.00000000      1.00000000      1.00000000      1.00000000      1.00000000      1.00000000      1.00000000      1.00000000      1.00000000      1.00000000      1.00000000
      1.00000000      1.00000000      1.00000000      1.00000000      1.00000000      1.00000000      1.00000000      1.00000000      1.00000000      1.00000000      1.00000000      1.00000000      1.00000000      1.00000000      1.00000000      1.00000000      1.00000000      1.00000000      1.00000000      1.00000000
      1.00000000      1.00000000      1.00000000      1.00000000      1.00000000      1.00000000      1.00000000      1.00000000      1.00000000      1.00000000      1.00000000      1.00000000      1.00000000      1.00000000      1.00000000      1.00000000      1.00000000      1.00000000      1.00000000      1.00000000
      1.00000000      1.00000000      1.00000000      1.00000000      1.00000000      1.00000000      1.00000000      1.00000000      1.00000000      1.00000000      1.00000000      1.00000000      1.00000000      1.00000000      1.00000000      1.00000000      1.00000000      1.00000000      1.00000000      1.00000000
      1.00000000      1.00000000      1.00000000      1.00000000      1.00000000      1.00000000      1.00000000      1.00000000      1.00000000      1.00000000      1.00000000      1.00000000      1.00000000      1.00000000      1.00000000      1.00000000      1.00000000      1.00000000      1.00000000      1.00000000
      1.00000000      1.00000000      1.00000000      1.00000000      1.00000000      1.00000000      1.00000000      1.00000000      1.00000000      1.00000000      1.00000000      1.00000000      1.00000000      1.00000000      1.00000000      1.00000000      1.00000000      1.00000000      1.00000000      1.00000000
      1.00000000      1.00000000      1.00000000      1.00000000      1.00000000      1.00000000      1.00000000      1.00000000      1.00000000      1.00000000      1.00000000      1.00000000      1.00000000      1.00000000      1.00000000      1.00000000      1.00000000      1.00000000      1.00000000      1.00000000
      1.00000000      1.00000000      1.00000000      1.00000000      1.00000000      1.00000000      1.00000000      1.00000000      1.00000000      1.00000000      1.00000000      1.00000000      1.00000000      1.00000000      1.00000000      1.00000000      1.00000000      1.00000000      1.00000000      1.00000000
      1.00000000      1.00000000      1.00000000      1.00000000      1.00000000      1.00000000      1.00000000      1.00000000      1.00000000      1.00000000      1.00000000      1.00000000      1.00000000      1.00000000      1.00000000      1.00000000      1.00000000      1.00000000      1.00000000      1.00000000
      1.00000000      1.00000000      1.00000000      1.00000000      1.00000000      1.00000000      1.00000000      1.00000000      1.00000000      1.00000000      1.00000000      1.00000000      1.00000000      1.00000000      1.00000000      1.00000000      1.00000000      1.00000000      1.00000000      1.00000000
      1.00000000      1.00000000      1.00000000      1.00000000      1.00000000      1.00000000      1.00000000      1.00000000      1.00000000      1.00000000      1.00000000      1.00000000      1.00000000      1.00000000      1.00000000      1.00000000      1.00000000      1.00000000      1.00000000      1.00000000
      1.00000000      1.00000000      1.00000000      1.00000000      1.00000000      1.00000000      1.00000000      1.00000000      1.00000000      1.00000000      1.00000000      1.00000000      1.00000000      1.00000000      1.00000000      1.00000000      1.00000000      1.00000000      1.00000000      1.00000000
      1.00000000      1.00000000      1.00000000      1.00000000      1.00000000      1.00000000      1.00000000      1.00000000</v>
    <i name="NUPDOWN">     -1.00000000</i>
    <i type="logical" name="LSORBIT"> F  </i>
    <v name="SAXIS">      0.00000000      0.00000000      1.00000000</v>
    <i type="logical" name="LSPIRAL"> F  </i>
    <v name="QSPIRAL">      0.00000000      0.00000000      0.00000000</v>
    <i type="logical" name="LZEROZ"> F  </i>
   </separator>
   <separator name="electronic exchange-correlation" >
    <i type="logical" name="LASPH"> F  </i>
    <i type="logical" name="LMETAGGA"> F  </i>
   </separator>
   <separator name="electronic convergence" >
    <i type="int" name="NELM">   200</i>
    <i type="int" name="NELMDL">     0</i>
    <i type="int" name="NELMIN">     4</i>
    <i name="ENINI">    450.00000000</i>
    <separator name="electronic convergence detail" >
     <i type="logical" name="LDIAG"> T  </i>
     <i type="logical" name="LSUBROT"> F  </i>
     <i name="WEIMIN">      0.00100000</i>
     <i name="EBREAK">      0.00000000</i>
     <i name="DEPER">      0.30000000</i>
     <i type="int" name="NRMM">     4</i>
     <i name="TIME">      0.40000000</i>
    </separator>
   </separator>
   <separator name="electronic mixer" >
    <i name="AMIX">      0.40000000</i>
    <i name="BMIX">      1.00000000</i>
    <i name="AMIN">      0.10000000</i>
    <i name="AMIX_MAG">      1.60000000</i>
    <i name="BMIX_MAG">      1.00000000</i>
    <separator name="electronic mixer details" >
     <i type="int" name="IMIX">     4</i>
     <i type="logical" name="MIXFIRST"> F  </i>
     <i type="int" name="MAXMIX">   -45</i>
     <i name="WC">    100.00000000</i>
     <i type="int" name="INIMIX">     1</i>
     <i type="int" name="MIXPRE">     1</i>
     <i type="int" name="MREMOVE">     5</i>
    </separator>
   </separator>
   <separator name="electronic dipolcorrection" >
    <i type="logical" name="LDIPOL"> F  </i>
    <i type="logical" name="LMONO"> F  </i>
    <i type="int" name="IDIPOL">     0</i>
    <i name="EPSILON">      1.00000000</i>
    <v name="DIPOL">   -100.00000000   -100.00000000   -100.00000000</v>
    <i name="EFIELD">      0.00000000</i>
   </separator>
  </separator>
  <separator name="grids" >
   <i type="int" name="NGX">    70</i>
   <i type="int" name="NGY">    60</i>
   <i type="int" name="NGZ">   320</i>
   <i type="int" name="NGXF">   140</i>
   <i type="int" name="NGYF">   120</i>
   <i type="int" name="NGZF">   640</i>
   <i type="logical" name="ADDGRID"> F  </i>
  </separator>
  <separator name="ionic" >
   <i type="int" name="NSW">     5</i>
   <i type="int" name="IBRION">     2</i>
   <i type="int" name="MDALGO">     0</i>
   <i type="int" name="ISIF">     2</i>
   <i name="PSTRESS">      0.00000000</i>
   <i name="EDIFFG">      0.00001000</i>
   <i type="int" name="NFREE">     1</i>
   <i name="POTIM">      0.25000000</i>
   <i name="SMASS">     -3.00000000</i>
   <i name="SCALEE">      1.00000000</i>
  </separator>
  <separator name="ionic md" >
   <i name="TEBEG">      0.00010000</i>
   <i name="TEEND">      0.00010000</i>
   <i type="int" name="NBLOCK">     1</i>
   <i type="int" name="KBLOCK">     5</i>
   <i type="int" name="NPACO">   256</i>
   <i name="APACO">     16.00000000</i>
  </separator>
  <separator name="symmetry" >
   <i type="int" name="ISYM">     2</i>
   <i name="SYMPREC">      0.00001000</i>
  </separator>
  <separator name="dos" >
   <i type="int" name="LORBIT">     0</i>
   <v name="RWIGS">     -1.00000000     -1.00000000</v>
   <i type="int" name="NEDOS">   301</i>
   <i name="EMIN">     10.00000000</i>
   <i name="EMAX">    -10.00000000</i>
   <i name="EFERMI">      0.00000000</i>
  </separator>
  <separator name="writing" >
   <i type="int" name="NWRITE">     2</i>
   <i type="logical" name="LWAVE"> F  </i>
   <i type="logical" name="LDOWNSAMPLE"> F  </i>
   <i type="logical" name="LCHARG"> F  </i>
   <i type="logical" name="LPARD"> F  </i>
   <i type="logical" name="LVTOT"> F  </i>
   <i type="logical" name="LVHAR"> F  </i>
   <i type="logical" name="LELF"> F  </i>
   <i type="logical" name="LOPTICS"> F  </i>
   <v name="STM">      0.00000000      0.00000000      0.00000000      0.00000000      0.00000000      0.00000000      0.00000000</v>
  </separator>
  <separator name="performance" >
   <i type="int" name="NPAR">    14</i>
   <i type="int" name="NSIM">     4</i>
   <i type="int" name="NBLK">    -1</i>
   <i type="logical" name="LPLANE"> T  </i>
   <i type="logical" name="LSCALAPACK"> T  </i>
   <i type="logical" name="LSCAAWARE"> T  </i>
   <i type="logical" name="LSCALU"> F  </i>
   <i type="logical" name="LASYNC"> F  </i>
   <i type="logical" name="LORBITALREAL"> F  </i>
  </separator>
  <separator name="miscellaneous" >
   <i type="int" name="IDIOT">     3</i>
   <i type="int" name="ISPECIAL">     0</i>
   <i type="logical" name="LMUSIC"> F  </i>
   <v name="POMASS">     55.84700000     54.93800000</v>
   <v name="DARWINR">      0.00000000      0.00000000</v>
   <v name="DARWINV">      1.00000000      1.00000000</v>
   <i type="logical" name="LCORR"> T  </i>
  </separator>
  <i type="logical" name="GGA_COMPAT"> T  </i>
  <i type="logical" name="LBERRY"> F  </i>
  <i type="int" name="ICORELEVEL">     0</i>
  <i type="logical" name="LDAU"> F  </i>
  <i type="int" name="I_CONSTRAINED_M">     0</i>
  <separator name="electronic exchange-correlation" >
   <i type="string" name="GGA">--</i>
   <i type="int" name="VOSKOWN">     0</i>
   <i type="logical" name="LHFCALC"> F  </i>
   <i type="string" name="PRECFOCK"></i>
   <i type="logical" name="LSYMGRAD"> F  </i>
   <i type="logical" name="LHFONE"> F  </i>
   <i type="logical" name="LRHFCALC"> F  </i>
   <i type="logical" name="LTHOMAS"> F  </i>
   <i type="logical" name="LMODELHF"> F  </i>
   <i name="ENCUT4O">     -1.00000000</i>
   <i type="int" name="EXXOEP">     0</i>
   <i type="int" name="FOURORBIT">     0</i>
   <i name="AEXX">      0.00000000</i>
   <i name="HFALPHA">      0.00000000</i>
   <i name="MCALPHA">      0.00000000</i>
   <i name="ALDAX">      1.00000000</i>
   <i name="AGGAX">      1.00000000</i>
   <i name="ALDAC">      1.00000000</i>
   <i name="AGGAC">      1.00000000</i>
   <i type="int" name="NKREDX">     1</i>
   <i type="int" name="NKREDY">     1</i>
   <i type="int" name="NKREDZ">     1</i>
   <i type="logical" name="SHIFTRED"> F  </i>
   <i type="logical" name="ODDONLY"> F  </i>
   <i type="logical" name="EVENONLY"> F  </i>
   <i type="int" name="LMAXFOCK">     0</i>
   <i type="int" name="NMAXFOCKAE">     0</i>
   <i type="logical" name="LFOCKAEDFT"> F  </i>
   <i name="HFSCREEN">      0.00000000</i>
   <i name="HFSCREENC">      0.00000000</i>
   <i type="int" name="NBANDSGWLOW">     0</i>
  </separator>
  <separator name="vdW DFT" >
   <i type="logical" name="LUSE_VDW"> F  </i>
   <i name="Zab_VDW">     -0.84910000</i>
   <i name="PARAM1">      0.12340000</i>
   <i name="PARAM2">      1.00000000</i>
   <i name="PARAM3">      0.00000000</i>
  </separator>
  <separator name="model GW" >
   <i type="int" name="MODEL_GW">     0</i>
   <i name="MODEL_EPS0">      7.68123389</i>
   <i name="MODEL_ALPHA">      1.00000000</i>
  </separator>
  <separator name="linear response parameters" >
   <i type="logical" name="LEPSILON"> F  </i>
   <i type="logical" name="LRPA"> F  </i>
   <i type="logical" name="LNABLA"> F  </i>
   <i type="logical" name="LVEL"> F  </i>
   <i type="int" name="KINTER">     0</i>
   <i name="CSHIFT">      0.10000000</i>
   <i name="OMEGAMAX">     -1.00000000</i>
   <i name="DEG_THRESHOLD">      0.00200000</i>
   <i name="RTIME">     -0.10000000</i>
   <i name="WPLASMAI">      0.00000000</i>
   <v name="DFIELD">      0.00000000      0.00000000      0.00000000</v>
   <v name="WPLASMA">      0.00000000      0.00000000      0.00000000      0.00000000      0.00000000      0.00000000      0.00000000      0.00000000      0.00000000</v>
  </separator>
  <separator name="orbital magnetization" >
   <i type="logical" name="NUCIND"> F  </i>
   <v name="MAGPOS">      0.00000000      0.00000000      0.00000000</v>
   <i type="logical" name="LNICSALL"> T  </i>
   <i type="logical" name="ORBITALMAG"> F  </i>
   <i type="logical" name="LMAGBLOCH"> F  </i>
   <i type="logical" name="LCHIMAG"> F  </i>
   <i type="logical" name="LGAUGE"> T  </i>
   <i type="int" name="MAGATOM">     0</i>
   <v name="MAGDIPOL">      0.00000000      0.00000000      0.00000000</v>
   <v name="AVECCONST">      0.00000000      0.00000000      0.00000000</v>
  </separator>
  <separator name="response functions" >
   <i type="logical" name="LADDER"> F  </i>
   <i type="logical" name="LRPAFORCE"> F  </i>
   <i type="logical" name="LFXC"> F  </i>
   <i type="logical" name="LHARTREE"> T  </i>
   <i type="int" name="IBSE">     0</i>
   <v type="int" name="KPOINT">    -1     0     0     0</v>
   <i type="logical" name="LTCTE"> F  </i>
   <i type="logical" name="LTETE"> F  </i>
   <i type="logical" name="LTRIPLET"> F  </i>
   <i type="logical" name="LFXCEPS"> F  </i>
   <i type="logical" name="LFXHEG"> F  </i>
   <i type="int" name="NATURALO">     2</i>
   <i type="logical" name="L2ORDER"> F  </i>
   <i type="logical" name="LMP2LT"> F  </i>
   <i type="logical" name="LUSEW"> F  </i>
   <i name="ENCUTGW">     -2.00000000</i>
   <i name="ENCUTGWSOFT">     -2.00000000</i>
   <i name="ENCUTLF">     -1.00000000</i>
   <i type="int" name="LMAXMP2">    -1</i>
   <i name="SCISSOR">      0.00000000</i>
   <i type="int" name="NOMEGA">     0</i>
   <i type="int" name="NOMEGAR">     0</i>
   <i type="int" name="NBANDSGW">    -1</i>
   <i type="int" name="NBANDSO">    -1</i>
   <i type="int" name="NBANDSV">    -1</i>
   <i type="int" name="NELM">   200</i>
   <i type="int" name="NELMHF">     1</i>
   <i type="int" name="DIM">     3</i>
   <i type="int" name="ANTIRES">     0</i>
   <i name="OMEGAMAX">    -30.00000000</i>
   <i name="OMEGAMIN">    -30.00000000</i>
   <i name="OMEGATL">   -200.00000000</i>
   <i type="int" name="OMEGAGRID">   140</i>
   <i name="CSHIFT">     -0.10000000</i>
   <i type="logical" name="SELFENERGY"> F  </i>
   <i type="logical" name="LSPECTRAL"> F  </i>
   <i type="logical" name="LSPECTRALGW"> F  </i>
   <i type="logical" name="LSINGLES"> F  </i>
   <i type="logical" name="LFERMIGW"> F  </i>
   <i type="logical" name="ODDONLYGW"> F  </i>
   <i type="logical" name="EVENONLYGW"> F  </i>
   <i type="int" name="NKREDLFX">     1</i>
   <i type="int" name="NKREDLFY">     1</i>
   <i type="int" name="NKREDLFZ">     1</i>
   <i type="int" name="MAXMEM">  2800</i>
   <i type="int" name="TELESCOPE">     0</i>
   <i type="int" name="TAUPAR">     1</i>
   <i type="int" name="OMEGAPAR">    -1</i>
   <i name="LAMBDA">      1.00000000</i>
  </separator>
  <separator name="External order field" >
   <i name="OFIELD_KAPPA">      0.00000000</i>
   <v name="OFIELD_K">      0.00000000      0.00000000      0.00000000</v>
   <i name="OFIELD_Q6_NEAR">      0.00000000</i>
   <i name="OFIELD_Q6_FAR">      0.00000000</i>
   <i name="OFIELD_A">      0.00000000</i>
  </separator>
 </parameters>
 <atominfo>
  <atoms>     288 </atoms>
  <types>       2 </types>
  <array name="atoms" >
   <dimension dim="1">ion</dimension>
   <field type="string">element</field>
   <field type="int">atomtype</field>
   <set>
    <rc><c>Fe</c><c>   1</c></rc>
    <rc><c>Fe</c><c>   1</c></rc>
    <rc><c>Fe</c><c>   1</c></rc>
    <rc><c>Fe</c><c>   1</c></rc>
    <rc><c>Fe</c><c>   1</c></rc>
    <rc><c>Fe</c><c>   1</c></rc>
    <rc><c>Fe</c><c>   1</c></rc>
    <rc><c>Fe</c><c>   1</c></rc>
    <rc><c>Fe</c><c>   1</c></rc>
    <rc><c>Fe</c><c>   1</c></rc>
    <rc><c>Fe</c><c>   1</c></rc>
    <rc><c>Fe</c><c>   1</c></rc>
    <rc><c>Fe</c><c>   1</c></rc>
    <rc><c>Fe</c><c>   1</c></rc>
    <rc><c>Fe</c><c>   1</c></rc>
    <rc><c>Fe</c><c>   1</c></rc>
    <rc><c>Fe</c><c>   1</c></rc>
    <rc><c>Fe</c><c>   1</c></rc>
    <rc><c>Fe</c><c>   1</c></rc>
    <rc><c>Fe</c><c>   1</c></rc>
    <rc><c>Fe</c><c>   1</c></rc>
    <rc><c>Fe</c><c>   1</c></rc>
    <rc><c>Fe</c><c>   1</c></rc>
    <rc><c>Fe</c><c>   1</c></rc>
    <rc><c>Fe</c><c>   1</c></rc>
    <rc><c>Fe</c><c>   1</c></rc>
    <rc><c>Fe</c><c>   1</c></rc>
    <rc><c>Fe</c><c>   1</c></rc>
    <rc><c>Fe</c><c>   1</c></rc>
    <rc><c>Fe</c><c>   1</c></rc>
    <rc><c>Fe</c><c>   1</c></rc>
    <rc><c>Fe</c><c>   1</c></rc>
    <rc><c>Fe</c><c>   1</c></rc>
    <rc><c>Fe</c><c>   1</c></rc>
    <rc><c>Fe</c><c>   1</c></rc>
    <rc><c>Fe</c><c>   1</c></rc>
    <rc><c>Fe</c><c>   1</c></rc>
    <rc><c>Fe</c><c>   1</c></rc>
    <rc><c>Fe</c><c>   1</c></rc>
    <rc><c>Fe</c><c>   1</c></rc>
    <rc><c>Fe</c><c>   1</c></rc>
    <rc><c>Fe</c><c>   1</c></rc>
    <rc><c>Fe</c><c>   1</c></rc>
    <rc><c>Fe</c><c>   1</c></rc>
    <rc><c>Fe</c><c>   1</c></rc>
    <rc><c>Fe</c><c>   1</c></rc>
    <rc><c>Fe</c><c>   1</c></rc>
    <rc><c>Fe</c><c>   1</c></rc>
    <rc><c>Fe</c><c>   1</c></rc>
    <rc><c>Fe</c><c>   1</c></rc>
    <rc><c>Fe</c><c>   1</c></rc>
    <rc><c>Fe</c><c>   1</c></rc>
    <rc><c>Fe</c><c>   1</c></rc>
    <rc><c>Fe</c><c>   1</c></rc>
    <rc><c>Fe</c><c>   1</c></rc>
    <rc><c>Fe</c><c>   1</c></rc>
    <rc><c>Fe</c><c>   1</c></rc>
    <rc><c>Fe</c><c>   1</c></rc>
    <rc><c>Fe</c><c>   1</c></rc>
    <rc><c>Fe</c><c>   1</c></rc>
    <rc><c>Fe</c><c>   1</c></rc>
    <rc><c>Fe</c><c>   1</c></rc>
    <rc><c>Fe</c><c>   1</c></rc>
    <rc><c>Fe</c><c>   1</c></rc>
    <rc><c>Fe</c><c>   1</c></rc>
    <rc><c>Fe</c><c>   1</c></rc>
    <rc><c>Fe</c><c>   1</c></rc>
    <rc><c>Fe</c><c>   1</c></rc>
    <rc><c>Fe</c><c>   1</c></rc>
    <rc><c>Fe</c><c>   1</c></rc>
    <rc><c>Fe</c><c>   1</c></rc>
    <rc><c>Fe</c><c>   1</c></rc>
    <rc><c>Fe</c><c>   1</c></rc>
    <rc><c>Fe</c><c>   1</c></rc>
    <rc><c>Fe</c><c>   1</c></rc>
    <rc><c>Fe</c><c>   1</c></rc>
    <rc><c>Fe</c><c>   1</c></rc>
    <rc><c>Fe</c><c>   1</c></rc>
    <rc><c>Fe</c><c>   1</c></rc>
    <rc><c>Fe</c><c>   1</c></rc>
    <rc><c>Fe</c><c>   1</c></rc>
    <rc><c>Fe</c><c>   1</c></rc>
    <rc><c>Fe</c><c>   1</c></rc>
    <rc><c>Fe</c><c>   1</c></rc>
    <rc><c>Fe</c><c>   1</c></rc>
    <rc><c>Fe</c><c>   1</c></rc>
    <rc><c>Fe</c><c>   1</c></rc>
    <rc><c>Fe</c><c>   1</c></rc>
    <rc><c>Fe</c><c>   1</c></rc>
    <rc><c>Fe</c><c>   1</c></rc>
    <rc><c>Fe</c><c>   1</c></rc>
    <rc><c>Fe</c><c>   1</c></rc>
    <rc><c>Fe</c><c>   1</c></rc>
    <rc><c>Fe</c><c>   1</c></rc>
    <rc><c>Fe</c><c>   1</c></rc>
    <rc><c>Fe</c><c>   1</c></rc>
    <rc><c>Fe</c><c>   1</c></rc>
    <rc><c>Fe</c><c>   1</c></rc>
    <rc><c>Fe</c><c>   1</c></rc>
    <rc><c>Fe</c><c>   1</c></rc>
    <rc><c>Fe</c><c>   1</c></rc>
    <rc><c>Fe</c><c>   1</c></rc>
    <rc><c>Fe</c><c>   1</c></rc>
    <rc><c>Fe</c><c>   1</c></rc>
    <rc><c>Fe</c><c>   1</c></rc>
    <rc><c>Fe</c><c>   1</c></rc>
    <rc><c>Fe</c><c>   1</c></rc>
    <rc><c>Fe</c><c>   1</c></rc>
    <rc><c>Fe</c><c>   1</c></rc>
    <rc><c>Fe</c><c>   1</c></rc>
    <rc><c>Fe</c><c>   1</c></rc>
    <rc><c>Fe</c><c>   1</c></rc>
    <rc><c>Fe</c><c>   1</c></rc>
    <rc><c>Fe</c><c>   1</c></rc>
    <rc><c>Fe</c><c>   1</c></rc>
    <rc><c>Fe</c><c>   1</c></rc>
    <rc><c>Fe</c><c>   1</c></rc>
    <rc><c>Fe</c><c>   1</c></rc>
    <rc><c>Fe</c><c>   1</c></rc>
    <rc><c>Fe</c><c>   1</c></rc>
    <rc><c>Fe</c><c>   1</c></rc>
    <rc><c>Fe</c><c>   1</c></rc>
    <rc><c>Fe</c><c>   1</c></rc>
    <rc><c>Fe</c><c>   1</c></rc>
    <rc><c>Fe</c><c>   1</c></rc>
    <rc><c>Fe</c><c>   1</c></rc>
    <rc><c>Fe</c><c>   1</c></rc>
    <rc><c>Fe</c><c>   1</c></rc>
    <rc><c>Fe</c><c>   1</c></rc>
    <rc><c>Fe</c><c>   1</c></rc>
    <rc><c>Fe</c><c>   1</c></rc>
    <rc><c>Fe</c><c>   1</c></rc>
    <rc><c>Fe</c><c>   1</c></rc>
    <rc><c>Fe</c><c>   1</c></rc>
    <rc><c>Fe</c><c>   1</c></rc>
    <rc><c>Fe</c><c>   1</c></rc>
    <rc><c>Fe</c><c>   1</c></rc>
    <rc><c>Fe</c><c>   1</c></rc>
    <rc><c>Fe</c><c>   1</c></rc>
    <rc><c>Fe</c><c>   1</c></rc>
    <rc><c>Fe</c><c>   1</c></rc>
    <rc><c>Fe</c><c>   1</c></rc>
    <rc><c>Fe</c><c>   1</c></rc>
    <rc><c>Fe</c><c>   1</c></rc>
    <rc><c>Fe</c><c>   1</c></rc>
    <rc><c>Fe</c><c>   1</c></rc>
    <rc><c>Fe</c><c>   1</c></rc>
    <rc><c>Fe</c><c>   1</c></rc>
    <rc><c>Fe</c><c>   1</c></rc>
    <rc><c>Fe</c><c>   1</c></rc>
    <rc><c>Fe</c><c>   1</c></rc>
    <rc><c>Fe</c><c>   1</c></rc>
    <rc><c>Fe</c><c>   1</c></rc>
    <rc><c>Fe</c><c>   1</c></rc>
    <rc><c>Fe</c><c>   1</c></rc>
    <rc><c>Fe</c><c>   1</c></rc>
    <rc><c>Fe</c><c>   1</c></rc>
    <rc><c>Fe</c><c>   1</c></rc>
    <rc><c>Fe</c><c>   1</c></rc>
    <rc><c>Fe</c><c>   1</c></rc>
    <rc><c>Fe</c><c>   1</c></rc>
    <rc><c>Fe</c><c>   1</c></rc>
    <rc><c>Fe</c><c>   1</c></rc>
    <rc><c>Fe</c><c>   1</c></rc>
    <rc><c>Fe</c><c>   1</c></rc>
    <rc><c>Fe</c><c>   1</c></rc>
    <rc><c>Fe</c><c>   1</c></rc>
    <rc><c>Fe</c><c>   1</c></rc>
    <rc><c>Fe</c><c>   1</c></rc>
    <rc><c>Fe</c><c>   1</c></rc>
    <rc><c>Fe</c><c>   1</c></rc>
    <rc><c>Fe</c><c>   1</c></rc>
    <rc><c>Fe</c><c>   1</c></rc>
    <rc><c>Fe</c><c>   1</c></rc>
    <rc><c>Fe</c><c>   1</c></rc>
    <rc><c>Fe</c><c>   1</c></rc>
    <rc><c>Fe</c><c>   1</c></rc>
    <rc><c>Fe</c><c>   1</c></rc>
    <rc><c>Fe</c><c>   1</c></rc>
    <rc><c>Fe</c><c>   1</c></rc>
    <rc><c>Fe</c><c>   1</c></rc>
    <rc><c>Fe</c><c>   1</c></rc>
    <rc><c>Fe</c><c>   1</c></rc>
    <rc><c>Fe</c><c>   1</c></rc>
    <rc><c>Fe</c><c>   1</c></rc>
    <rc><c>Fe</c><c>   1</c></rc>
    <rc><c>Fe</c><c>   1</c></rc>
    <rc><c>Fe</c><c>   1</c></rc>
    <rc><c>Fe</c><c>   1</c></rc>
    <rc><c>Fe</c><c>   1</c></rc>
    <rc><c>Fe</c><c>   1</c></rc>
    <rc><c>Fe</c><c>   1</c></rc>
    <rc><c>Fe</c><c>   1</c></rc>
    <rc><c>Fe</c><c>   1</c></rc>
    <rc><c>Fe</c><c>   1</c></rc>
    <rc><c>Fe</c><c>   1</c></rc>
    <rc><c>Fe</c><c>   1</c></rc>
    <rc><c>Fe</c><c>   1</c></rc>
    <rc><c>Fe</c><c>   1</c></rc>
    <rc><c>Fe</c><c>   1</c></rc>
    <rc><c>Fe</c><c>   1</c></rc>
    <rc><c>Fe</c><c>   1</c></rc>
    <rc><c>Fe</c><c>   1</c></rc>
    <rc><c>Fe</c><c>   1</c></rc>
    <rc><c>Fe</c><c>   1</c></rc>
    <rc><c>Fe</c><c>   1</c></rc>
    <rc><c>Fe</c><c>   1</c></rc>
    <rc><c>Fe</c><c>   1</c></rc>
    <rc><c>Fe</c><c>   1</c></rc>
    <rc><c>Fe</c><c>   1</c></rc>
    <rc><c>Fe</c><c>   1</c></rc>
    <rc><c>Fe</c><c>   1</c></rc>
    <rc><c>Fe</c><c>   1</c></rc>
    <rc><c>Fe</c><c>   1</c></rc>
    <rc><c>Fe</c><c>   1</c></rc>
    <rc><c>Fe</c><c>   1</c></rc>
    <rc><c>Fe</c><c>   1</c></rc>
    <rc><c>Fe</c><c>   1</c></rc>
    <rc><c>Fe</c><c>   1</c></rc>
    <rc><c>Fe</c><c>   1</c></rc>
    <rc><c>Fe</c><c>   1</c></rc>
    <rc><c>Fe</c><c>   1</c></rc>
    <rc><c>Fe</c><c>   1</c></rc>
    <rc><c>Fe</c><c>   1</c></rc>
    <rc><c>Fe</c><c>   1</c></rc>
    <rc><c>Fe</c><c>   1</c></rc>
    <rc><c>Fe</c><c>   1</c></rc>
    <rc><c>Fe</c><c>   1</c></rc>
    <rc><c>Fe</c><c>   1</c></rc>
    <rc><c>Fe</c><c>   1</c></rc>
    <rc><c>Fe</c><c>   1</c></rc>
    <rc><c>Fe</c><c>   1</c></rc>
    <rc><c>Fe</c><c>   1</c></rc>
    <rc><c>Fe</c><c>   1</c></rc>
    <rc><c>Fe</c><c>   1</c></rc>
    <rc><c>Fe</c><c>   1</c></rc>
    <rc><c>Fe</c><c>   1</c></rc>
    <rc><c>Fe</c><c>   1</c></rc>
    <rc><c>Fe</c><c>   1</c></rc>
    <rc><c>Fe</c><c>   1</c></rc>
    <rc><c>Fe</c><c>   1</c></rc>
    <rc><c>Fe</c><c>   1</c></rc>
    <rc><c>Fe</c><c>   1</c></rc>
    <rc><c>Fe</c><c>   1</c></rc>
    <rc><c>Fe</c><c>   1</c></rc>
    <rc><c>Fe</c><c>   1</c></rc>
    <rc><c>Fe</c><c>   1</c></rc>
    <rc><c>Fe</c><c>   1</c></rc>
    <rc><c>Fe</c><c>   1</c></rc>
    <rc><c>Fe</c><c>   1</c></rc>
    <rc><c>Fe</c><c>   1</c></rc>
    <rc><c>Fe</c><c>   1</c></rc>
    <rc><c>Fe</c><c>   1</c></rc>
    <rc><c>Fe</c><c>   1</c></rc>
    <rc><c>Fe</c><c>   1</c></rc>
    <rc><c>Fe</c><c>   1</c></rc>
    <rc><c>Fe</c><c>   1</c></rc>
    <rc><c>Fe</c><c>   1</c></rc>
    <rc><c>Fe</c><c>   1</c></rc>
    <rc><c>Fe</c><c>   1</c></rc>
    <rc><c>Fe</c><c>   1</c></rc>
    <rc><c>Fe</c><c>   1</c></rc>
    <rc><c>Fe</c><c>   1</c></rc>
    <rc><c>Fe</c><c>   1</c></rc>
    <rc><c>Fe</c><c>   1</c></rc>
    <rc><c>Fe</c><c>   1</c></rc>
    <rc><c>Fe</c><c>   1</c></rc>
    <rc><c>Fe</c><c>   1</c></rc>
    <rc><c>Fe</c><c>   1</c></rc>
    <rc><c>Fe</c><c>   1</c></rc>
    <rc><c>Fe</c><c>   1</c></rc>
    <rc><c>Fe</c><c>   1</c></rc>
    <rc><c>Fe</c><c>   1</c></rc>
    <rc><c>Fe</c><c>   1</c></rc>
    <rc><c>Fe</c><c>   1</c></rc>
    <rc><c>Fe</c><c>   1</c></rc>
    <rc><c>Fe</c><c>   1</c></rc>
    <rc><c>Fe</c><c>   1</c></rc>
    <rc><c>Fe</c><c>   1</c></rc>
    <rc><c>Fe</c><c>   1</c></rc>
    <rc><c>Fe</c><c>   1</c></rc>
    <rc><c>Mn</c><c>   2</c></rc>
    <rc><c>Mn</c><c>   2</c></rc>
    <rc><c>Mn</c><c>   2</c></rc>
    <rc><c>Mn</c><c>   2</c></rc>
    <rc><c>Mn</c><c>   2</c></rc>
    <rc><c>Mn</c><c>   2</c></rc>
    <rc><c>Mn</c><c>   2</c></rc>
   </set>
  </array>
  <array name="atomtypes" >
   <dimension dim="1">type</dimension>
   <field type="int">atomspertype</field>
   <field type="string">element</field>
   <field>mass</field>
   <field>valence</field>
   <field type="string">pseudopotential</field>
   <set>
    <rc><c> 281</c><c>Fe</c><c>     55.84700000</c><c>      8.00000000</c><c>  PAW_PBE Fe_GW 31Mar2010               </c></rc>
    <rc><c>   7</c><c>Mn</c><c>     54.93800000</c><c>      7.00000000</c><c>  PAW_PBE Mn_GW 31Mar2010               </c></rc>
   </set>
  </array>
 </atominfo>
 <structure name="initialpos" >
  <crystal>
   <varray name="basis" >
    <v>       9.72667804       0.00000000       0.00000000 </v>
    <v>       0.00000000       8.42355028       0.00000000 </v>
    <v>       0.00000000       0.00000000      45.00000000 </v>
   </varray>
   <i name="volume">   3686.99226691 </i>
   <varray name="rec_basis" >
    <v>       0.10281002       0.00000000       0.00000000 </v>
    <v>       0.00000000       0.11871479       0.00000000 </v>
    <v>       0.00000000       0.00000000       0.02222222 </v>
   </varray>
  </crystal>
  <varray name="positions" >
   <v>       0.05318198       0.70133722       0.21134232 </v>
   <v>       0.31818071       0.72384032       0.87612972 </v>
   <v>       0.68765882       0.95816212       0.61136285 </v>
   <v>       0.43783972       0.45805804       0.61139933 </v>
   <v>       0.43988389       0.28821603       0.25547950 </v>
   <v>       0.05869067       0.38844724       0.83336993 </v>
   <v>       0.30864883       0.88772694       0.83349389 </v>
   <v>       0.44706862       0.62610594       0.70020811 </v>
   <v>       0.06025472       0.21247612       0.74481986 </v>
   <v>       0.17806230       0.45088790       0.21147001 </v>
   <v>       0.56781231       0.21064249       0.47751488 </v>
   <v>       0.06656870       0.87506222       0.56686782 </v>
   <v>       0.56822451       0.22385975       0.87606451 </v>
   <v>       0.80729176       0.52612289       0.12408407 </v>
   <v>       0.42971429       0.95085671       0.21145163 </v>
   <v>       0.56654645       0.37501337       0.56685720 </v>
   <v>       0.81220372       0.04189794       0.38861401 </v>
   <v>       0.68178803       0.78898188       0.52249076 </v>
   <v>       0.44289780       0.46058046       0.47750112 </v>
   <v>       0.43437513       0.96229715       0.74454334 </v>
   <v>       0.44159511       0.62502088       0.56686347 </v>
   <v>       0.57166098       0.87601365       0.70046367 </v>
   <v>       0.31148722       0.02768014       0.12401597 </v>
   <v>       0.69023174       0.95934297       0.34417502 </v>
   <v>       0.68810519       0.78353260       0.12419802 </v>
   <v>       0.05251810       0.37383465       0.29971551 </v>
   <v>       0.68936864       0.46736419       0.87588928 </v>
   <v>       0.42874150       0.45113546       0.21149461 </v>
   <v>       0.80849198       0.37505526       0.43312290 </v>
   <v>       0.56306595       0.70836097       0.61151174 </v>
   <v>       0.55966183       0.54056582       0.65580889 </v>
   <v>       0.93342561       0.12501760       0.43311877 </v>
   <v>       0.56500637       0.53752648       0.25541537 </v>
   <v>       0.69021756       0.45928204       0.34418596 </v>
   <v>       0.19060885       0.61031505       0.16627222 </v>
   <v>       0.19554480       0.79898407       0.78871420 </v>
   <v>       0.44722251       0.12600477       0.70019907 </v>
   <v>       0.92771600       0.62360445       0.29965800 </v>
   <v>       0.31747813       0.22310889       0.87606952 </v>
   <v>       0.31661333       0.87474419       0.56683323 </v>
   <v>       0.81727824       0.22357365       0.87611436 </v>
   <v>       0.80958554       0.54096515       0.65575476 </v>
   <v>       0.55893664       0.52586610       0.12389771 </v>
   <v>       0.56996537       0.04935105       0.78882721 </v>
   <v>       0.18993773       0.28822183       0.25545261 </v>
   <v>       0.80845918       0.87493665       0.43307953 </v>
   <v>       0.57231714       0.37613702       0.70021686 </v>
   <v>       0.05993653       0.02852782       0.12409672 </v>
   <v>       0.30963928       0.54066394       0.65581705 </v>
   <v>       0.56518674       0.20935294       0.34409011 </v>
   <v>       0.18766656       0.95818094       0.61132674 </v>
   <v>       0.30272856       0.37381569       0.29970269 </v>
   <v>       0.43456044       0.79045545       0.65583654 </v>
   <v>       0.19597122       0.29831807       0.78865157 </v>
   <v>       0.06700952       0.36395015       0.16644467 </v>
   <v>       0.69714797       0.62624521       0.70033506 </v>
   <v>       0.31219192       0.54179582       0.38859819 </v>
   <v>       0.06776899       0.72280776       0.87612410 </v>
   <v>       0.93363927       0.63759580       0.83366727 </v>
   <v>       0.32014247       0.54933513       0.78880513 </v>
   <v>       0.30375600       0.20087271       0.21134528 </v>
   <v>       0.06803265       0.71066907       0.47747386 </v>
   <v>       0.55325642       0.20150958       0.21130254 </v>
   <v>       0.31058288       0.21148008       0.74459599 </v>
   <v>       0.07210043       0.37633417       0.70035234 </v>
   <v>       0.18330413       0.63761401       0.83351323 </v>
   <v>       0.07027692       0.04908657       0.78885813 </v>
   <v>       0.44154699       0.12498939       0.56690485 </v>
   <v>       0.93472516       0.29068996       0.65581661 </v>
   <v>       0.80376261       0.20109713       0.21126808 </v>
   <v>       0.92919361       0.95065547       0.21159716 </v>
   <v>       0.94153134       0.62502734       0.56683439 </v>
   <v>       0.80824119       0.38769399       0.83347031 </v>
   <v>       0.19718064       0.62597665       0.70013436 </v>
   <v>       0.80858976       0.88778929       0.83350934 </v>
   <v>       0.68475697       0.29063577       0.65590447 </v>
   <v>       0.31265779       0.20794842       0.61134289 </v>
   <v>       0.43501067       0.46272087       0.74465659 </v>
   <v>       0.43678102       0.79159775       0.38845005 </v>
   <v>       0.68496152       0.96251015       0.74454056 </v>
   <v>       0.80284880       0.70138432       0.21142744 </v>
   <v>       0.81308154       0.70841454       0.61154058 </v>
   <v>       0.43679972       0.78455246       0.12413292 </v>
   <v>       0.31009126       0.71171554       0.74454052 </v>
   <v>       0.32102540       0.04913219       0.78870774 </v>
   <v>       0.81160110       0.54153791       0.38843004 </v>
   <v>       0.68232374       0.28819371       0.52234363 </v>
   <v>       0.69579765       0.79894233       0.78875338 </v>
   <v>       0.18994795       0.78814517       0.25544327 </v>
   <v>       0.69106718       0.11117665       0.16668994 </v>
   <v>       0.69260017       0.96062294       0.47749348 </v>
   <v>       0.94034856       0.95952558       0.34415606 </v>
   <v>       0.80698828       0.03868389       0.52252743 </v>
   <v>       0.68350203       0.62506189       0.43310617 </v>
   <v>       0.44024186       0.45925512       0.34418524 </v>
   <v>       0.81088135       0.21147970       0.74457034 </v>
   <v>       0.43943777       0.96758803       0.87591438 </v>
   <v>       0.56656062       0.87473498       0.56681686 </v>
   <v>       0.80991148       0.02789814       0.12396539 </v>
   <v>       0.42755749       0.62372033       0.29962656 </v>
   <v>       0.81689939       0.72295251       0.87619679 </v>
   <v>       0.68765342       0.45801329       0.61137257 </v>
   <v>       0.55855174       0.38766222       0.83327912 </v>
   <v>       0.80271561       0.37367171       0.29963383 </v>
   <v>       0.18699741       0.29179636       0.38849151 </v>
   <v>       0.82053560       0.54921865       0.78879166 </v>
   <v>       0.18225511       0.78917175       0.52254569 </v>
   <v>       0.30274937       0.87417710       0.29978254 </v>
   <v>       0.17860613       0.95116430       0.21145834 </v>
   <v>       0.18480786       0.46201258       0.74473864 </v>
   <v>       0.43243980       0.28834355       0.52232881 </v>
   <v>       0.06518458       0.70912414       0.34403240 </v>
   <v>       0.18470240       0.79064163       0.65580317 </v>
   <v>       0.44575960       0.79874598       0.78869661 </v>
   <v>       0.68338858       0.12500112       0.43307887 </v>
   <v>       0.93212406       0.78838444       0.52236094 </v>
   <v>       0.69121609       0.61240910       0.16669008 </v>
   <v>       0.81528140       0.70941119       0.34408727 </v>
   <v>       0.93474903       0.46234109       0.74489849 </v>
   <v>       0.19036610       0.45943768       0.34416413 </v>
   <v>       0.57047813       0.54932396       0.78883834 </v>
   <v>       0.56614748       0.36369331       0.16664277 </v>
   <v>       0.56521918       0.70942785       0.34411632 </v>
   <v>       0.55266222       0.37382137       0.29967313 </v>
   <v>       0.18927521       0.46742247       0.87589067 </v>
   <v>       0.19131695       0.11172043       0.16657305 </v>
   <v>       0.44519356       0.29854558       0.78864917 </v>
   <v>       0.68995688       0.78812032       0.25543107 </v>
   <v>       0.93360552       0.13752178       0.83352431 </v>
   <v>       0.44274454       0.96072453       0.47746384 </v>
   <v>       0.56760125       0.72434880       0.87611128 </v>
   <v>       0.19272233       0.46081983       0.47747258 </v>
   <v>       0.93442361       0.28334722       0.12418687 </v>
   <v>       0.31211785       0.04200226       0.38867428 </v>
   <v>       0.05971497       0.04055817       0.65589025 </v>
   <v>       0.55843928       0.37493766       0.43312142 </v>
   <v>       0.68443926       0.46253342       0.74493578 </v>
   <v>       0.56050227       0.21241276       0.74459948 </v>
   <v>       0.94715072       0.12621864       0.70028334 </v>
   <v>       0.55963417       0.04080523       0.65577878 </v>
   <v>       0.55686106       0.53910889       0.52253321 </v>
   <v>       0.17770626       0.12390048       0.29973367 </v>
   <v>       0.44058502       0.11076291       0.16659910 </v>
   <v>       0.67765586       0.62375549       0.29961426 </v>
   <v>       0.92763772       0.12395212       0.29983478 </v>
   <v>       0.81660167       0.37505212       0.56688106 </v>
   <v>       0.05280233       0.87391197       0.29984381 </v>
   <v>       0.19164000       0.62492368       0.56687760 </v>
   <v>       0.94579255       0.79928129       0.78873365 </v>
   <v>       0.30831640       0.38748088       0.83348018 </v>
   <v>       0.93920197       0.46812928       0.87588493 </v>
   <v>       0.43360932       0.63796165       0.83348754 </v>
   <v>       0.06506482       0.20916474       0.34397604 </v>
   <v>       0.18954962       0.96734140       0.87603254 </v>
   <v>       0.93619670       0.78412759       0.12415092 </v>
   <v>       0.68679455       0.79151884       0.38847019 </v>
   <v>       0.93468213       0.79063615       0.65581501 </v>
   <v>       0.94071226       0.11065060       0.16665107 </v>
   <v>       0.43496579       0.29067980       0.65594964 </v>
   <v>       0.05374514       0.20035454       0.21155316 </v>
   <v>       0.67846997       0.95136476       0.21145567 </v>
   <v>       0.17761115       0.62383342       0.29957999 </v>
   <v>       0.82214367       0.87630385       0.70036547 </v>
   <v>       0.94705961       0.62640241       0.70038162 </v>
   <v>       0.19723751       0.12597528       0.70014906 </v>
   <v>       0.94294233       0.46069161       0.47743853 </v>
   <v>       0.81275900       0.20811635       0.61136666 </v>
   <v>       0.18336708       0.62505485       0.43313135 </v>
   <v>       0.42760877       0.12376393       0.29972234 </v>
   <v>       0.67775271       0.12385103       0.29975251 </v>
   <v>       0.56192889       0.54171207       0.38851704 </v>
   <v>       0.81511044       0.20922132       0.34401593 </v>
   <v>       0.43924834       0.46746146       0.87577286 </v>
   <v>       0.55868124       0.88755579       0.83330979 </v>
   <v>       0.31779014       0.21060202       0.47746658 </v>
   <v>       0.19269955       0.96059031       0.47751519 </v>
   <v>       0.05838155       0.88763072       0.83347982 </v>
   <v>       0.05698262       0.53886190       0.52242159 </v>
   <v>       0.94280926       0.96059632       0.47743041 </v>
   <v>       0.06289789       0.70813465       0.61150317 </v>
   <v>       0.55722967       0.03837257       0.52235444 </v>
   <v>       0.69588963       0.29853926       0.78868490 </v>
   <v>       0.81729106       0.36314270       0.16671278 </v>
   <v>       0.43342749       0.12489637       0.43309186 </v>
   <v>       0.06776709       0.21073978       0.47746154 </v>
   <v>       0.30960387       0.04060334       0.65581154 </v>
   <v>       0.43199955       0.78866088       0.52242472 </v>
   <v>       0.18357927       0.13767012       0.83353826 </v>
   <v>       0.18630385       0.28326498       0.12414792 </v>
   <v>       0.94034987       0.45941528       0.34418713 </v>
   <v>       0.56725000       0.86377735       0.16639625 </v>
   <v>       0.30382424       0.70117791       0.21134895 </v>
   <v>       0.94035782       0.61024712       0.16645016 </v>
   <v>       0.18767257       0.45800673       0.61135470 </v>
   <v>       0.07224136       0.87624308       0.70016974 </v>
   <v>       0.05971790       0.54060159       0.65579799 </v>
   <v>       0.31028512       0.52653086       0.12393805 </v>
   <v>       0.93680578       0.79165850       0.38850468 </v>
   <v>       0.94581856       0.29816565       0.78865091 </v>
   <v>       0.18459259       0.29050078       0.65585498 </v>
   <v>       0.93757268       0.95800752       0.61137750 </v>
   <v>       0.81097757       0.71136569       0.74460592 </v>
   <v>       0.68994237       0.28820746       0.25548591 </v>
   <v>       0.05987968       0.71195647       0.74488774 </v>
   <v>       0.67851246       0.45093995       0.21131945 </v>
   <v>       0.81796044       0.21085596       0.47755026 </v>
   <v>       0.56774588       0.71064232       0.47745140 </v>
   <v>       0.06653310       0.86287654       0.16637178 </v>
   <v>       0.93224092       0.28832006       0.52241823 </v>
   <v>       0.68461150       0.79051221       0.65583382 </v>
   <v>       0.05828850       0.87461788       0.43313821 </v>
   <v>       0.06783007       0.22281147       0.87607062 </v>
   <v>       0.80966513       0.04047448       0.65586068 </v>
   <v>       0.55992456       0.02708866       0.12407329 </v>
   <v>       0.30845834       0.37489025       0.43306711 </v>
   <v>       0.31651416       0.37492781       0.56685394 </v>
   <v>       0.31782259       0.71050983       0.47742503 </v>
   <v>       0.05719702       0.03836472       0.52244300 </v>
   <v>       0.32213851       0.87634488       0.70038833 </v>
   <v>       0.06496231       0.53758996       0.25536433 </v>
   <v>       0.68347448       0.13769242       0.83351666 </v>
   <v>       0.81483185       0.03746639       0.25533910 </v>
   <v>       0.18352010       0.12503958       0.43310357 </v>
   <v>       0.69731147       0.12640377       0.70033113 </v>
   <v>       0.18236436       0.28835181       0.52236049 </v>
   <v>       0.43993850       0.78812391       0.25543872 </v>
   <v>       0.81455186       0.53754950       0.25549398 </v>
   <v>       0.06279130       0.20805467       0.61132023 </v>
   <v>       0.18656615       0.79144216       0.38841819 </v>
   <v>       0.30720579       0.53840574       0.52242985 </v>
   <v>       0.82191756       0.37621780       0.70011716 </v>
   <v>       0.68699114       0.29175160       0.38848449 </v>
   <v>       0.19160359       0.12501482       0.56688036 </v>
   <v>       0.68975868       0.96835070       0.87609426 </v>
   <v>       0.69156452       0.12499126       0.56689691 </v>
   <v>       0.44029659       0.95933553       0.34417602 </v>
   <v>       0.18431689       0.96238754       0.74452701 </v>
   <v>       0.94021390       0.78812176       0.25544296 </v>
   <v>       0.55842085       0.87493318       0.43312133 </v>
   <v>       0.30833810       0.87494267       0.43311338 </v>
   <v>       0.80719183       0.53920634       0.52254225 </v>
   <v>       0.92871589       0.45103886       0.21135291 </v>
   <v>       0.31453204       0.53778772       0.25553426 </v>
   <v>       0.56227145       0.04204505       0.38867875 </v>
   <v>       0.93778949       0.45803774       0.61142433 </v>
   <v>       0.06210011       0.04180829       0.38854446 </v>
   <v>       0.06202150       0.54150683       0.38848848 </v>
   <v>       0.43695405       0.29167729       0.38850750 </v>
   <v>       0.69282509       0.46067621       0.47745667 </v>
   <v>       0.06657962       0.37495165       0.56687278 </v>
   <v>       0.55319532       0.70152856       0.21134993 </v>
   <v>       0.94003194       0.28825339       0.25546241 </v>
   <v>       0.82005437       0.04941245       0.78890139 </v>
   <v>       0.19022319       0.95931148       0.34419151 </v>
   <v>       0.55258415       0.87407694       0.29986448 </v>
   <v>       0.05832097       0.37501518       0.43309592 </v>
   <v>       0.31533679       0.70943780       0.34415634 </v>
   <v>       0.31522834       0.20932819       0.34412360 </v>
   <v>       0.94175446       0.12499494       0.56675792 </v>
   <v>       0.43789260       0.95824996       0.61144842 </v>
   <v>       0.56480279       0.03749286       0.25540518 </v>
   <v>       0.18675324       0.78463055       0.12427990 </v>
   <v>       0.06522954       0.03731734       0.25508832 </v>
   <v>       0.69166449       0.62497433       0.56687995 </v>
   <v>       0.44029962       0.61024932       0.16635414 </v>
   <v>       0.30711294       0.03840592       0.52234589 </v>
   <v>       0.68661306       0.28339306       0.12414649 </v>
   <v>       0.81773687       0.71079814       0.47745274 </v>
   <v>       0.43353582       0.13777217       0.83346793 </v>
   <v>       0.32232434       0.37616729       0.70020269 </v>
   <v>       0.68361074       0.63787143       0.83344526 </v>
   <v>       0.56064642       0.71147959       0.74460137 </v>
   <v>       0.93728342       0.29194211       0.38862018 </v>
   <v>       0.93958023       0.96807494       0.87610264 </v>
   <v>       0.56270286       0.20794993       0.61129972 </v>
   <v>       0.81661416       0.87495509       0.56686927 </v>
   <v>       0.80266009       0.87396564       0.29977029 </v>
   <v>       0.31486438       0.03777881       0.25516266 </v>
   <v>       0.43517700       0.28380255       0.12386608 </v>
   <v>       0.31309821       0.70838318       0.61150866 </v>
   <v>       0.43334926       0.62501200       0.43310484 </v>
   <v>       0.93233224       0.62533879       0.43330869 </v>
   <v>       0.31816107       0.86295810       0.16609002 </v>
   <v>       0.07158140       0.54903782       0.78858185 </v>
   <v>       0.81793800       0.86329267       0.16606405 </v>
   <v>       0.31728996       0.36413482       0.16569060 </v>
   <v>       0.93378813       0.96218655       0.74451263 </v>
   <v>       0.05836593       0.52598711       0.12451215 </v>
  </varray>
 </structure>
 <calculation>
  <scstep>
   <time name="dav">   54.01   54.02</time>
   <time name="total">   54.17   54.23</time>
   <energy>
    <i name="alphaZ">  16403.00255340 </i>
    <i name="ewald"> 723714.18796528 </i>
    <i name="hartreedc">-915380.44332441 </i>
    <i name="XCdc">  -6389.54935894 </i>
    <i name="pawpsdc"> 163151.95320885 </i>
    <i name="pawaedc">-160818.84594568 </i>
    <i name="eentropy">     -1.04685894 </i>
    <i name="bandstr">  38621.48533958 </i>
    <i name="atom"> 169914.59583762 </i>
    <i name="e_fr_energy">  29215.33941677 </i>
    <i name="e_wo_entrp">  29216.38627570 </i>
    <i name="e_0_energy">  29215.86284624 </i>
   </energy>
  </scstep>
  <scstep>
   <time name="dav">   53.53   53.56</time>
   <time name="total">   53.54   53.57</time>
   <energy>
    <i name="e_fr_energy">   1193.41961816 </i>
    <i name="e_wo_entrp">   1194.88779725 </i>
    <i name="e_0_energy">   1194.15370770 </i>
   </energy>
  </scstep>
  <scstep>
   <time name="dav">   70.40   70.46</time>
   <time name="total">   70.41   70.47</time>
   <energy>
    <i name="e_fr_energy">  -1939.17256418 </i>
    <i name="e_wo_entrp">  -1935.60285859 </i>
    <i name="e_0_energy">  -1937.38771138 </i>
   </energy>
  </scstep>
  <scstep>
   <time name="dav">   88.10   88.14</time>
   <time name="total">   88.10   88.15</time>
   <energy>
    <i name="e_fr_energy">  -2606.25877742 </i>
    <i name="e_wo_entrp">  -2602.64745076 </i>
    <i name="e_0_energy">  -2604.45311409 </i>
   </energy>
  </scstep>
  <scstep>
   <time name="dav">   84.08   84.13</time>
   <time name="total">   86.17   86.21</time>
   <energy>
    <i name="e_fr_energy">  -2726.37765218 </i>
    <i name="e_wo_entrp">  -2722.59187935 </i>
    <i name="e_0_energy">  -2724.48476576 </i>
   </energy>
  </scstep>
  <scstep>
   <time name="diag">    8.23    8.23</time>
   <time name="diis">   37.35   37.35</time>
   <time name="orth">    2.28    2.28</time>
   <time name="total">   50.08   50.12</time>
   <energy>
    <i name="e_fr_energy">  -5168.37403782 </i>
    <i name="e_wo_entrp">  -5164.66290292 </i>
    <i name="e_0_energy">  -5166.51847037 </i>
   </energy>
  </scstep>
  <scstep>
   <time name="diag">    8.26    8.26</time>
   <time name="diis">   23.54   23.54</time>
   <time name="orth">    2.31    2.31</time>
   <time name="total">   36.29   36.33</time>
[...]
       <r>     5.9062     0.0000  2772.0000 </r>
       <r>     5.9491     0.0000  2772.0000 </r>
       <r>     5.9920     0.0000  2772.0000 </r>
       <r>     6.0349     0.0000  2772.0000 </r>
       <r>     6.0778     0.0000  2772.0000 </r>
       <r>     6.1207     0.0000  2772.0000 </r>
       <r>     6.1636     0.0000  2772.0000 </r>
       <r>     6.2065     0.0000  2772.0000 </r>
       <r>     6.2494     0.0000  2772.0000 </r>
       <r>     6.2923     0.0000  2772.0000 </r>
       <r>     6.3352     0.0000  2772.0000 </r>
       <r>     6.3781     0.0000  2772.0000 </r>
       <r>     6.4210     0.0000  2772.0000 </r>
       <r>     6.4639     0.0000  2772.0000 </r>
       <r>     6.5068     0.0000  2772.0000 </r>
       <r>     6.5497     0.0000  2772.0000 </r>
       <r>     6.5926     0.0000  2772.0000 </r>
       <r>     6.6355     0.0000  2772.0000 </r>
       <r>     6.6784     0.0000  2772.0000 </r>
       <r>     6.7213     0.0000  2772.0000 </r>
       <r>     6.7642     0.0000  2772.0000 </r>
       <r>     6.8071     0.0000  2772.0000 </r>
       <r>     6.8500     0.0000  2772.0000 </r>
      </set>
     </set>
    </array>
   </total>
  </dos>
 </calculation>
 <structure name="finalpos" >
  <crystal>
   <varray name="basis" >
    <v>       9.72667804       0.00000000       0.00000000 </v>
    <v>       0.00000000       8.42355028       0.00000000 </v>
    <v>       0.00000000       0.00000000      45.00000000 </v>
   </varray>
   <i name="volume">   3686.99226691 </i>
   <varray name="rec_basis" >
    <v>       0.10281002       0.00000000       0.00000000 </v>
    <v>       0.00000000       0.11871479       0.00000000 </v>
    <v>       0.00000000       0.00000000       0.02222222 </v>
   </varray>
  </crystal>
  <varray name="positions" >
   <v>       0.05765010       0.70060854       0.21127661 </v>
   <v>       0.31589469       0.71982774       0.87565911 </v>
   <v>       0.68815118       0.95787468       0.61140147 </v>
   <v>       0.43814461       0.45775967       0.61139705 </v>
   <v>       0.43580030       0.28719701       0.25562047 </v>
   <v>       0.06110311       0.38649144       0.83399666 </v>
   <v>       0.31131864       0.88670090       0.83403752 </v>
   <v>       0.44226212       0.62638391       0.70026886 </v>
   <v>       0.06439542       0.21286829       0.74438643 </v>
   <v>       0.18234193       0.45187313       0.21137466 </v>
   <v>       0.56382950       0.20911513       0.47788857 </v>
   <v>       0.06389088       0.87452013       0.56677657 </v>
   <v>       0.56533025       0.21949056       0.87556260 </v>
   <v>       0.80989738       0.53171359       0.12455486 </v>
   <v>       0.43274956       0.95217997       0.21131476 </v>
   <v>       0.56399470       0.37455017       0.56672655 </v>
   <v>       0.81176658       0.04231008       0.38853300 </v>
   <v>       0.68604881       0.79049032       0.52213981 </v>
   <v>       0.43885827       0.45903894       0.47786750 </v>
   <v>       0.43861645       0.96225883       0.74444645 </v>
   <v>       0.43882142       0.62441014       0.56678958 </v>
   <v>       0.56735999       0.87642999       0.70017807 </v>
   <v>       0.31098599       0.03129874       0.12427867 </v>
   <v>       0.68696931       0.95863272       0.34439144 </v>
   <v>       0.68826093       0.77960939       0.12459708 </v>
   <v>       0.05758985       0.37350099       0.29975863 </v>
   <v>       0.68874406       0.47127569       0.87538283 </v>
   <v>       0.43274271       0.45190685       0.21138293 </v>
   <v>       0.81107866       0.37515284       0.43313798 </v>
   <v>       0.56297429       0.70781929       0.61146744 </v>
   <v>       0.56297607       0.54126006       0.65560051 </v>
   <v>       0.93605502       0.12520758       0.43316470 </v>
   <v>       0.56052579       0.53743544       0.25540813 </v>
   <v>       0.68671679       0.45844200       0.34416074 </v>
   <v>       0.18755036       0.61284795       0.16620633 </v>
   <v>       0.19225626       0.79906877       0.78856794 </v>
   <v>       0.44247951       0.12636980       0.70030172 </v>
   <v>       0.93235586       0.62350590       0.29982789 </v>
   <v>       0.31522050       0.21945722       0.87559013 </v>
   <v>       0.31376592       0.87459993       0.56673266 </v>
   <v>       0.81532369       0.21961869       0.87559297 </v>
   <v>       0.81290987       0.54133401       0.65563845 </v>
   <v>       0.56047534       0.53008565       0.12448608 </v>
   <v>       0.56740569       0.04928838       0.78880370 </v>
   <v>       0.18614018       0.28747017       0.25560026 </v>
   <v>       0.81099944       0.87568253       0.43309475 </v>
   <v>       0.56725221       0.37662337       0.70037444 </v>
   <v>       0.06103028       0.03013816       0.12452696 </v>
   <v>       0.31285393       0.54116390       0.65559596 </v>
   <v>       0.56178251       0.20858566       0.34437302 </v>
   <v>       0.18803497       0.95782952       0.61140181 </v>
   <v>       0.30744591       0.37375034       0.29982089 </v>
   <v>       0.43793389       0.79148058       0.65565501 </v>
   <v>       0.19228993       0.29799124       0.78867995 </v>
   <v>       0.06392329       0.36436407       0.16608341 </v>
   <v>       0.69218700       0.62626447       0.70023890 </v>
   <v>       0.31165779       0.54196584       0.38851493 </v>
   <v>       0.06522635       0.71950467       0.87574358 </v>
   <v>       0.93648445       0.63668077       0.83414098 </v>
   <v>       0.31789717       0.54934698       0.78879621 </v>
   <v>       0.30726094       0.20048155       0.21128492 </v>
   <v>       0.06384123       0.70898446       0.47794221 </v>
   <v>       0.55744487       0.20108038       0.21133692 </v>
   <v>       0.31400429       0.21332009       0.74433551 </v>
   <v>       0.06710383       0.37664944       0.70026409 </v>
   <v>       0.18635492       0.63675157       0.83388849 </v>
   <v>       0.06736109       0.04885750       0.78885852 </v>
   <v>       0.43901054       0.12456816       0.56674086 </v>
   <v>       0.93808096       0.29170074       0.65552924 </v>
   <v>       0.80704291       0.20063237       0.21129306 </v>
   <v>       0.93259367       0.95195453       0.21140258 </v>
   <v>       0.93897595       0.62466378       0.56675681 </v>
   <v>       0.81105359       0.38641523       0.83400466 </v>
   <v>       0.19212060       0.62649771       0.70025472 </v>
   <v>       0.81125253       0.88653041       0.83420139 </v>
   <v>       0.68827928       0.29142627       0.65564479 </v>
   <v>       0.31316987       0.20783803       0.61146923 </v>
   <v>       0.43862192       0.46229206       0.74432393 </v>
   <v>       0.43681266       0.79209338       0.38861594 </v>
   <v>       0.68822584       0.96239187       0.74450129 </v>
   <v>       0.80679397       0.70085917       0.21138702 </v>
   <v>       0.81296203       0.70765256       0.61137218 </v>
   <v>       0.43644034       0.77986921       0.12449303 </v>
   <v>       0.31383273       0.71272595       0.74434602 </v>
   <v>       0.31758443       0.04911483       0.78883695 </v>
   <v>       0.81219566       0.54230784       0.38855855 </v>
   <v>       0.68623795       0.29092953       0.52209606 </v>
   <v>       0.69249397       0.79921723       0.78873141 </v>
   <v>       0.18605716       0.78742756       0.25556619 </v>
   <v>       0.68821264       0.11296469       0.16629119 </v>
   <v>       0.68859859       0.95908317       0.47789501 </v>
   <v>       0.93693208       0.95901071       0.34430845 </v>
   <v>       0.81115961       0.04035799       0.52207997 </v>
   <v>       0.68553029       0.62507111       0.43312522 </v>
   <v>       0.43693203       0.45876436       0.34428315 </v>
   <v>       0.81389829       0.21315045       0.74433487 </v>
   <v>       0.43922497       0.97158630       0.87542588 </v>
   <v>       0.56392147       0.87450570       0.56672018 </v>
   <v>       0.81135998       0.03095514       0.12423289 </v>
   <v>       0.43276007       0.62366420       0.29986463 </v>
   <v>       0.81518226       0.72016152       0.87567749 </v>
   <v>       0.68804084       0.45776788       0.61141472 </v>
   <v>       0.56098985       0.38668845       0.83393390 </v>
   <v>       0.80746429       0.37367884       0.29977369 </v>
   <v>       0.18694966       0.29205820       0.38849889 </v>
   <v>       0.81690465       0.54906521       0.78895495 </v>
   <v>       0.18636748       0.79025753       0.52218423 </v>
   <v>       0.30753571       0.87361400       0.29971804 </v>
   <v>       0.18241634       0.95142928       0.21134984 </v>
   <v>       0.18935926       0.46264723       0.74431316 </v>
   <v>       0.43609560       0.29076003       0.52208253 </v>
   <v>       0.06186921       0.70868194       0.34430892 </v>
   <v>       0.18820931       0.79099196       0.65554701 </v>
   <v>       0.44226424       0.79918203       0.78860054 </v>
   <v>       0.68553348       0.12514309       0.43316551 </v>
   <v>       0.93616420       0.79049462       0.52213848 </v>
   <v>       0.68809551       0.61427373       0.16629067 </v>
   <v>       0.81203705       0.70845258       0.34435364 </v>
   <v>       0.93889381       0.46244508       0.74428096 </v>
   <v>       0.18709519       0.45863062       0.34430732 </v>
   <v>       0.56761811       0.54899379       0.78887401 </v>
   <v>       0.56421918       0.36438557       0.16586648 </v>
   <v>       0.56191172       0.70854598       0.34434233 </v>
   <v>       0.55760916       0.37361741       0.29984565 </v>
   <v>       0.18863611       0.47099832       0.87549964 </v>
   <v>       0.18829009       0.11298078       0.16622318 </v>
   <v>       0.44228098       0.29857577       0.78864944 </v>
   <v>       0.68612344       0.78741502       0.25557744 </v>
   <v>       0.93698636       0.13638218       0.83400944 </v>
   <v>       0.43862322       0.95887793       0.47787195 </v>
   <v>       0.56543199       0.71991685       0.87558401 </v>
   <v>       0.18855105       0.45902054       0.47786593 </v>
   <v>       0.93581015       0.27939178       0.12477853 </v>
   <v>       0.31177480       0.04206536       0.38852626 </v>
   <v>       0.06289734       0.04110253       0.65563092 </v>
   <v>       0.56112583       0.37478631       0.43311818 </v>
   <v>       0.68808199       0.46210461       0.74431146 </v>
   <v>       0.56405794       0.21314043       0.74435230 </v>
   <v>       0.94249038       0.12695186       0.70026811 </v>
   <v>       0.56302681       0.04099534       0.65560881 </v>
   <v>       0.56135418       0.54036806       0.52206684 </v>
   <v>       0.18249728       0.12313410       0.29966040 </v>
   <v>       0.43796709       0.11337608       0.16622345 </v>
   <v>       0.68244530       0.62355884       0.29978103 </v>
   <v>       0.93266396       0.12316876       0.29969888 </v>
   <v>       0.81385469       0.37458694       0.56676316 </v>
   <v>       0.05757679       0.87338464       0.29976797 </v>
   <v>       0.18886360       0.62448759       0.56683045 </v>
   <v>       0.94155922       0.79880123       0.78878938 </v>
   <v>       0.31153490       0.38648350       0.83401392 </v>
   <v>       0.93923467       0.47126659       0.87541808 </v>
   <v>       0.43677493       0.63686698       0.83392086 </v>
   <v>       0.06204106       0.20883622       0.34440881 </v>
   <v>       0.18866759       0.97115230       0.87542817 </v>
   <v>       0.93636462       0.78046573       0.12437574 </v>
   <v>       0.68697606       0.79211928       0.38855613 </v>
   <v>       0.93799703       0.79133869       0.65566109 </v>
   <v>       0.93849388       0.11282750       0.16629541 </v>
   <v>       0.43778985       0.29150689       0.65566061 </v>
   <v>       0.05761375       0.20043809       0.21141520 </v>
   <v>       0.68219903       0.95212454       0.21153950 </v>
   <v>       0.18263189       0.62355860       0.29980370 </v>
   <v>       0.81716860       0.87643980       0.70021619 </v>
   <v>       0.94234742       0.62654599       0.70031307 </v>
   <v>       0.19203160       0.12675934       0.70026159 </v>
   <v>       0.93885614       0.45891228       0.47790944 </v>
   <v>       0.81310801       0.20771985       0.61143964 </v>
   <v>       0.18635046       0.62512848       0.43313069 </v>
   <v>       0.43255525       0.12334646       0.29974021 </v>
   <v>       0.68238982       0.12340146       0.29970234 </v>
   <v>       0.56174322       0.54194121       0.38856924 </v>
   <v>       0.81189384       0.20870574       0.34445304 </v>
   <v>       0.43900770       0.47126652       0.87534991 </v>
   <v>       0.56136473       0.88660444       0.83409288 </v>
   <v>       0.31377277       0.20906440       0.47788711 </v>
   <v>       0.18881178       0.95898414       0.47786004 </v>
   <v>       0.06133223       0.88670536       0.83409936 </v>
   <v>       0.06131932       0.54047223       0.52212072 </v>
   <v>       0.93865175       0.95879267       0.47782259 </v>
   <v>       0.06310907       0.70769914       0.61138200 </v>
   <v>       0.56100311       0.04090551       0.52210388 </v>
   <v>       0.69225639       0.29838314       0.78867180 </v>
   <v>       0.81399241       0.36324537       0.16597494 </v>
   <v>       0.43597783       0.12508703       0.43314503 </v>
   <v>       0.06379335       0.20872339       0.47788413 </v>
   <v>       0.31306866       0.04128575       0.65558807 </v>
   <v>       0.43612124       0.79036311       0.52207581 </v>
   <v>       0.18690731       0.13667763       0.83397593 </v>
   <v>       0.18736477       0.27856430       0.12439331 </v>
   <v>       0.93695244       0.45883170       0.34429534 </v>
   <v>       0.56496074       0.86471444       0.16598890 </v>
   <v>       0.30718608       0.70052338       0.21142132 </v>
   <v>       0.93830981       0.61342635       0.16628891 </v>
   <v>       0.18812253       0.45779349       0.61142525 </v>
   <v>       0.06723496       0.87665831       0.70016475 </v>
   <v>       0.06300125       0.54115227       0.65569529 </v>
   <v>       0.31135850       0.53223275       0.12397684 </v>
   <v>       0.93669608       0.79200304       0.38853488 </v>
   <v>       0.94200422       0.29820714       0.78871198 </v>
   <v>       0.18778145       0.29146491       0.65562717 </v>
   <v>       0.93812028       0.95777754       0.61146932 </v>
   <v>       0.81393059       0.71303862       0.74448054 </v>
   <v>       0.68602919       0.28704189       0.25555573 </v>
   <v>       0.06466002       0.71282372       0.74429847 </v>
   <v>       0.68198471       0.45154548       0.21143352 </v>
   <v>       0.81369739       0.20871517       0.47790283 </v>
   <v>       0.56371725       0.70899207       0.47795748 </v>
   <v>       0.06386447       0.86426790       0.16591464 </v>
   <v>       0.93621217       0.29052569       0.52217418 </v>
   <v>       0.68759912       0.79123660       0.65566207 </v>
   <v>       0.06105662       0.87515519       0.43310049 </v>
   <v>       0.06555551       0.21919084       0.87566713 </v>
   <v>       0.81300777       0.04123452       0.65560407 </v>
   <v>       0.56136854       0.03000855       0.12452350 </v>
   <v>       0.31099760       0.37477062       0.43312882 </v>
   <v>       0.31397778       0.37455328       0.56670398 </v>
   <v>       0.31376854       0.70899744       0.47787966 </v>
   <v>       0.06118691       0.04059911       0.52205785 </v>
   <v>       0.31707857       0.87630839       0.70025158 </v>
   <v>       0.06072856       0.53763917       0.25547439 </v>
   <v>       0.68670862       0.13698338       0.83397226 </v>
   <v>       0.81065599       0.03718292       0.25568105 </v>
   <v>       0.18651563       0.12511362       0.43316577 </v>
   <v>       0.69237263       0.12648205       0.70021277 </v>
   <v>       0.18612003       0.29070041       0.52211371 </v>
   <v>       0.43548516       0.78695365       0.25561709 </v>
   <v>       0.81095301       0.53718533       0.25552896 </v>
   <v>       0.06310048       0.20793556       0.61139411 </v>
   <v>       0.18668144       0.79198414       0.38858263 </v>
   <v>       0.31110345       0.54054011       0.52210107 </v>
   <v>       0.81718298       0.37658141       0.70026720 </v>
   <v>       0.68667443       0.29204845       0.38854001 </v>
   <v>       0.18898914       0.12466095       0.56672284 </v>
   <v>       0.68893053       0.97131636       0.87537576 </v>
   <v>       0.68881725       0.12465940       0.56675598 </v>
   <v>       0.43692727       0.95881210       0.34438279 </v>
   <v>       0.18897942       0.96247574       0.74443747 </v>
   <v>       0.93569887       0.78703645       0.25571786 </v>
   <v>       0.56107655       0.87562790       0.43314233 </v>
   <v>       0.31089879       0.87549447       0.43315264 </v>
   <v>       0.81111039       0.54017368       0.52209095 </v>
   <v>       0.93253754       0.45153885       0.21147270 </v>
   <v>       0.31060069       0.53692967       0.25557101 </v>
   <v>       0.56164473       0.04205110       0.38852189 </v>
   <v>       0.93807540       0.45757198       0.61143968 </v>
   <v>       0.06177126       0.04222969       0.38858160 </v>
   <v>       0.06177460       0.54210775       0.38855679 </v>
   <v>       0.43688036       0.29194816       0.38853800 </v>
   <v>       0.68881522       0.45903404       0.47795648 </v>
   <v>       0.06407549       0.37462098       0.56673139 </v>
   <v>       0.55729793       0.70074074       0.21124515 </v>
   <v>       0.93568694       0.28715168       0.25568570 </v>
   <v>       0.81694739       0.04881217       0.78882437 </v>
   <v>       0.18694070       0.95879147       0.34435863 </v>
   <v>       0.55763708       0.87345608       0.29981009 </v>
   <v>       0.06124058       0.37520856       0.43310445 </v>
   <v>       0.31189999       0.70847702       0.34431252 </v>
   <v>       0.31180411       0.20842110       0.34442432 </v>
   <v>       0.93880009       0.12476455       0.56671033 </v>
   <v>       0.43796455       0.95789312       0.61145561 </v>
   <v>       0.56097420       0.03765129       0.25561244 </v>
   <v>       0.18798176       0.78023564       0.12451961 </v>
   <v>       0.06065465       0.03799413       0.25570282 </v>
   <v>       0.68889579       0.62448704       0.56683486 </v>
   <v>       0.43808265       0.61304744       0.16615276 </v>
   <v>       0.31120238       0.04088822       0.52210230 </v>
   <v>       0.68711839       0.27889527       0.12482047 </v>
   <v>       0.81361039       0.70895772       0.47793112 </v>
   <v>       0.43687109       0.13667127       0.83379736 </v>
   <v>       0.31732996       0.37611088       0.70023292 </v>
   <v>       0.68700142       0.63701855       0.83390419 </v>
   <v>       0.56364461       0.71254006       0.74441306 </v>
   <v>       0.93666178       0.29209603       0.38853802 </v>
   <v>       0.93907463       0.97085669       0.87542206 </v>
   <v>       0.56310297       0.20776900       0.61141601 </v>
   <v>       0.81396339       0.87459580       0.56677254 </v>
   <v>       0.80764554       0.87350879       0.29970751 </v>
   <v>       0.31081084       0.03722020       0.25564897 </v>
   <v>       0.43668339       0.27940338       0.12437895 </v>
   <v>       0.31292645       0.70773170       0.61140097 </v>
   <v>       0.43565449       0.62519638       0.43315751 </v>
   <v>       0.93610432       0.62506282       0.43318593 </v>
   <v>       0.31509440       0.86311142       0.16564743 </v>
   <v>       0.06777355       0.54890898       0.78866609 </v>
   <v>       0.81446330       0.86348178       0.16572330 </v>
   <v>       0.31401270       0.36348809       0.16559349 </v>
   <v>       0.93815861       0.96276477       0.74457598 </v>
   <v>       0.06009384       0.52995571       0.12465908 </v>
  </varray>
 </structure>
</modeling>
