unknown system                          
           1
     9.726678    0.000000    0.000000
     0.000000    8.423550    0.000000
     0.000000    0.000000   45.000000
   Fe   Mn
 281   7
Direct configuration=     1
   0.05318198  0.70133722  0.21134232
   0.31818071  0.72384032  0.87612972
   0.68765882  0.95816212  0.61136285
   0.43783972  0.45805804  0.61139933
   0.43988389  0.28821603  0.25547950
   0.05869067  0.38844724  0.83336993
   0.30864883  0.88772694  0.83349389
   0.44706862  0.62610594  0.70020811
   0.06025472  0.21247612  0.74481986
   0.17806230  0.45088790  0.21147001
   0.56781231  0.21064249  0.47751488
   0.06656870  0.87506222  0.56686782
   0.56822451  0.22385975  0.87606451
   0.80729176  0.52612289  0.12408407
   0.42971429  0.95085671  0.21145163
   0.56654645  0.37501337  0.56685720
   0.81220372  0.04189794  0.38861401
   0.68178803  0.78898188  0.52249076
   0.44289780  0.46058046  0.47750112
   0.43437513  0.96229715  0.74454334
   0.44159511  0.62502088  0.56686347
   0.57166098  0.87601365  0.70046367
   0.31148722  0.02768014  0.12401597
   0.69023174  0.95934297  0.34417502
   0.68810519  0.78353260  0.12419802
   0.05251810  0.37383465  0.29971551
   0.68936864  0.46736419  0.87588928
   0.42874150  0.45113546  0.21149461
   0.80849198  0.37505526  0.43312290
   0.56306595  0.70836097  0.61151174
   0.55966183  0.54056582  0.65580889
   0.93342561  0.12501760  0.43311877
   0.56500637  0.53752648  0.25541537
   0.69021756  0.45928204  0.34418596
   0.19060885  0.61031505  0.16627222
   0.19554480  0.79898407  0.78871420
   0.44722251  0.12600477  0.70019907
   0.92771600  0.62360445  0.29965800
   0.31747813  0.22310889  0.87606952
   0.31661333  0.87474419  0.56683323
   0.81727824  0.22357365  0.87611436
   0.80958554  0.54096515  0.65575476
   0.55893664  0.52586610  0.12389771
   0.56996537  0.04935105  0.78882721
   0.18993773  0.28822183  0.25545261
   0.80845918  0.87493665  0.43307953
   0.57231714  0.37613702  0.70021686
   0.05993653  0.02852782  0.12409672
   0.30963928  0.54066394  0.65581705
   0.56518674  0.20935294  0.34409011
   0.18766656  0.95818094  0.61132674
   0.30272856  0.37381569  0.29970269
   0.43456044  0.79045545  0.65583654
   0.19597122  0.29831807  0.78865157
   0.06700952  0.36395015  0.16644467
   0.69714797  0.62624521  0.70033506
   0.31219192  0.54179582  0.38859819
   0.06776899  0.72280776  0.87612410
   0.93363927  0.63759580  0.83366727
   0.32014247  0.54933513  0.78880513
   0.30375600  0.20087271  0.21134528
   0.06803265  0.71066907  0.47747386
   0.55325642  0.20150958  0.21130254
   0.31058288  0.21148008  0.74459599
   0.07210043  0.37633417  0.70035234
   0.18330413  0.63761401  0.83351323
   0.07027692  0.04908657  0.78885813
   0.44154699  0.12498939  0.56690485
   0.93472516  0.29068996  0.65581661
   0.80376261  0.20109713  0.21126808
   0.92919361  0.95065547  0.21159716
   0.94153134  0.62502734  0.56683439
   0.80824119  0.38769399  0.83347031
   0.19718064  0.62597665  0.70013436
   0.80858976  0.88778929  0.83350934
   0.68475697  0.29063577  0.65590447
   0.31265779  0.20794842  0.61134289
   0.43501067  0.46272087  0.74465659
   0.43678102  0.79159775  0.38845005
   0.68496152  0.96251015  0.74454056
   0.80284880  0.70138432  0.21142744
   0.81308154  0.70841454  0.61154058
   0.43679972  0.78455246  0.12413292
   0.31009126  0.71171554  0.74454052
   0.32102540  0.04913219  0.78870774
   0.81160110  0.54153791  0.38843004
   0.68232374  0.28819371  0.52234363
   0.69579765  0.79894233  0.78875338
   0.18994795  0.78814517  0.25544327
   0.69106718  0.11117665  0.16668994
   0.69260017  0.96062294  0.47749348
   0.94034856  0.95952558  0.34415606
   0.80698828  0.03868389  0.52252743
   0.68350203  0.62506189  0.43310617
   0.44024186  0.45925512  0.34418524
   0.81088135  0.21147970  0.74457034
   0.43943777  0.96758803  0.87591438
   0.56656062  0.87473498  0.56681686
   0.80991148  0.02789814  0.12396539
   0.42755749  0.62372033  0.29962656
   0.81689939  0.72295251  0.87619679
   0.68765342  0.45801329  0.61137257
   0.55855174  0.38766222  0.83327912
   0.80271561  0.37367171  0.29963383
   0.18699741  0.29179636  0.38849151
   0.82053560  0.54921865  0.78879166
   0.18225511  0.78917175  0.52254569
   0.30274937  0.87417710  0.29978254
   0.17860613  0.95116430  0.21145834
   0.18480786  0.46201258  0.74473864
   0.43243980  0.28834355  0.52232881
   0.06518458  0.70912414  0.34403240
   0.18470240  0.79064163  0.65580317
   0.44575960  0.79874598  0.78869661
   0.68338858  0.12500112  0.43307887
   0.93212406  0.78838444  0.52236094
   0.69121609  0.61240910  0.16669008
   0.81528140  0.70941119  0.34408727
   0.93474903  0.46234109  0.74489849
   0.19036610  0.45943768  0.34416413
   0.57047813  0.54932396  0.78883834
   0.56614748  0.36369331  0.16664277
   0.56521918  0.70942785  0.34411632
   0.55266222  0.37382137  0.29967313
   0.18927521  0.46742247  0.87589067
   0.19131695  0.11172043  0.16657305
   0.44519356  0.29854558  0.78864917
   0.68995688  0.78812032  0.25543107
   0.93360552  0.13752178  0.83352431
   0.44274454  0.96072453  0.47746384
   0.56760125  0.72434880  0.87611128
   0.19272233  0.46081983  0.47747258
   0.93442361  0.28334722  0.12418687
   0.31211785  0.04200226  0.38867428
   0.05971497  0.04055817  0.65589025
   0.55843928  0.37493766  0.43312142
   0.68443926  0.46253342  0.74493578
   0.56050227  0.21241276  0.74459948
   0.94715072  0.12621864  0.70028334
   0.55963417  0.04080523  0.65577878
   0.55686106  0.53910889  0.52253321
   0.17770626  0.12390048  0.29973367
   0.44058502  0.11076291  0.16659910
   0.67765586  0.62375549  0.29961426
   0.92763772  0.12395212  0.29983478
   0.81660167  0.37505212  0.56688106
   0.05280233  0.87391197  0.29984381
   0.19164000  0.62492368  0.56687760
   0.94579255  0.79928129  0.78873365
   0.30831640  0.38748088  0.83348018
   0.93920197  0.46812928  0.87588493
   0.43360932  0.63796165  0.83348754
   0.06506482  0.20916474  0.34397604
   0.18954962  0.96734140  0.87603254
   0.93619670  0.78412759  0.12415092
   0.68679455  0.79151884  0.38847019
   0.93468213  0.79063615  0.65581501
   0.94071226  0.11065060  0.16665107
   0.43496579  0.29067980  0.65594964
   0.05374514  0.20035454  0.21155316
   0.67846997  0.95136476  0.21145567
   0.17761115  0.62383342  0.29957999
   0.82214367  0.87630385  0.70036547
   0.94705961  0.62640241  0.70038162
   0.19723751  0.12597528  0.70014906
   0.94294233  0.46069161  0.47743853
   0.81275900  0.20811635  0.61136666
   0.18336708  0.62505485  0.43313135
   0.42760877  0.12376393  0.29972234
   0.67775271  0.12385103  0.29975251
   0.56192889  0.54171207  0.38851704
   0.81511044  0.20922132  0.34401593
   0.43924834  0.46746146  0.87577286
   0.55868124  0.88755579  0.83330979
   0.31779014  0.21060202  0.47746658
   0.19269955  0.96059031  0.47751519
   0.05838155  0.88763072  0.83347982
   0.05698262  0.53886190  0.52242159
   0.94280926  0.96059632  0.47743041
   0.06289789  0.70813465  0.61150317
   0.55722967  0.03837257  0.52235444
   0.69588963  0.29853926  0.78868490
   0.81729106  0.36314270  0.16671278
   0.43342749  0.12489637  0.43309186
   0.06776709  0.21073978  0.47746154
   0.30960387  0.04060334  0.65581154
   0.43199955  0.78866088  0.52242472
   0.18357927  0.13767012  0.83353826
   0.18630385  0.28326498  0.12414792
   0.94034987  0.45941528  0.34418713
   0.56725000  0.86377735  0.16639625
   0.30382424  0.70117791  0.21134895
   0.94035782  0.61024712  0.16645016
   0.18767257  0.45800673  0.61135470
   0.07224136  0.87624308  0.70016974
   0.05971790  0.54060159  0.65579799
   0.31028512  0.52653086  0.12393805
   0.93680578  0.79165850  0.38850468
   0.94581856  0.29816565  0.78865091
   0.18459259  0.29050078  0.65585498
   0.93757268  0.95800752  0.61137750
   0.81097757  0.71136569  0.74460592
   0.68994237  0.28820746  0.25548591
   0.05987968  0.71195647  0.74488774
   0.67851246  0.45093995  0.21131945
   0.81796044  0.21085596  0.47755026
   0.56774588  0.71064232  0.47745140
   0.06653310  0.86287654  0.16637178
   0.93224092  0.28832006  0.52241823
   0.68461150  0.79051221  0.65583382
   0.05828850  0.87461788  0.43313821
   0.06783007  0.22281147  0.87607062
   0.80966513  0.04047448  0.65586068
   0.55992456  0.02708866  0.12407329
   0.30845834  0.37489025  0.43306711
   0.31651416  0.37492781  0.56685394
   0.31782259  0.71050983  0.47742503
   0.05719702  0.03836472  0.52244300
   0.32213851  0.87634488  0.70038833
   0.06496231  0.53758996  0.25536433
   0.68347448  0.13769242  0.83351666
   0.81483185  0.03746639  0.25533910
   0.18352010  0.12503958  0.43310357
   0.69731147  0.12640377  0.70033113
   0.18236436  0.28835181  0.52236049
   0.43993850  0.78812391  0.25543872
   0.81455186  0.53754950  0.25549398
   0.06279130  0.20805467  0.61132023
   0.18656615  0.79144216  0.38841819
   0.30720579  0.53840574  0.52242985
   0.82191756  0.37621780  0.70011716
   0.68699114  0.29175160  0.38848449
   0.19160359  0.12501482  0.56688036
   0.68975868  0.96835070  0.87609426
   0.69156452  0.12499126  0.56689691
   0.44029659  0.95933553  0.34417602
   0.18431689  0.96238754  0.74452701
   0.94021390  0.78812176  0.25544296
   0.55842085  0.87493318  0.43312133
   0.30833810  0.87494267  0.43311338
   0.80719183  0.53920634  0.52254225
   0.92871589  0.45103886  0.21135291
   0.31453204  0.53778772  0.25553426
   0.56227145  0.04204505  0.38867875
   0.93778949  0.45803774  0.61142433
   0.06210011  0.04180829  0.38854446
   0.06202150  0.54150683  0.38848848
   0.43695405  0.29167729  0.38850750
   0.69282509  0.46067621  0.47745667
   0.06657962  0.37495165  0.56687278
   0.55319532  0.70152856  0.21134993
   0.94003194  0.28825339  0.25546241
   0.82005437  0.04941245  0.78890139
   0.19022319  0.95931148  0.34419151
   0.55258415  0.87407694  0.29986448
   0.05832097  0.37501518  0.43309592
   0.31533679  0.70943780  0.34415634
   0.31522834  0.20932819  0.34412360
   0.94175446  0.12499494  0.56675792
   0.43789260  0.95824996  0.61144842
   0.56480279  0.03749286  0.25540518
   0.18675324  0.78463055  0.12427990
   0.06522954  0.03731734  0.25508832
   0.69166449  0.62497433  0.56687995
   0.44029962  0.61024932  0.16635414
   0.30711294  0.03840592  0.52234589
   0.68661306  0.28339306  0.12414649
   0.81773687  0.71079814  0.47745274
   0.43353582  0.13777217  0.83346793
   0.32232434  0.37616729  0.70020269
   0.68361074  0.63787143  0.83344526
   0.56064642  0.71147959  0.74460137
   0.93728342  0.29194211  0.38862018
   0.93958023  0.96807494  0.87610264
   0.56270286  0.20794993  0.61129972
   0.81661416  0.87495509  0.56686927
   0.80266009  0.87396564  0.29977029
   0.31486438  0.03777881  0.25516266
   0.43517700  0.28380255  0.12386608
   0.31309821  0.70838318  0.61150866
   0.43334926  0.62501200  0.43310484
   0.93233224  0.62533879  0.43330869
   0.31816107  0.86295810  0.16609002
   0.07158140  0.54903782  0.78858185
   0.81793800  0.86329267  0.16606405
   0.31728996  0.36413482  0.16569060
   0.93378813  0.96218655  0.74451263
   0.05836593  0.52598711  0.12451215
Direct configuration=     2
   0.05379952  0.70123651  0.21133324
   0.31786476  0.72328575  0.87606468
   0.68772687  0.95812240  0.61136818
   0.43788186  0.45801680  0.61139901
   0.43931950  0.28807519  0.25549898
   0.05902409  0.38817693  0.83345655
   0.30901782  0.88758513  0.83356902
   0.44640432  0.62614436  0.70021651
   0.06082700  0.21253032  0.74475995
   0.17865378  0.45102407  0.21145683
   0.56726186  0.21043139  0.47756653
   0.06619860  0.87498730  0.56685521
   0.56782450  0.22325589  0.87599514
   0.80765188  0.52689557  0.12414913
   0.43013379  0.95103959  0.21143271
   0.56619378  0.37494935  0.56683914
   0.81214331  0.04195490  0.38860281
   0.68237690  0.78919036  0.52244225
   0.44233950  0.46036741  0.47755176
   0.43496132  0.96229186  0.74452995
   0.44121176  0.62493647  0.56685326
   0.57106655  0.87607119  0.70042420
   0.31141794  0.02818027  0.12405228
   0.68978084  0.95924481  0.34420493
   0.68812672  0.78299038  0.12425317
   0.05321906  0.37378854  0.29972147
   0.68928232  0.46790479  0.87581929
   0.42929450  0.45124207  0.21147917
   0.80884948  0.37506874  0.43312499
   0.56305328  0.70828610  0.61150562
   0.56011988  0.54066177  0.65578009
   0.93378901  0.12504386  0.43312511
   0.56438712  0.53751390  0.25541437
   0.68973372  0.45916594  0.34418247
   0.19018614  0.61066512  0.16626311
   0.19509029  0.79899578  0.78869398
   0.44656699  0.12605522  0.70021326
   0.92835727  0.62359083  0.29968148
   0.31716611  0.22260420  0.87600326
   0.31621980  0.87472425  0.56681933
   0.81700811  0.22302704  0.87604230
   0.81004499  0.54101613  0.65573869
   0.55914930  0.52644927  0.12397903
   0.56961160  0.04934239  0.78882396
   0.18941288  0.28811795  0.25547302
   0.80881026  0.87503974  0.43308163
   0.57161712  0.37620424  0.70023864
   0.06008770  0.02875038  0.12415618
   0.31008357  0.54073304  0.65578649
   0.56471625  0.20924689  0.34412921
   0.18771748  0.95813237  0.61133711
   0.30338054  0.37380666  0.29971903
   0.43502668  0.79059713  0.65581145
   0.19546244  0.29827290  0.78865549
   0.06658298  0.36400736  0.16639474
   0.69646232  0.62624787  0.70032177
   0.31211810  0.54181931  0.38858669
   0.06741758  0.72235125  0.87607151
   0.93403250  0.63746934  0.83373274
   0.31983215  0.54933677  0.78880390
   0.30424041  0.20081865  0.21133694
   0.06745336  0.71043625  0.47753859
   0.55383530  0.20145026  0.21130729
   0.31105575  0.21173438  0.74455999
   0.07140986  0.37637774  0.70034015
   0.18372577  0.63749482  0.83356509
   0.06987393  0.04905491  0.78885818
   0.44119643  0.12493117  0.56688219
   0.93518896  0.29082966  0.65577690
   0.80421598  0.20103290  0.21127154
   0.92966353  0.95083501  0.21157027
   0.94117816  0.62497709  0.56682367
   0.80862988  0.38751726  0.83354416
   0.19648130  0.62604867  0.70015099
   0.80895778  0.88761530  0.83360498
   0.68524378  0.29074503  0.65586858
   0.31272856  0.20793316  0.61136035
   0.43550978  0.46266161  0.74461062
   0.43678540  0.79166625  0.38847298
   0.68541268  0.96249380  0.74453513
   0.80339405  0.70131174  0.21142185
   0.81306502  0.70830922  0.61151731
   0.43675005  0.78390519  0.12418269
   0.31060836  0.71185519  0.74451364
   0.32054983  0.04912979  0.78872560
   0.81168327  0.54164432  0.38844780
   0.68286472  0.28857182  0.52230941
   0.69534105  0.79898033  0.78875034
   0.18941021  0.78804599  0.25546026
   0.69067266  0.11142377  0.16663483
   0.69204712  0.96041013  0.47754898
   0.93987638  0.95945442  0.34417712
   0.80756480  0.03891527  0.52246559
   0.68378235  0.62506316  0.43310881
   0.43978442  0.45918729  0.34419877
   0.81129832  0.21171061  0.74453780
   0.43940836  0.96814062  0.87584686
   0.56619587  0.87470329  0.56680350
   0.81011167  0.02832065  0.12400236
   0.42827653  0.62371257  0.29965946
   0.81666206  0.72256677  0.87612502
   0.68770696  0.45797937  0.61137839
   0.55888870  0.38752764  0.83336961
   0.80337191  0.37367269  0.29965316
   0.18699081  0.29183255  0.38849253
   0.82003377  0.54919745  0.78881423
   0.18282347  0.78932181  0.52249573
   0.30341088  0.87409927  0.29977363
   0.17913273  0.95120092  0.21144334
   0.18543690  0.46210029  0.74467983
   0.43294506  0.28867753  0.52229478
   0.06472636  0.70906302  0.34407061
   0.18518708  0.79069005  0.65576776
   0.44527651  0.79880624  0.78868333
   0.68368502  0.12502074  0.43309084
   0.93268244  0.78867608  0.52233019
   0.69078480  0.61266681  0.16663488
   0.81483300  0.70927870  0.34412408
   0.93532187  0.46235546  0.74481314
   0.18991403  0.45932614  0.34418392
   0.57008285  0.54927833  0.78884327
   0.56588097  0.36378899  0.16653548
   0.56476206  0.70930597  0.34414755
   0.55334593  0.37379318  0.29969697
   0.18918688  0.46791669  0.87583663
   0.19089861  0.11189462  0.16652469
   0.44479102  0.29854975  0.78864921
   0.68942707  0.78802284  0.25545130
   0.93407278  0.13736428  0.83359136
   0.44217494  0.96046931  0.47752025
   0.56730144  0.72373627  0.87603841
   0.19214583  0.46057115  0.47752694
   0.93461524  0.28280055  0.12426864
   0.31207044  0.04201098  0.38865383
   0.06015480  0.04063341  0.65585441
   0.55881059  0.37491674  0.43312098
   0.68494271  0.46247416  0.74484949
   0.56099369  0.21251333  0.74456532
   0.94650662  0.12631997  0.70028124
   0.56010306  0.04083151  0.65575529
   0.55748205  0.53928292  0.52246875
   0.17836842  0.12379456  0.29972354
   0.44022320  0.11112407  0.16654718
   0.67831780  0.62372831  0.29963731
   0.92833239  0.12384385  0.29981600
   0.81622201  0.37498783  0.56686476
   0.05346220  0.87383908  0.29983333
   0.19125628  0.62486341  0.56687109
   0.94520747  0.79921494  0.78874136
   0.30876123  0.38734303  0.83355395
   0.93920649  0.46856288  0.87582041
   0.43404683  0.63781036  0.83354743
   0.06464691  0.20911934  0.34403585
   0.18942772  0.96786810  0.87594901
   0.93621991  0.78362149  0.12418199
   0.68681963  0.79160183  0.38848207
   0.93514027  0.79073325  0.65579374
   0.94040566  0.11095146  0.16660191
   0.43535610  0.29079411  0.65590970
   0.05427981  0.20036608  0.21153409
   0.67898536  0.95146977  0.21146726
   0.17830506  0.62379544  0.29961091
   0.82145608  0.87632264  0.70034484
   0.94640834  0.62642225  0.70037215
   0.19651801  0.12608364  0.70016461
   0.94237759  0.46044569  0.47750362
   0.81280724  0.20806155  0.61137675
   0.18377941  0.62506503  0.43313126
   0.42829242  0.12370623  0.29972481
   0.67839360  0.12378889  0.29974557
   0.56190322  0.54174374  0.38852425
   0.81466588  0.20915006  0.34407634
   0.43921508  0.46798735  0.87571440
   0.55905212  0.88742430  0.83341802
   0.31723491  0.21038951  0.47752470
   0.19216223  0.96036832  0.47756285
   0.05878936  0.88750282  0.83356544
   0.05758199  0.53908446  0.52238001
   0.94223466  0.96034704  0.47748461
   0.06292708  0.70807446  0.61148642
   0.55775119  0.03872264  0.52231981
   0.69538749  0.29851768  0.78868309
   0.81683516  0.36315689  0.16661081
   0.43377997  0.12492272  0.43309921
   0.06721789  0.21046109  0.47751995
   0.31008273  0.04069766  0.65578066
   0.43256921  0.78889615  0.52237650
   0.18403923  0.13753295  0.83359875
   0.18645048  0.28261531  0.12418183
   0.93988032  0.45933462  0.34420209
   0.56693360  0.86390687  0.16633995
   0.30428887  0.70108745  0.21135895
   0.94007477  0.61068651  0.16642788
   0.18773475  0.45797726  0.61136445
   0.07154943  0.87630047  0.70016905
   0.06017169  0.54067770  0.65578380
   0.31043347  0.52731891  0.12394342
   0.93679062  0.79170612  0.38850885
   0.94529139  0.29817139  0.78865935
   0.18503331  0.29063403  0.65582350
   0.93764836  0.95797573  0.61139019
   0.81138570  0.71159690  0.74458859
   0.68940153  0.28804637  0.25549556
   0.06054036  0.71207634  0.74480630
   0.67899235  0.45102364  0.21133521
   0.81737125  0.21056009  0.47759899
   0.56718909  0.71041424  0.47752134
   0.06616427  0.86306884  0.16630860
   0.93278978  0.28862489  0.52238450
   0.68502442  0.79061232  0.65581009
   0.05867108  0.87469214  0.43313299
   0.06751571  0.22231107  0.87601486
   0.81012711  0.04057953  0.65582521
   0.56012413  0.02749222  0.12413551
   0.30880929  0.37487371  0.43307564
   0.31616361  0.37487604  0.56683322
   0.31726229  0.71030080  0.47748786
   0.05774846  0.03867353  0.52238977
   0.32143918  0.87633984  0.70036943
   0.06437717  0.53759676  0.25537954
   0.68392147  0.13759442  0.83357963
   0.81425472  0.03742721  0.25538636
   0.18393411  0.12504981  0.43311217
   0.69662888  0.12641459  0.70031477
   0.18288342  0.28867641  0.52232638
   0.43932301  0.78796217  0.25546337
   0.81405447  0.53749917  0.25549882
   0.06283404  0.20803821  0.61133044
   0.18658208  0.79151707  0.38844091
   0.30774448  0.53870073  0.52238441
   0.82126320  0.37626806  0.70013790
   0.68694737  0.29179263  0.38849216
   0.19124225  0.12496591  0.56685859
   0.68964423  0.96876058  0.87599496
   0.69118483  0.12494539  0.56687743
   0.43983092  0.95926319  0.34420460
   0.18496129  0.96239973  0.74451464
   0.93958988  0.78797176  0.25548095
   0.55878789  0.87502919  0.43312424
   0.30869201  0.87501893  0.43311880
   0.80773341  0.53934003  0.52247987
   0.92924407  0.45110796  0.21136947
   0.31398869  0.53766913  0.25553934
   0.56218483  0.04204589  0.38865707
   0.93782900  0.45797336  0.61142645
   0.06205466  0.04186653  0.38854959
   0.06198737  0.54158988  0.38849792
   0.43694387  0.29171473  0.38851172
   0.69227089  0.46044925  0.47752575
   0.06623353  0.37490595  0.56685324
   0.55376233  0.70141968  0.21133545
   0.93943143  0.28810112  0.25549327
   0.81962496  0.04932949  0.78889074
   0.18976952  0.95923961  0.34421461
   0.55328251  0.87399113  0.29985697
   0.05872449  0.37504191  0.43309710
   0.31486180  0.70930502  0.34417792
   0.31475508  0.20920282  0.34416517
   0.94134614  0.12496310  0.56675135
   0.43790254  0.95820064  0.61144941
   0.56427364  0.03751475  0.25543383
   0.18692303  0.78402314  0.12431303
   0.06459725  0.03741088  0.25517325
   0.69128183  0.62490698  0.56687372
   0.43999322  0.61063604  0.16632630
   0.30767814  0.03874899  0.52231222
   0.68668290  0.28277142  0.12423964
   0.81716656  0.71054378  0.47751886
   0.43399678  0.13762002  0.83351346
   0.32163408  0.37615950  0.70020687
   0.68407936  0.63775356  0.83350868
   0.56106080  0.71162615  0.74457534
   0.93719750  0.29196338  0.38860882
   0.93951035  0.96845940  0.87600858
   0.56275816  0.20792493  0.61131579
   0.81624780  0.87490543  0.56685591
   0.80334912  0.87390250  0.29976161
   0.31430415  0.03770161  0.25522987
   0.43538520  0.28319455  0.12393696
   0.31307447  0.70829314  0.61149378
   0.43366786  0.62503749  0.43311212
   0.93285357  0.62530065  0.43329172
   0.31773723  0.86297929  0.16602885
   0.07105513  0.54902002  0.78859349
   0.81745776  0.86331880  0.16601696
   0.31683701  0.36404543  0.16567717
   0.93439217  0.96226647  0.74452139
   0.05860475  0.52653561  0.12453246
Direct configuration=     3
   0.05565211  0.70093438  0.21130599
   0.31691692  0.72162203  0.87586955
   0.68793101  0.95800321  0.61138420
   0.43800827  0.45789309  0.61139807
   0.43762634  0.28765268  0.25555743
   0.06002435  0.38736601  0.83371641
   0.31012479  0.88715971  0.83379443
   0.44441143  0.62625961  0.70024169
   0.06254384  0.21269292  0.74458024
   0.18042822  0.45143257  0.21141730
   0.56561048  0.20979811  0.47772147
   0.06508831  0.87476253  0.56681737
   0.56662447  0.22144432  0.87578703
   0.80873223  0.52921361  0.12434434
   0.43139229  0.95158825  0.21137596
   0.56513576  0.37475730  0.56678497
   0.81196205  0.04212579  0.38856922
   0.68414353  0.78981580  0.52229674
   0.44066461  0.45972826  0.47770367
   0.43671988  0.96227597  0.74448978
   0.44006172  0.62468325  0.56682262
   0.56928325  0.87624382  0.70030578
   0.31121012  0.02968063  0.12416120
   0.68842816  0.95895032  0.34429466
   0.68819129  0.78136372  0.12441863
   0.05532193  0.37365019  0.29973935
   0.68902335  0.46952660  0.87560930
   0.43095350  0.45156191  0.21143287
   0.80992198  0.37510920  0.43313124
   0.56301527  0.70806151  0.61148725
   0.56149405  0.54094962  0.65569369
   0.93487924  0.12512263  0.43314416
   0.56252936  0.53747615  0.25541137
   0.68828222  0.45881764  0.34417202
   0.18891801  0.61171532  0.16623579
   0.19372679  0.79903090  0.78863334
   0.44460042  0.12620657  0.70025582
   0.93028107  0.62354997  0.29975192
   0.31623004  0.22109012  0.87580449
   0.31503919  0.87466444  0.56677763
   0.81619770  0.22138722  0.87582612
   0.81142334  0.54116907  0.65569046
   0.55978728  0.52819880  0.12422298
   0.56855029  0.04931640  0.78881421
   0.18783832  0.28780629  0.25553424
   0.80986352  0.87534900  0.43308794
   0.56951708  0.37640589  0.70030398
   0.06054119  0.02941807  0.12433457
   0.31141644  0.54094033  0.65569482
   0.56330477  0.20892876  0.34424651
   0.18787023  0.95798667  0.61136824
   0.30533647  0.37377956  0.29976803
   0.43642540  0.79102217  0.65573619
   0.19393608  0.29813739  0.78866726
   0.06530335  0.36417898  0.16624495
   0.69440538  0.62625586  0.70028190
   0.31189663  0.54188981  0.38855216
   0.06636333  0.72098170  0.87591374
   0.93521218  0.63708994  0.83392915
   0.31890119  0.54934168  0.78880020
   0.30569364  0.20065646  0.21131191
   0.06571549  0.70973776  0.47773278
   0.55557193  0.20127230  0.21132155
   0.31247435  0.21249730  0.74445199
   0.06933815  0.37650846  0.70030355
   0.18499071  0.63713723  0.83372069
   0.06866495  0.04895993  0.78885834
   0.44014475  0.12475652  0.56681419
   0.93658036  0.29124875  0.65565775
   0.80557607  0.20084020  0.21128189
   0.93107328  0.95137363  0.21148959
   0.94011863  0.62482635  0.56679150
   0.80979598  0.38698705  0.83376572
   0.19438328  0.62626471  0.70020090
   0.81006183  0.88709334  0.83389193
   0.68670422  0.29107278  0.65576091
   0.31294088  0.20788739  0.61141273
   0.43700709  0.46248381  0.74447269
   0.43679851  0.79187175  0.38854176
   0.68676615  0.96244476  0.74451885
   0.80502982  0.70109400  0.21140509
   0.81301547  0.70799329  0.61144748
   0.43660104  0.78196340  0.12433200
   0.31215967  0.71227413  0.74443299
   0.31912312  0.04912259  0.78877917
   0.81192979  0.54196356  0.38850108
   0.68448765  0.28970616  0.52220677
   0.69397127  0.79909430  0.78874123
   0.18779699  0.78774845  0.25551123
   0.68948910  0.11216514  0.16646950
   0.69038797  0.95977170  0.47771546
   0.93845982  0.95924094  0.34424031
   0.80929433  0.03960939  0.52228006
   0.68462332  0.62506698  0.43311670
   0.43841208  0.45898381  0.34423937
   0.81254921  0.21240334  0.74444017
   0.43932013  0.96979840  0.87564432
   0.56510161  0.87460823  0.56676341
   0.81071226  0.02958815  0.12411327
   0.43043365  0.62368930  0.29975817
   0.81595010  0.72140956  0.87590970
   0.68786760  0.45787762  0.61139587
   0.55989961  0.38712389  0.83364110
   0.80534084  0.37367565  0.29971115
   0.18697101  0.29194112  0.38849559
   0.81852829  0.54913383  0.78888193
   0.18452856  0.78977200  0.52234586
   0.30539542  0.87386580  0.29974688
   0.18071254  0.95131079  0.21139836
   0.18732402  0.46236343  0.74450342
   0.43446085  0.28967946  0.52219266
   0.06335173  0.70887968  0.34418527
   0.18664114  0.79083530  0.65566155
   0.44382725  0.79898704  0.78864350
   0.68457435  0.12507961  0.43312677
   0.93435758  0.78955102  0.52223796
   0.68949093  0.61343993  0.16646927
   0.81348781  0.70888124  0.34423453
   0.93704040  0.46239858  0.74455710
   0.18855783  0.45899151  0.34424329
   0.56889701  0.54914143  0.78885806
   0.56508145  0.36407601  0.16621361
   0.56339071  0.70894033  0.34424126
   0.55539705  0.37370861  0.29976850
   0.18892189  0.46939932  0.87567449
   0.18964360  0.11241719  0.16637963
   0.44358339  0.29856227  0.78864932
   0.68783763  0.78773041  0.25551198
   0.93547456  0.13689177  0.83379251
   0.44046614  0.95970367  0.47768946
   0.56640201  0.72189867  0.87581979
   0.19041631  0.45982512  0.47769004
   0.93519013  0.28116052  0.12451396
   0.31192820  0.04203714  0.38859245
   0.06147429  0.04085911  0.65574688
   0.55992450  0.37485399  0.43311963
   0.68645308  0.46229636  0.74459063
   0.56246796  0.21281504  0.74446283
   0.94457433  0.12662398  0.70027492
   0.56150973  0.04091033  0.65568481
   0.55934501  0.53980500  0.52227538
   0.18035489  0.12347680  0.29969316
   0.43913774  0.11220756  0.16639143
   0.68030362  0.62364678  0.29970646
   0.93041640  0.12351905  0.29975965
   0.81508305  0.37479495  0.56681588
   0.05544181  0.87362044  0.29980188
   0.19010512  0.62468260  0.56685154
   0.94345222  0.79901590  0.78876446
   0.31009569  0.38692949  0.83377525
   0.93922005  0.46986369  0.87562684
   0.43535938  0.63735648  0.83372709
   0.06339318  0.20898312  0.34421529
   0.18906201  0.96944819  0.87569842
   0.93628953  0.78210320  0.12427521
   0.68689489  0.79185079  0.38851770
   0.93651471  0.79102454  0.65572992
   0.93948587  0.11185406  0.16645445
   0.43652703  0.29113704  0.65578986
   0.05588383  0.20040073  0.21147689
   0.68053152  0.95178479  0.21150202
   0.18038678  0.62368149  0.29970366
   0.81939329  0.87637901  0.70028294
   0.94445456  0.62648179  0.70034372
   0.19435951  0.12640874  0.70021127
   0.94068335  0.45970794  0.47769887
   0.81295195  0.20789715  0.61140701
   0.18501639  0.62509556  0.43313099
   0.43034335  0.12353314  0.29973222
   0.68031626  0.12360249  0.29972477
   0.56182624  0.54183875  0.38854590
   0.81333220  0.20893629  0.34425758
   0.43911531  0.46956502  0.87553904
   0.56016476  0.88702985  0.83374271
   0.31556921  0.20975197  0.47769906
   0.19055026  0.95970237  0.47770584
   0.06001278  0.88711915  0.83382232
   0.05938009  0.53975214  0.52225526
   0.94051085  0.95959920  0.47764722
   0.06301464  0.70789388  0.61143618
   0.55931575  0.03977286  0.52221592
   0.69388105  0.29845295  0.78867766
   0.81546746  0.36319946  0.16630488
   0.43483740  0.12500177  0.43312125
   0.06557028  0.20962505  0.47769517
   0.31151932  0.04098060  0.65568800
   0.43427816  0.78960193  0.52223183
   0.18541912  0.13712144  0.83378022
   0.18689036  0.28066629  0.12428358
   0.93847166  0.45909266  0.34424696
   0.56598442  0.86429541  0.16617105
   0.30568278  0.70081607  0.21138896
   0.93922561  0.61200471  0.16636102
   0.18792132  0.45788884  0.61139370
   0.06947366  0.87647263  0.70016698
   0.06153305  0.54090602  0.65574122
   0.31087852  0.52968305  0.12395950
   0.93674513  0.79184897  0.38852137
   0.94370987  0.29818859  0.78868467
   0.18635549  0.29103378  0.65572904
   0.93787541  0.95788038  0.61142826
   0.81261010  0.71229054  0.74453661
   0.68777903  0.28756310  0.25552451
   0.06252241  0.71243592  0.74456197
   0.68043203  0.45127471  0.21138251
   0.81560369  0.20967246  0.47774517