unknown system                          
            1
     9.726678    0.000000    0.000000
     0.000000    8.423550    0.000000
     0.000000    0.000000   45.000000
   Fe   Mn
 273  15
Direct configuration=     1
   0.31255615  0.54622056  0.74437699
   0.06309307  0.85833310  0.16630198
   0.68785391  0.27530666  0.12359781
   0.18773340  0.46864908  0.83337659
   0.56302288  0.37708067  0.65527734
   0.18929495  0.29942548  0.87650286
   0.68839901  0.10837725  0.16643190
   0.43871915  0.60866261  0.16653689
   0.06153402  0.69721229  0.21130519
   0.68764435  0.78157610  0.25561523
   0.68719547  0.45604954  0.47824341
   0.81232290  0.20625467  0.47833664
   0.56224517  0.87162030  0.52134925
   0.31295466  0.03154551  0.25576011
   0.93725723  0.27536489  0.12357574
   0.31249286  0.52694816  0.12343847
   0.06240961  0.02689370  0.12368130
   0.56283340  0.70759179  0.56546749
   0.06267866  0.70569457  0.47828228
   0.93802016  0.12087842  0.43417875
   0.93771881  0.95126424  0.34513196
   0.43744456  0.79642091  0.74416429
   0.06272018  0.71873063  0.83356004
   0.81215704  0.05342106  0.87672167
   0.18725980  0.45601615  0.47822960
   0.31297284  0.70113271  0.34510610
   0.43657724  0.96944501  0.83334314
   0.06218212  0.36706949  0.30015005
   0.43740325  0.44727298  0.21129431
   0.68692323  0.94783088  0.21141232
   0.31317906  0.04159493  0.61080461
   0.43787165  0.12133577  0.52129332
   0.31239878  0.88063971  0.78897951
   0.43796614  0.62222526  0.52138224
   0.43783563  0.78156678  0.25552902
   0.06309648  0.21026367  0.69998114
   0.18814887  0.10816084  0.16650158
   0.56253968  0.37161888  0.52133034
   0.56229202  0.52676037  0.12359972
   0.31329420  0.71046546  0.69992019
   0.56159712  0.04622865  0.74402119
   0.68728100  0.62115452  0.43404859
   0.43805670  0.62149120  0.43412664
   0.43575707  0.80043235  0.87659492
   0.93666450  0.79124581  0.61071474
   0.56192837  0.54601948  0.74405428
   0.31252997  0.20634873  0.47828552
   0.31362430  0.21064896  0.69996152
   0.68635696  0.95692302  0.56539781
   0.18842464  0.46155451  0.70003194
   0.81329696  0.88063716  0.78902023
   0.93722061  0.62717160  0.65513717
   0.56159196  0.05387678  0.87666782
   0.93713347  0.62133720  0.52132125
   0.56325589  0.37162717  0.43417025
   0.81318919  0.85739580  0.16629097
   0.93722622  0.11729169  0.30024251
   0.68857857  0.60890114  0.16629488
   0.68699041  0.28638080  0.38891153
   0.93754265  0.47007054  0.83385651
   0.18755948  0.77633395  0.12359407
   0.68739113  0.13060858  0.78874682
   0.93721135  0.46088691  0.69996730
   0.93686219  0.94780924  0.21140607
   0.18819685  0.28147385  0.25567415
   0.18825694  0.95127356  0.34509848
   0.43772815  0.78627028  0.38892076
   0.31233203  0.69721476  0.21146263
   0.93695397  0.28675408  0.38897041
   0.06252734  0.70704850  0.56540096
   0.18910204  0.45065786  0.34516540
   0.31294584  0.04626667  0.74422632
   0.06272169  0.52672819  0.12356971
   0.43854066  0.10814415  0.16653612
   0.31267086  0.70675290  0.56551471
   0.81246311  0.54058651  0.61062081
   0.68669477  0.11719284  0.30037990
   0.31311408  0.53190472  0.25569857
   0.43781954  0.46114227  0.69991136
   0.18740103  0.12200047  0.52117430
   0.81166590  0.87669444  0.65516202
   0.93714787  0.62115878  0.43425056
   0.81209193  0.86713747  0.30016191
   0.56231233  0.71864724  0.83367125
   0.18796302  0.95683578  0.56516552
   0.93726294  0.45622123  0.47844268
   0.93814034  0.79983099  0.87685247
   0.56294199  0.53163237  0.25566477
   0.93698327  0.95663597  0.47819212
   0.06191858  0.87126796  0.52120270
   0.43740630  0.12705902  0.65517021
   0.31147562  0.37981094  0.78886127
   0.68825045  0.97027365  0.83379323
   0.31307949  0.55192045  0.87661481
   0.43762483  0.28632035  0.38893943
   0.68701256  0.12096926  0.43398238
   0.43627652  0.61703940  0.30023456
   0.68696208  0.95108251  0.34527084
   0.81198868  0.37187004  0.52132358
   0.18769290  0.61702665  0.30014388
   0.31248735  0.53636310  0.38876862
   0.06294966  0.21979030  0.83355844
   0.56115773  0.55268882  0.87665921
   0.68732168  0.29564123  0.74413503
   0.18735795  0.12678488  0.65518008
   0.56242814  0.87187780  0.43408303
   0.18766167  0.79632184  0.74429696
   0.56212840  0.03686877  0.38897872
   0.31230165  0.36656707  0.30023373
   0.81177819  0.36640425  0.30013376
   0.68695852  0.45698997  0.56545602
   0.18832661  0.29610380  0.74454603
   0.06241338  0.54575237  0.74455540
   0.06201240  0.87175901  0.43430780
   0.18808650  0.62714811  0.65516040
   0.31321512  0.87592702  0.65523997
   0.06228902  0.19737132  0.21129944
   0.43599130  0.29944025  0.87649407
   0.81165621  0.53633924  0.38901364
   0.06308793  0.03158748  0.25567193
   0.68680168  0.12127442  0.52140779
   0.93708579  0.29152900  0.61041096
   0.31339040  0.85874526  0.16640929
   0.68685943  0.95692597  0.47836283
   0.81253785  0.02756179  0.12368069
   0.56090335  0.86726355  0.30033644
   0.81187476  0.20148932  0.34516122
   0.31359692  0.87147992  0.52136614
   0.18737515  0.96952896  0.83334509
   0.81224162  0.04601962  0.74424895
   0.06352044  0.20113852  0.34523015
   0.56227668  0.88089811  0.78880494
   0.06296684  0.86769050  0.30010921
   0.43735884  0.94745411  0.21133553
   0.93718680  0.95740811  0.56539827
   0.31260841  0.02634304  0.12363657
   0.18918749  0.80054750  0.87658745
   0.81191164  0.20694787  0.56541124
   0.56224786  0.20641146  0.47837449
   0.68699468  0.62769567  0.65523680
   0.56265217  0.03172087  0.25557563
   0.43734145  0.45059041  0.34533605
   0.93781620  0.10838383  0.16638712
   0.56205515  0.87630285  0.65524572
   0.93810989  0.28171645  0.25567199
   0.81315152  0.38061477  0.78883465
   0.43828670  0.95678455  0.56551420
   0.81249667  0.70657712  0.47845854
   0.31272375  0.37721643  0.65517515
   0.81265909  0.52704475  0.12357006
   0.18751701  0.62147746  0.52128207
   0.06263375  0.20680558  0.47821188
   0.93756617  0.61648660  0.30015697
   0.06262619  0.37185881  0.52128116
   0.68821002  0.46994373  0.83380360
   0.18656892  0.96024872  0.70001121
   0.06321487  0.04585435  0.74454312
   0.06329115  0.88054878  0.78884539
   0.06314534  0.04279950  0.61073917
   0.68764312  0.12685881  0.65516319
   0.68661906  0.29815353  0.87667747
   0.81231743  0.54586188  0.74439436
   0.18688988  0.94738505  0.21132853
   0.31279541  0.37221924  0.52135478
   0.06271914  0.87646877  0.65544029
   0.18756417  0.62142130  0.43444850
   0.06370906  0.54025901  0.61079046
   0.68670209  0.61667034  0.30009579
   0.18709390  0.62987562  0.78892409
   0.43645436  0.63051086  0.78875298
   0.18709275  0.27530184  0.12350390
   0.81120429  0.03663665  0.38908424
   0.31318099  0.87115725  0.43453537
   0.93748557  0.12170742  0.52139421
   0.93791713  0.12609372  0.65521821
   0.81319312  0.35833134  0.16638681
   0.81222411  0.04129796  0.61067939
   0.43745865  0.77637247  0.12363211
   0.56228073  0.21873884  0.83360551
   0.81155923  0.37726024  0.65491061
   0.93767054  0.97047877  0.83382469
   0.18678088  0.28719120  0.38898791
   0.68667235  0.45105174  0.34545686
   0.56183857  0.36682792  0.30021057
   0.68786541  0.77585365  0.12361484
   0.31269896  0.05266926  0.87655047
   0.31199876  0.54080420  0.61049395
   0.81272294  0.53162295  0.25553586
   0.68763162  0.63056819  0.78875613
   0.68662722  0.78626566  0.38905893
   0.81274472  0.03149860  0.25549553
   0.81214005  0.87212451  0.43406670
   0.06269664  0.53150646  0.25570557
   0.56224890  0.69695059  0.21135572
   0.43719431  0.45729434  0.56547793
   0.56218873  0.37978474  0.78874877
   0.93786198  0.60878076  0.16626085
   0.06310136  0.70053106  0.34521831
   0.93662986  0.78548745  0.38900348
   0.56226560  0.20081721  0.34532026
   0.56243792  0.21064966  0.69993430
   0.31259778  0.37177848  0.43424000
   0.56234763  0.53612812  0.38892825
   0.56208133  0.70675479  0.47849545
   0.56233376  0.70114877  0.34539916
   0.43712549  0.96080061  0.69992911
   0.43779589  0.95128202  0.34516451
   0.81194174  0.37170668  0.43415427
   0.93777984  0.29547156  0.74445152
   0.81262821  0.20970395  0.69980541
   0.93693811  0.44749405  0.21127937
   0.68776810  0.79593225  0.74408744
   0.18718510  0.12155535  0.43441591
   0.18689459  0.44727223  0.21120462
   0.43826378  0.95694187  0.47833707
   0.93817052  0.29877712  0.87682691
   0.56211827  0.04165465  0.61059944
   0.68736091  0.29114047  0.61083652
   0.81214001  0.70693424  0.56531344
   0.43657261  0.46882202  0.83342188
   0.43784589  0.29133766  0.61074060
   0.68711979  0.62177262  0.52146762
   0.31338014  0.35804471  0.16667966
   0.56343155  0.35825158  0.16647593
   0.56159238  0.19741844  0.21132555
   0.81198991  0.19763799  0.21140279
   0.06197052  0.03665357  0.38902183
   0.18801395  0.45693692  0.56556146
   0.43738202  0.79112003  0.61078546
   0.56255454  0.54115998  0.61083741
   0.43781740  0.27522631  0.12355363
   0.18780576  0.60879857  0.16649744
   0.43766608  0.29584759  0.74427390
   0.68637376  0.79126901  0.61078585
   0.93915064  0.63015252  0.78881416
   0.18744176  0.78591783  0.38898273
   0.56294569  0.20615769  0.56545887
   0.43821066  0.62763883  0.65530131
   0.06232681  0.37162851  0.43437112
   0.81256939  0.70095725  0.34536578
   0.93792251  0.78159116  0.25563243
   0.31220955  0.19740632  0.21134516
   0.43766194  0.12120088  0.43416616
   0.31202158  0.21939645  0.83331025
   0.81176938  0.87181648  0.52135982
   0.18775443  0.11672918  0.30008125
   0.68690086  0.80003411  0.87685103
   0.68668702  0.96073437  0.69989678
   0.31304051  0.03678783  0.38890026
   0.68609173  0.46152157  0.69973078
   0.31256264  0.70591255  0.47843581
   0.18760321  0.13052505  0.78890301
   0.06185208  0.20701197  0.56560691
   0.93724652  0.77576786  0.12360753
   0.68747322  0.28185763  0.25571722
   0.93771843  0.45112592  0.34526174
   0.43592526  0.13047220  0.78875978
   0.43800088  0.45639503  0.47840507
   0.93871106  0.13034999  0.78882097
   0.93786678  0.79589241  0.74420411
   0.81329075  0.71115718  0.69995447
   0.56321177  0.85833029  0.16630628
   0.06278070  0.35838794  0.16644340
   0.31191342  0.71926655  0.83344904
   0.43645682  0.11670523  0.30027430
   0.56263077  0.02681372  0.12374676
   0.06368441  0.55266496  0.87661442
   0.06389167  0.05239249  0.87661065
   0.81216877  0.55276844  0.87684469
   0.18853810  0.79133330  0.61076119
   0.68682841  0.44745235  0.21135121
   0.43764759  0.28174538  0.25568779
   0.18807541  0.78162309  0.25554304
   0.81177373  0.69719610  0.21159958
   0.06358104  0.71132788  0.69985392
   0.81282797  0.21997156  0.83431840
   0.93677875  0.96144452  0.69963393
   0.31215376  0.86817792  0.30036399
   0.06146779  0.53658568  0.38868161
   0.93783819  0.45605069  0.56562754
   0.06349132  0.37932393  0.78862351
   0.81298979  0.71975750  0.83440193
   0.18754351  0.95673657  0.47839477
   0.31326878  0.20768337  0.56565100
   0.06103406  0.37781019  0.65522631
   0.56288044  0.71013910  0.69962623
   0.18692925  0.29170091  0.61065527
   0.31376273  0.20062040  0.34514317
Direct configuration=     2
   0.31200216  0.54959715  0.74165382
   0.06220833  0.85830875  0.17016252
   0.68655473  0.27771885  0.11835142
   0.18549359  0.47156943  0.83039680
   0.56061575  0.37328381  0.65414387
   0.19529402  0.30782719  0.87870078
   0.68603418  0.10784547  0.17102708
   0.43574224  0.60684914  0.17102059
   0.06028380  0.69623862  0.21222937
   0.68687810  0.77720826  0.25477371
   0.68887059  0.45725019  0.47856389
   0.81268687  0.20078817  0.47913177
   0.56375323  0.87723247  0.52025112
   0.31288643  0.03806222  0.25592200
   0.93829525  0.27950549  0.11801074
   0.31145063  0.52525975  0.11863545
   0.06401158  0.02303947  0.11875008
   0.56578259  0.70437918  0.56595229
   0.06125403  0.70798310  0.47811945
   0.94261316  0.12240746  0.43606759
   0.93967107  0.94990043  0.34642545
   0.43400632  0.79777890  0.74222202
   0.05641786  0.72257290  0.83118535
   0.80736830  0.04081063  0.87727121
   0.18672414  0.45509325  0.47798236
   0.31189326  0.69791807  0.34833623
   0.44239739  0.96896354  0.83032054
   0.06933221  0.36371470  0.30264726
   0.43792509  0.44774703  0.21340580
   0.68815792  0.94615675  0.21232733
   0.31465122  0.04315944  0.61004582
   0.44272106  0.12001669  0.52124819
   0.31375011  0.87798274  0.78674165
   0.43752139  0.62431008  0.52065489
   0.44002974  0.77482654  0.25460120
   0.06408582  0.21233848  0.69822408
   0.18938782  0.11140523  0.17015581
   0.56520227  0.36730145  0.52195879
   0.56346580  0.52546879  0.11801686
   0.30706899  0.71159710  0.70017882
   0.56145067  0.04618111  0.74179358
   0.68825134  0.62318196  0.43629849
   0.43406046  0.62531983  0.43578216
   0.44575175  0.79343706  0.87887956
   0.93471666  0.78979021  0.60986342
   0.56114771  0.54489601  0.74282381
   0.31203531  0.20333346  0.47791778
   0.31311693  0.21215718  0.69779767
   0.68388187  0.96017539  0.56466180
   0.18861596  0.46119831  0.69824940
   0.81132362  0.87922858  0.78845560
   0.93833521  0.62523064  0.65525338
   0.57274948  0.05234702  0.87782316
   0.93502008  0.61980546  0.52133586
   0.55988164  0.37167897  0.43593663
   0.81579250  0.85889522  0.17111039
   0.94354381  0.11705165  0.30233870
   0.68833754  0.60815797  0.17120449
   0.68630625  0.28624086  0.38941978
   0.93228851  0.47581116  0.83116198
   0.18650503  0.77672200  0.11910299
   0.68387704  0.13073669  0.78739099
   0.94054432  0.46037920  0.69918385
   0.93537285  0.94619829  0.21191886
   0.19418652  0.28471242  0.25688130
   0.18791181  0.94640472  0.34708950
   0.43238345  0.78683734  0.39023626
   0.31273549  0.69282963  0.21244307
   0.94301962  0.29261648  0.39147151
   0.06023333  0.70088451  0.56497771
   0.18850428  0.45834632  0.34735729
   0.31447200  0.04301613  0.74182777
   0.06066891  0.52817564  0.11916058
   0.43684292  0.11180683  0.16983540
   0.31283485  0.70601078  0.56514818
   0.80706886  0.54013696  0.60870232
   0.68758679  0.11571299  0.30310363
   0.31655273  0.52458708  0.25617222
   0.43468059  0.45507559  0.69817952
   0.18892725  0.12206009  0.52028101
   0.81120206  0.87701244  0.65539406
   0.93847614  0.61989748  0.43578803
   0.81419116  0.86673243  0.30252876
   0.56946739  0.71313106  0.83214805
   0.19046851  0.95712673  0.56488997
   0.93708092  0.45553687  0.47848933
   0.92834233  0.80220459  0.87687384
   0.56113541  0.53074259  0.25500691
   0.93483599  0.95771824  0.47824515
   0.06089285  0.87046332  0.51977470
   0.43771832  0.13479771  0.65529121
   0.31510296  0.38384314  0.78720927
   0.69413715  0.96858915  0.83315243
   0.32028719  0.54865822  0.87858869
   0.43232241  0.28677801  0.39119228
   0.68640543  0.11781927  0.43671890
   0.43506745  0.61025758  0.30243859
   0.68376262  0.94987892  0.34720585
   0.81134146  0.37067991  0.52185499
   0.18816539  0.61076608  0.30269434
   0.30964790  0.53765261  0.39007909
   0.06075296  0.22103888  0.83050690
   0.56802747  0.55106030  0.87676646
   0.68827225  0.29578978  0.74244840
   0.18737136  0.13237348  0.65560218
   0.55881320  0.87187019  0.43632791
   0.18897491  0.79551898  0.74150462
   0.55643126  0.03455544  0.39030205
   0.30857351  0.36526906  0.30110530
   0.81573515  0.36868273  0.30271206
   0.68926826  0.45511859  0.56574566
   0.18790183  0.29735321  0.74242931
   0.06151772  0.54690298  0.74158182
   0.06513743  0.87390838  0.43615723
   0.18625698  0.62223211  0.65530014
   0.31118609  0.87791197  0.65542218
   0.06218493  0.19762316  0.21167384
   0.44365020  0.30647381  0.87751463
   0.81845923  0.53326102  0.39032717
   0.06409184  0.03255151  0.25627612
   0.68517423  0.12017856  0.52071012
   0.93814478  0.29404254  0.60922622
   0.31188545  0.85944841  0.16977992
   0.68878883  0.95725313  0.47934823
   0.81231389  0.02412901  0.11761840
   0.56250690  0.86631730  0.30313133
   0.81413974  0.20290514  0.34677898
   0.31617385  0.87143957  0.52051262
   0.18034149  0.96210732  0.83003310
   0.81127730  0.04600869  0.74197717
   0.06197513  0.20303228  0.34611620
   0.56318874  0.87983555  0.78720427
   0.06300322  0.87123180  0.30267232
   0.43947403  0.94707450  0.21175042
   0.93482963  0.95780613  0.56492860
   0.31361242  0.02497171  0.11921777
   0.18296640  0.79715318  0.87845471
   0.80835918  0.21381754  0.56453137
   0.56374184  0.20121364  0.47915136
   0.68816861  0.62419677  0.65454864
   0.56167480  0.03349381  0.25516172
   0.43383245  0.45560681  0.34753902
   0.94026098  0.10686724  0.17136753
   0.56521765  0.88060116  0.65502006
   0.94005161  0.28337635  0.25530385
   0.80982973  0.38493091  0.78759137
   0.44087241  0.96044677  0.56480854
   0.81235208  0.71043552  0.47863696
   0.31346263  0.37206148  0.65492669
   0.81547023  0.52682368  0.11833594
   0.18802032  0.62170687  0.52097366
   0.06149616  0.20408343  0.47759338
   0.93971643  0.61614240  0.30275889
   0.06005698  0.37348063  0.52121000
   0.68746598  0.47310835  0.83261087
   0.18656354  0.96001718  0.69910553
   0.06331129  0.04297594  0.74165897
   0.06239270  0.87697566  0.78801019
   0.06312490  0.04446119  0.61033623
   0.68566377  0.12825581  0.65532257
   0.68274893  0.30361896  0.87780060
   0.81466955  0.54431214  0.74224415
   0.18496707  0.94713938  0.21164030
   0.31368863  0.37136027  0.52094514
   0.06258346  0.87773924  0.65564018
   0.18898976  0.62250481  0.43522247
   0.06373499  0.53783911  0.61014600
   0.68525177  0.61673630  0.30190245
   0.18758961  0.63148598  0.78743350
   0.43858899  0.63153990  0.78714621
   0.18872755  0.27588506  0.11931922
   0.81244692  0.03694535  0.38983556
   0.31223750  0.87153241  0.43568776
   0.93262068  0.12232635  0.52008302
   0.94100736  0.12683268  0.65530841
   0.81304088  0.35862334  0.17078249
   0.81044740  0.04086691  0.60978333
   0.43683002  0.77879157  0.11863983
   0.56430962  0.22437750  0.83146752
   0.80970127  0.37885247  0.65468473
   0.93255185  0.96284685  0.83294989
   0.18489707  0.29014805  0.39157574
   0.68805593  0.45527129  0.34704352
   0.55436685  0.36912963  0.30220271
   0.68757951  0.77748288  0.11780050
   0.31732786  0.05294093  0.87964042
   0.31445933  0.53613650  0.60972483
   0.80910907  0.53389512  0.25468117
   0.68720707  0.62810036  0.78790871
   0.68509803  0.78544910  0.38955730
   0.81303916  0.02916013  0.25479048
   0.81357026  0.87147582  0.43736929
   0.06504830  0.53088833  0.25520250
   0.56414089  0.69363643  0.21310425
   0.44198953  0.45525603  0.56603836
   0.56457602  0.38095247  0.78818759
   0.94035526  0.61015294  0.17000187
   0.06667134  0.69665121  0.34744006
   0.94010838  0.78177265  0.38989187
   0.56138977  0.19833202  0.34719877
   0.56072342  0.21000678  0.69812968
   0.31026531  0.37073193  0.43504503
   0.55980098  0.53750260  0.38923986
   0.56239844  0.71039433  0.47847851
   0.55960515  0.70192773  0.34714948
   0.43768081  0.96309863  0.69929960
   0.43932493  0.94659352  0.34783754
   0.81727677  0.37218789  0.43548845
   0.93731183  0.29947061  0.74167593
   0.81245932  0.20818292  0.69906232
   0.93595931  0.44893074  0.21239610
   0.68828896  0.79644913  0.74302486
   0.18716927  0.12099699  0.43579831
   0.18834728  0.44786621  0.21233087
   0.43872884  0.95644302  0.47839932
   0.92816912  0.30397797  0.87948052
   0.56219621  0.04167747  0.60900262
   0.68178615  0.29860523  0.60956231
   0.81109113  0.69960943  0.56506101
   0.44493289  0.46749756  0.83193269
   0.44138363  0.29910306  0.61096535
   0.68937515  0.62201557  0.52132860
   0.31291451  0.35658786  0.17022118
   0.56000862  0.35595177  0.17061977
   0.56144624  0.19914068  0.21229503
   0.81159566  0.19731436  0.21178315
   0.06593070  0.03862014  0.39146391
   0.18537259  0.45668126  0.56532368
   0.44110351  0.78921582  0.60897945
   0.56615956  0.53595728  0.60931235
   0.43678242  0.27375070  0.11946858
   0.18805336  0.60736675  0.17026121
   0.43828119  0.29518880  0.74255168
   0.68406531  0.78693854  0.60956616
   0.93684909  0.62921356  0.78791019
   0.19054158  0.78483303  0.39059977
   0.56523919  0.20680992  0.56464238
   0.43786022  0.62966025  0.65608415
   0.06286149  0.36916185  0.43505611
   0.81206374  0.69798751  0.34699323
   0.93755243  0.78067891  0.25490518
   0.31305943  0.20082959  0.21215388
   0.43368248  0.11880407  0.43551797
   0.31736154  0.22471423  0.83094424
   0.80898708  0.87360578  0.51981952
   0.18557182  0.12100771  0.30175959
   0.69335352  0.79935750  0.87735196
   0.68674783  0.96389858  0.69844143
   0.31209129  0.03347329  0.39160191
   0.68621607  0.45974352  0.69830774
   0.31371391  0.70795069  0.47801841
   0.18997429  0.12820711  0.78707410
   0.05951033  0.21318920  0.56543787
   0.93970257  0.77413912  0.11906432
   0.68328545  0.28668820  0.25432867
   0.94005726  0.45257375  0.34828315
   0.44076559  0.13069365  0.78685735
   0.43688979  0.45780651  0.47823401
   0.93557551  0.12895785  0.78751792
   0.93956222  0.79438590  0.74160082
   0.81590705  0.71256529  0.69888430
   0.56272835  0.86028281  0.17064462
   0.06663428  0.35849017  0.17026834
   0.31039793  0.71631310  0.83049580
   0.43224053  0.12215457  0.30155050
   0.56037130  0.02631764  0.11899025
   0.05602906  0.56076875  0.87823686
   0.05187302  0.03950534  0.87836543
   0.80433813  0.55872228  0.87668164
   0.18894900  0.78883237  0.61006208
   0.68582347  0.44982022  0.21316218
   0.43420321  0.28837422  0.25612814
   0.18702448  0.77742407  0.25519136
   0.81074560  0.69642152  0.21298447
   0.06566101  0.71083631  0.69921897
   0.80763911  0.21539327  0.83202071
   0.93656292  0.96057406  0.69844119
   0.30680949  0.87267834  0.30388320
   0.06228986  0.53246574  0.38998939
   0.93261511  0.45577383  0.56485741
   0.06004117  0.38479212  0.78702312
   0.81439952  0.71809574  0.83420079
   0.18713513  0.95843252  0.47768275
   0.31726527  0.20801522  0.56513215
   0.06484288  0.37620384  0.65558940
   0.56426384  0.71200048  0.69912615
   0.18825113  0.29595709  0.61045238
   0.31460054  0.20232747  0.34606203
Direct configuration=     3
   0.31209302  0.54904336  0.74210044
   0.06235343  0.85831275  0.16952936
   0.68676780  0.27732323  0.11921186
   0.18586093  0.47109047  0.83088551
   0.56101054  0.37390652  0.65432977
   0.19431012  0.30644924  0.87834031
   0.68642203  0.10793269  0.17027343
   0.43623047  0.60714656  0.17028523
   0.06048884  0.69639831  0.21207780
   0.68700377  0.77792462  0.25491172
   0.68859586  0.45705328  0.47851132
   0.81262718  0.20168472  0.47900137
   0.56350590  0.87631203  0.52043122
   0.31289762  0.03699343  0.25589545
   0.93812501  0.27882640  0.11892344
   0.31162157  0.52553666  0.11942319
   0.06374884  0.02367160  0.11955884
   0.56529890  0.70490608  0.56587278
   0.06148768  0.70760776  0.47814615
   0.94185987  0.12215668  0.43575780
   0.93935089  0.95012411  0.34621331
   0.43457022  0.79755618  0.74254057
   0.05745149  0.72194274  0.83157481
   0.80815369  0.04287884  0.87718108
   0.18681199  0.45524461  0.47802291
   0.31207032  0.69844530  0.34780647
   0.44144284  0.96904251  0.83081626
   0.06815954  0.36426491  0.30223770
   0.43783950  0.44766929  0.21305950
   0.68795542  0.94643132  0.21217726
   0.31440978  0.04290285  0.61017027
   0.44192572  0.12023303  0.52125559
   0.31352848  0.87841850  0.78710868
   0.43759433  0.62396815  0.52077418
   0.43966989  0.77593199  0.25475337
   0.06392356  0.21199819  0.69851225
   0.18918462  0.11087312  0.16955649
   0.56476558  0.36800954  0.52185572
   0.56327329  0.52568062  0.11893249
   0.30808997  0.71141151  0.70013640
   0.56147469  0.04618891  0.74215892
   0.68809220  0.62284944  0.43592949
   0.43471587  0.62469191  0.43551064
   0.44411255  0.79458434  0.87850486
   0.93503612  0.79002894  0.61000304
   0.56127574  0.54508026  0.74302562
   0.31211644  0.20382798  0.47797809
   0.31320014  0.21190982  0.69815256
   0.68428781  0.95964197  0.56478251
   0.18858458  0.46125673  0.69854175
   0.81164726  0.87945960  0.78854820
   0.93815241  0.62554898  0.65523432
   0.57091956  0.05259791  0.87763367
   0.93536669  0.62005668  0.52133346
   0.56043504  0.37167047  0.43564693
   0.81536554  0.85864930  0.17031997
   0.94250768  0.11709102  0.30199491
   0.68837708  0.60827985  0.17039928
   0.68641846  0.28626381  0.38933642
   0.93315023  0.47486965  0.83160390
   0.18667797  0.77665836  0.11983956
   0.68445337  0.13071568  0.78761335
   0.93999769  0.46046247  0.69931234
   0.93561711  0.94646250  0.21183476
   0.19320417  0.28418127  0.25668332
   0.18796841  0.94720325  0.34676296
   0.43326002  0.78674434  0.39002051
   0.31266932  0.69354883  0.21228227
   0.94202481  0.29165500  0.39106131
   0.06060957  0.70189545  0.56504712
   0.18860232  0.45708535  0.34699780
   0.31422170  0.04354924  0.74222115
   0.06100558  0.52793824  0.11988371
   0.43712136  0.11120613  0.16929429
   0.31280796  0.70613250  0.56520829
   0.80795355  0.54021069  0.60901697
   0.68744049  0.11595570  0.30265692
   0.31598877  0.52578723  0.25609454
   0.43519540  0.45607057  0.69846355
   0.18867694  0.12205031  0.52042752
   0.81127813  0.87696028  0.65535601
   0.93825830  0.62010434  0.43553588
   0.81384687  0.86679886  0.30214058
   0.56829390  0.71403576  0.83239787
   0.19005759  0.95707901  0.56493517
   0.93711077  0.45564911  0.47848168
   0.92994928  0.80181530  0.87687033
   0.56143171  0.53088852  0.25511481
   0.93518816  0.95754074  0.47823646
   0.06106108  0.87059529  0.52000891
   0.43766715  0.13352850  0.65527137
   0.31450805  0.38318183  0.78748021
   0.69317168  0.96886542  0.83325753
   0.31910507  0.54919325  0.87826496
   0.43319205  0.28670296  0.39082280
   0.68650501  0.11833589  0.43627009
   0.43526574  0.61136985  0.30207711
   0.68428736  0.95007632  0.34688849
   0.81144761  0.37087510  0.52176784
   0.18808790  0.61179287  0.30227604
   0.31011359  0.53744112  0.38986416
   0.06111324  0.22083410  0.83100737
   0.56690078  0.55132739  0.87674887
   0.68811635  0.29576542  0.74272502
   0.18736916  0.13145690  0.65553295
   0.55940608  0.87187143  0.43595974
   0.18875953  0.79565066  0.74196259
   0.55736564  0.03493484  0.39008501
   0.30918495  0.36548195  0.30096236
   0.81508618  0.36830904  0.30228920
   0.68888945  0.45542551  0.56569816
   0.18797150  0.29714829  0.74277647
   0.06166462  0.54671427  0.74206951
   0.06462490  0.87355587  0.43585391
   0.18655703  0.62303837  0.65527722
   0.31151887  0.87758642  0.65539230
   0.06220200  0.19758185  0.21161244
   0.44239408  0.30532025  0.87734725
   0.81734348  0.53376587  0.39011174
   0.06392719  0.03239341  0.25617703
   0.68544114  0.12035829  0.52082454
   0.93797110  0.29363030  0.60942053
   0.31213227  0.85933309  0.16922711
   0.68847239  0.95719948  0.47918662
   0.81235062  0.02469201  0.11861266
   0.56224391  0.86647249  0.30267294
   0.81376826  0.20267294  0.34651366
   0.31575121  0.87144619  0.52065260
   0.18149507  0.96332453  0.83057629
   0.81143545  0.04601048  0.74234976
   0.06222858  0.20272169  0.34597088
   0.56303916  0.88000982  0.78746680
   0.06299726  0.87065100  0.30225195
   0.43912712  0.94713676  0.21168238
   0.93521623  0.95774085  0.56500563
   0.31344776  0.02519662  0.11994248
   0.18398670  0.79770987  0.87814846
   0.80894181  0.21269087  0.56467567
   0.56349682  0.20206612  0.47902395
   0.68797607  0.62477062  0.65466151
   0.56183510  0.03320304  0.25522961
   0.43440796  0.45478409  0.34717771
   0.93986001  0.10711597  0.17055071
   0.56469898  0.87989621  0.65505707
   0.93973316  0.28310412  0.25536422
   0.81037453  0.38422303  0.78779528
   0.44044833  0.95984614  0.56492427
   0.81237579  0.70980271  0.47860770
   0.31334144  0.37290693  0.65496744
   0.81500918  0.52685994  0.11919438
   0.18793777  0.62166925  0.52102424
   0.06168274  0.20452988  0.47769482
   0.93936377  0.61619885  0.30233216
   0.06047835  0.37321464  0.52122167
   0.68758801  0.47258933  0.83280649
   0.18656442  0.96005515  0.69925407
   0.06329547  0.04344802  0.74213199
   0.06254005  0.87756167  0.78814717
   0.06312825  0.04418866  0.61040231
   0.68598840  0.12802669  0.65529643
   0.68338366  0.30272259  0.87761640
   0.81428378  0.54456631  0.74259680
   0.18528242  0.94717967  0.21158917
   0.31354213  0.37150115  0.52101233
   0.06260571  0.87753087  0.65560740
   0.18875595  0.62232710  0.43509553
   0.06373074  0.53823599  0.61025169
   0.68548964  0.61672548  0.30160615
   0.18750831  0.63122187  0.78767797
   0.43823890  0.63137113  0.78740973
   0.18845943  0.27578941  0.12000554
   0.81224312  0.03689472  0.38971234
   0.31239224  0.87147089  0.43549876
   0.93341856  0.12222484  0.52029806
   0.94050054  0.12671149  0.65529362
   0.81306585  0.35857545  0.17006156
   0.81073879  0.04093761  0.60993029
   0.43693312  0.77839482  0.11945860
   0.56397687  0.22345272  0.83181817
   0.81000599  0.37859134  0.65472178
   0.93339136  0.96409855  0.83309337
   0.18520603  0.28966310  0.39115132
   0.68782901  0.45457925  0.34678329
   0.55559227  0.36875213  0.30187599
   0.68762640  0.77721568  0.11875410
   0.31656869  0.05289638  0.87913364
   0.31405578  0.53690204  0.60985097
   0.80970177  0.53352246  0.25482135
   0.68727670  0.62850510  0.78804769
   0.68534883  0.78558303  0.38947556
   0.81299087  0.02954366  0.25490611
   0.81333569  0.87158221  0.43682764
   0.06466261  0.53098971  0.25528501
   0.56383059  0.69417998  0.21281747
   0.44120308  0.45559033  0.56594645
   0.56418449  0.38076095  0.78827962
   0.93994634  0.60992789  0.16938831
   0.06608583  0.69728753  0.34707568
   0.93953788  0.78238191  0.38974617
   0.56153341  0.19873961  0.34689068
   0.56100461  0.21011222  0.69842565
   0.31064786  0.37090358  0.43491300
   0.56021865  0.53727718  0.38918875
   0.56234643  0.70979742  0.47848129
   0.56005266  0.70179997  0.34686242
   0.43758973  0.96272174  0.69940285