 288 288   0   0
  0.1280206E+02  0.9726678E-09  0.8423550E-09  0.4500000E-08  0.2500000E-15
  1.000000000000000E-004
  CAR 
 unknown system                          
      6.81672569     -6.02394636  301      4.31734211      1.00000000
     -6.024  0.0000E+00  0.0000E+00
     -5.981  0.0000E+00  0.0000E+00
     -5.938  0.0000E+00  0.0000E+00
     -5.896  0.0000E+00  0.0000E+00
     -5.853  0.0000E+00  0.0000E+00
     -5.810  0.0000E+00  0.0000E+00
     -5.767  0.0000E+00  0.0000E+00
     -5.724  0.0000E+00  0.0000E+00
     -5.682  0.0000E+00  0.0000E+00
     -5.639  0.0000E+00  0.0000E+00
     -5.596  0.0000E+00  0.0000E+00
     -5.553  0.0000E+00  0.0000E+00
     -5.510  0.0000E+00  0.0000E+00
     -5.468  0.0000E+00  0.0000E+00
     -5.425  0.0000E+00  0.0000E+00
     -5.382  0.1621E-15  0.6939E-17
     -5.339  0.4280E-14  0.1901E-15
     -5.296  0.9176E-13  0.4118E-14
     -5.254  0.1674E-11  0.7576E-13
     -5.211  0.2600E-10  0.1188E-11
     -5.168  0.3437E-09  0.1590E-10
     -5.125  0.3870E-08  0.1815E-09
     -5.082  0.3711E-07  0.1770E-08
     -5.039  0.3032E-06  0.1475E-07
     -4.997  0.2113E-05  0.1052E-06
     -4.954  0.1257E-04  0.6430E-06
     -4.911  0.6388E-04  0.3377E-05
     -4.868  0.2782E-03  0.1528E-04
     -4.825  0.1041E-02  0.5985E-04
     -4.783  0.3366E-02  0.2039E-03
     -4.740  0.9463E-02  0.6090E-03
     -4.697  0.2335E-01  0.1608E-02
     -4.654  0.5114E-01  0.3797E-02
     -4.611  0.1008E+00  0.8110E-02
     -4.569  0.1808E+00  0.1585E-01
     -4.526  0.2988E+00  0.2864E-01
     -4.483  0.4583E+00  0.4825E-01
     -4.440  0.6560E+00  0.7633E-01
     -4.397  0.8807E+00  0.1140E+00
     -4.355  0.1114E+01  0.1617E+00
     -4.312  0.1333E+01  0.2188E+00
     -4.269  0.1517E+01  0.2837E+00
     -4.226  0.1653E+01  0.3544E+00
     -4.183  0.1745E+01  0.4291E+00
     -4.141  0.1809E+01  0.5065E+00
     -4.098  0.1875E+01  0.5868E+00
     -4.055  0.1974E+01  0.6712E+00
     -4.012  0.2128E+01  0.7623E+00
     -3.969  0.2340E+01  0.8625E+00
     -3.927  0.2589E+01  0.9733E+00
     -3.884  0.2838E+01  0.1095E+01
     -3.841  0.3040E+01  0.1225E+01
     -3.798  0.3161E+01  0.1360E+01
     -3.755  0.3190E+01  0.1497E+01
     -3.713  0.3147E+01  0.1631E+01
     -3.670  0.3079E+01  0.1763E+01
     -3.627  0.3039E+01  0.1893E+01
     -3.584  0.3074E+01  0.2025E+01
     -3.541  0.3202E+01  0.2162E+01
     -3.499  0.3410E+01  0.2308E+01
     -3.456  0.3658E+01  0.2464E+01
     -3.413  0.3897E+01  0.2631E+01
     -3.370  0.4082E+01  0.2806E+01
     -3.327  0.4187E+01  0.2985E+01
     -3.285  0.4215E+01  0.3166E+01
     -3.242  0.4191E+01  0.3345E+01
     -3.199  0.4161E+01  0.3523E+01
     -3.156  0.4173E+01  0.3702E+01
     -3.113  0.4263E+01  0.3884E+01
     -3.071  0.4438E+01  0.4074E+01
     -3.028  0.4674E+01  0.4274E+01
     -2.985  0.4929E+01  0.4485E+01
     -2.942  0.5152E+01  0.4706E+01
     -2.899  0.5305E+01  0.4933E+01
     -2.857  0.5374E+01  0.5163E+01
     -2.814  0.5383E+01  0.5393E+01
     -2.771  0.5381E+01  0.5623E+01
     -2.728  0.5417E+01  0.5855E+01
     -2.685  0.5508E+01  0.6091E+01
     -2.643  0.5617E+01  0.6331E+01
     -2.600  0.5678E+01  0.6575E+01
     -2.557  0.5646E+01  0.6816E+01
     -2.514  0.5544E+01  0.7053E+01
     -2.471  0.5467E+01  0.7287E+01
     -2.429  0.5541E+01  0.7525E+01
     -2.386  0.5848E+01  0.7775E+01
     -2.343  0.6369E+01  0.8048E+01
     -2.300  0.6973E+01  0.8346E+01
     -2.257  0.7453E+01  0.8665E+01
     -2.215  0.7637E+01  0.8992E+01
     -2.172  0.7481E+01  0.9312E+01
     -2.129  0.7117E+01  0.9617E+01
     -2.086  0.6785E+01  0.9907E+01
     -2.043  0.6710E+01  0.1019E+02
     -2.001  0.6986E+01  0.1049E+02
     -1.958  0.7542E+01  0.1082E+02
     -1.915  0.8182E+01  0.1117E+02
     -1.872  0.8687E+01  0.1154E+02
     -1.829  0.8919E+01  0.1192E+02
     -1.787  0.8884E+01  0.1230E+02
     -1.744  0.8720E+01  0.1267E+02
     -1.701  0.8602E+01  0.1304E+02
     -1.658  0.8641E+01  0.1341E+02
     -1.615  0.8840E+01  0.1379E+02
     -1.573  0.9127E+01  0.1418E+02
     -1.530  0.9430E+01  0.1458E+02
     -1.487  0.9711E+01  0.1500E+02
     -1.444  0.9969E+01  0.1543E+02
     -1.401  0.1020E+02  0.1586E+02
     -1.359  0.1039E+02  0.1631E+02
     -1.316  0.1053E+02  0.1676E+02
     -1.273  0.1069E+02  0.1722E+02
     -1.230  0.1102E+02  0.1769E+02
     -1.187  0.1167E+02  0.1819E+02
     -1.144  0.1267E+02  0.1873E+02
     -1.102  0.1384E+02  0.1932E+02
     -1.059  0.1483E+02  0.1996E+02
     -1.016  0.1539E+02  0.2062E+02
     -0.973  0.1551E+02  0.2128E+02
     -0.930  0.1548E+02  0.2194E+02
     -0.888  0.1572E+02  0.2261E+02
     -0.845  0.1655E+02  0.2332E+02
     -0.802  0.1802E+02  0.2409E+02
     -0.759  0.2002E+02  0.2495E+02
     -0.716  0.2242E+02  0.2591E+02
     -0.674  0.2532E+02  0.2699E+02
     -0.631  0.2889E+02  0.2823E+02
     -0.588  0.3316E+02  0.2965E+02
     -0.545  0.3784E+02  0.3127E+02
     -0.502  0.4233E+02  0.3308E+02
     -0.460  0.4612E+02  0.3506E+02
     -0.417  0.4901E+02  0.3715E+02
     -0.374  0.5117E+02  0.3934E+02
     -0.331  0.5290E+02  0.4161E+02
     -0.288  0.5444E+02  0.4394E+02
     -0.246  0.5579E+02  0.4633E+02
     -0.203  0.5681E+02  0.4876E+02
     -0.160  0.5739E+02  0.5121E+02
     -0.117  0.5758E+02  0.5368E+02
     -0.074  0.5760E+02  0.5614E+02
     -0.032  0.5773E+02  0.5862E+02
      0.011  0.5817E+02  0.6110E+02
      0.054  0.5907E+02  0.6363E+02
      0.097  0.6060E+02  0.6623E+02
      0.140  0.6285E+02  0.6892E+02
      0.182  0.6584E+02  0.7174E+02
      0.225  0.6933E+02  0.7470E+02
      0.268  0.7295E+02  0.7782E+02
      0.311  0.7635E+02  0.8109E+02
      0.354  0.7932E+02  0.8449E+02
      0.396  0.8176E+02  0.8799E+02
      0.439  0.8371E+02  0.9157E+02
      0.482  0.8518E+02  0.9522E+02
      0.525  0.8614E+02  0.9890E+02
      0.568  0.8657E+02  0.1026E+03
      0.610  0.8653E+02  0.1063E+03
      0.653  0.8612E+02  0.1100E+03
      0.696  0.8541E+02  0.1137E+03
      0.739  0.8437E+02  0.1173E+03
      0.782  0.8291E+02  0.1208E+03
      0.824  0.8110E+02  0.1243E+03
      0.867  0.7923E+02  0.1277E+03
      0.910  0.7772E+02  0.1310E+03
      0.953  0.7680E+02  0.1343E+03
      0.996  0.7640E+02  0.1376E+03
      1.038  0.7620E+02  0.1408E+03
      1.081  0.7584E+02  0.1441E+03
      1.124  0.7515E+02  0.1473E+03
      1.167  0.7424E+02  0.1505E+03
      1.210  0.7348E+02  0.1536E+03
      1.252  0.7322E+02  0.1567E+03
      1.295  0.7349E+02  0.1599E+03
      1.338  0.7392E+02  0.1631E+03
      1.381  0.7388E+02  0.1662E+03
      1.424  0.7296E+02  0.1693E+03
      1.466  0.7127E+02  0.1724E+03
      1.509  0.6939E+02  0.1754E+03
      1.552  0.6802E+02  0.1783E+03
      1.595  0.6764E+02  0.1812E+03
      1.638  0.6835E+02  0.1841E+03
      1.680  0.6996E+02  0.1871E+03
      1.723  0.7217E+02  0.1902E+03
      1.766  0.7464E+02  0.1934E+03
      1.809  0.7713E+02  0.1967E+03
      1.852  0.7947E+02  0.2001E+03
      1.894  0.8159E+02  0.2036E+03
      1.937  0.8347E+02  0.2071E+03
      1.980  0.8517E+02  0.2108E+03
      2.023  0.8677E+02  0.2145E+03
      2.066  0.8833E+02  0.2183E+03
      2.108  0.8989E+02  0.2221E+03
      2.151  0.9145E+02  0.2260E+03
      2.194  0.9302E+02  0.2300E+03
      2.237  0.9463E+02  0.2341E+03
      2.280  0.9644E+02  0.2382E+03
      2.322  0.9872E+02  0.2424E+03
      2.365  0.1017E+03  0.2468E+03
      2.408  0.1056E+03  0.2513E+03
      2.451  0.1100E+03  0.2560E+03
      2.494  0.1146E+03  0.2609E+03
      2.537  0.1189E+03  0.2660E+03
      2.579  0.1226E+03  0.2712E+03
      2.622  0.1254E+03  0.2766E+03
      2.665  0.1273E+03  0.2821E+03
      2.708  0.1284E+03  0.2876E+03
      2.751  0.1292E+03  0.2931E+03
      2.793  0.1301E+03  0.2987E+03
      2.836  0.1318E+03  0.3043E+03
      2.879  0.1344E+03  0.3101E+03
      2.922  0.1377E+03  0.3160E+03
      2.965  0.1408E+03  0.3220E+03
      3.007  0.1419E+03  0.3281E+03
      3.050  0.1400E+03  0.3340E+03
      3.093  0.1344E+03  0.3398E+03
      3.136  0.1261E+03  0.3452E+03
      3.179  0.1166E+03  0.3502E+03
      3.221  0.1076E+03  0.3548E+03
      3.264  0.1003E+03  0.3591E+03
      3.307  0.9537E+02  0.3632E+03
      3.350  0.9253E+02  0.3671E+03
      3.393  0.9128E+02  0.3710E+03
      3.435  0.9088E+02  0.3749E+03
      3.478  0.9050E+02  0.3788E+03
      3.521  0.8950E+02  0.3826E+03
      3.564  0.8773E+02  0.3864E+03
      3.607  0.8558E+02  0.3900E+03
      3.649  0.8390E+02  0.3936E+03
      3.692  0.8349E+02  0.3972E+03
      3.735  0.8469E+02  0.4008E+03
      3.778  0.8718E+02  0.4046E+03
      3.821  0.9025E+02  0.4084E+03
      3.863  0.9318E+02  0.4124E+03
      3.906  0.9563E+02  0.4165E+03
      3.949  0.9761E+02  0.4207E+03
      3.992  0.9931E+02  0.4249E+03
      4.035  0.1009E+03  0.4293E+03
      4.077  0.1021E+03  0.4336E+03
      4.120  0.1029E+03  0.4380E+03
      4.163  0.1029E+03  0.4424E+03
      4.206  0.1022E+03  0.4468E+03
      4.249  0.1011E+03  0.4511E+03
      4.291  0.1000E+03  0.4554E+03
      4.334  0.9930E+02  0.4597E+03
      4.377  0.9909E+02  0.4639E+03
      4.420  0.9939E+02  0.4682E+03
      4.463  0.9992E+02  0.4724E+03
      4.505  0.1003E+03  0.4767E+03
      4.548  0.1003E+03  0.4810E+03
      4.591  0.9975E+02  0.4853E+03
      4.634  0.9891E+02  0.4895E+03
      4.677  0.9824E+02  0.4937E+03
      4.719  0.9825E+02  0.4979E+03
      4.762  0.9931E+02  0.5022E+03
      4.805  0.1015E+03  0.5065E+03
      4.848  0.1044E+03  0.5110E+03
      4.891  0.1075E+03  0.5156E+03
      4.933  0.1104E+03  0.5203E+03
      4.976  0.1123E+03  0.5251E+03
      5.019  0.1127E+03  0.5300E+03
      5.062  0.1107E+03  0.5347E+03
      5.105  0.1053E+03  0.5392E+03
      5.147  0.9560E+02  0.5433E+03
      5.190  0.8170E+02  0.5468E+03
      5.233  0.6477E+02  0.5496E+03
      5.276  0.4700E+02  0.5516E+03
      5.319  0.3088E+02  0.5529E+03
      5.361  0.1820E+02  0.5537E+03
      5.404  0.9558E+01  0.5541E+03
      5.447  0.4445E+01  0.5543E+03
      5.490  0.1824E+01  0.5544E+03
      5.533  0.6577E+00  0.5544E+03
      5.575  0.2081E+00  0.5544E+03
      5.618  0.5761E-01  0.5544E+03
      5.661  0.1394E-01  0.5544E+03
      5.704  0.2945E-02  0.5544E+03
      5.747  0.5422E-03  0.5544E+03
      5.789  0.8690E-04  0.5544E+03
      5.832  0.1211E-04  0.5544E+03
      5.875  0.1466E-05  0.5544E+03
      5.918  0.1538E-06  0.5544E+03
      5.961  0.1397E-07  0.5544E+03
      6.003  0.1097E-08  0.5544E+03
      6.046  0.7435E-10  0.5544E+03
      6.089  0.4342E-11  0.5544E+03
      6.132  0.2169E-12  0.5544E+03
      6.175  0.8689E-14  0.5544E+03
      6.217  0.1945E-15  0.5544E+03
      6.260  0.0000E+00  0.5544E+03
      6.303  0.0000E+00  0.5544E+03
      6.346  0.0000E+00  0.5544E+03
      6.389  0.0000E+00  0.5544E+03
      6.432  0.0000E+00  0.5544E+03
      6.474  0.0000E+00  0.5544E+03
      6.517  0.0000E+00  0.5544E+03
      6.560  0.0000E+00  0.5544E+03
      6.603  0.0000E+00  0.5544E+03
      6.646  0.0000E+00  0.5544E+03
      6.688  0.0000E+00  0.5544E+03
      6.731  0.0000E+00  0.5544E+03
      6.774  0.0000E+00  0.5544E+03
      6.817  0.0000E+00  0.5544E+03
