unknown system                          
           1
     9.726678    0.000000    0.000000
     0.000000    8.423550    0.000000
     0.000000    0.000000   45.000000
   Fe   Mn
 274  14
Direct configuration=     1
   0.06148885  0.03096038  0.12414123
   0.31660599  0.87432673  0.65520590
   0.18436977  0.12310226  0.78883912
   0.44152473  0.28773527  0.38906501
   0.31759897  0.71326986  0.83340184
   0.81763313  0.21498222  0.83365676
   0.19156678  0.96279143  0.83351372
   0.56240729  0.20701915  0.56555315
   0.06561773  0.04092419  0.74444734
   0.81150305  0.87113219  0.52133708
   0.19035811  0.29094500  0.74447585
   0.93353715  0.45269953  0.34475760
   0.94119116  0.28679604  0.38880821
   0.81309626  0.03929263  0.87591029
   0.18390597  0.78837946  0.61096884
   0.56624088  0.03826879  0.38893449
   0.94194600  0.96340912  0.83370572
   0.31280539  0.54031868  0.87601087
   0.69049890  0.29105618  0.74445091
   0.18167525  0.61420408  0.16649188
   0.81226233  0.20584141  0.47865841
   0.80924569  0.53856675  0.61109532
   0.31167826  0.87088760  0.43433662
   0.80992914  0.03818792  0.25592121
   0.68310823  0.95163806  0.34456918
   0.93192562  0.11334477  0.16667749
   0.06176134  0.87138954  0.52129508
   0.55792364  0.53770306  0.25551122
   0.68602366  0.79703871  0.87610246
   0.55688902  0.36573729  0.16646149
   0.44025225  0.79136162  0.74444416
   0.81153243  0.70667896  0.56550235
   0.55921710  0.87313589  0.78877372
   0.68663879  0.12141865  0.52133782
   0.81617619  0.37473347  0.65515982
   0.94165394  0.46339513  0.83370122
   0.06006523  0.20698035  0.69998847
   0.43494416  0.95674833  0.69982384
   0.31750308  0.21334789  0.83342225
   0.44103163  0.62485086  0.65511804
   0.30910740  0.53837464  0.61108449
   0.93666934  0.45668546  0.56557258
   0.69005362  0.79140645  0.74447442
   0.06404347  0.03949561  0.87590299
   0.69199158  0.78786682  0.38886229
   0.94030524  0.79068133  0.74465478
   0.05923770  0.20361101  0.34481438
   0.68376258  0.45237822  0.34494262
   0.43363973  0.12316483  0.78910935
   0.06557662  0.20513175  0.21115481
   0.05547845  0.36531603  0.16663715
   0.93341013  0.78742848  0.25550913
   0.56007555  0.20656623  0.69991183
   0.68460922  0.95655637  0.69988949
   0.80987916  0.87321079  0.78854333
   0.43687301  0.95739929  0.56538523
   0.80928250  0.37388808  0.78871391
   0.68404928  0.28794176  0.25589977
   0.18701349  0.45681720  0.56544715
   0.05595990  0.86476345  0.16649992
   0.18425866  0.28867103  0.61111424
   0.06216970  0.20734690  0.56533287
   0.31030680  0.20652472  0.69990175
   0.56240687  0.54016565  0.87604387
   0.06206849  0.70659041  0.56555863
   0.68320815  0.62351144  0.78878596
   0.31605832  0.53817291  0.38884688
   0.18672179  0.62145117  0.52133956
   0.56217216  0.87075668  0.43436584
   0.43689813  0.45673348  0.56553199
   0.44016288  0.29146319  0.74451792
   0.82102572  0.87416566  0.30018163
   0.80889145  0.70261497  0.34481774
   0.44199634  0.46293510  0.83343644
   0.68725574  0.95602965  0.47866246
   0.68476866  0.45674431  0.69994677
   0.56179963  0.87181840  0.52136122
   0.56620973  0.37453980  0.65517176
   0.81637234  0.87493000  0.65522056
   0.81131716  0.37159382  0.43401399
   0.80848101  0.53770070  0.25585751
   0.69199186  0.46223202  0.83347927
   0.18581018  0.78791510  0.12407623
   0.69143567  0.28745334  0.38889706
   0.31601352  0.37400687  0.65510695
   0.30925209  0.20291268  0.34457747
   0.81540178  0.54087263  0.74446315
   0.69199959  0.96260128  0.83348464
   0.56617281  0.87440192  0.65517074
   0.31131035  0.70721748  0.56544076
   0.31209059  0.52926790  0.12385749
   0.68940701  0.95465216  0.21175427
   0.31129982  0.20652997  0.56556441
   0.18738678  0.95585883  0.47866029
   0.68729307  0.95706035  0.56553437
   0.43393334  0.78853015  0.61101098
   0.68273362  0.61234476  0.16617651
   0.31895823  0.87408105  0.30004555
   0.31213016  0.70580848  0.47853689
   0.93387841  0.28834279  0.61100844
   0.44531625  0.62432871  0.30012899
   0.80814925  0.86298851  0.16664748
   0.56712901  0.20299669  0.21131609
   0.93301506  0.61284722  0.16651231
   0.43715898  0.95581782  0.47852314
   0.55919007  0.37318687  0.78881390
   0.06132932  0.37217587  0.52134145
   0.30733127  0.36462475  0.16656116
   0.69554927  0.12368519  0.30024425
   0.44221462  0.96303644  0.83345534
   0.18551571  0.28746649  0.12403450
   0.18408373  0.28852002  0.25588559
   0.31229615  0.37074313  0.43428349
   0.56233005  0.03202183  0.12429970
   0.43428723  0.28854247  0.61103987
   0.18375539  0.45277148  0.34482695
   0.43413990  0.28686493  0.12410285
   0.68352282  0.78763666  0.25577314
   0.43674034  0.12137907  0.52134244
   0.18827667  0.29680991  0.87607008
   0.19178905  0.12493788  0.65513823
   0.94130571  0.12509031  0.65516953
   0.81633667  0.53776247  0.38882702
   0.06644656  0.03820424  0.38904376
   0.18375321  0.11213481  0.16665417
   0.05894223  0.53834637  0.61105456
   0.93390466  0.28843157  0.25590837
   0.55902451  0.53845801  0.61105833
   0.93682143  0.95725339  0.56545839
   0.69452066  0.62472333  0.30000585
   0.93705289  0.62088370  0.43433971
   0.93351585  0.62473659  0.78872515
   0.56038335  0.70663696  0.69990706
   0.06653409  0.71491380  0.83378875
   0.94496904  0.12316810  0.30002307
   0.93394630  0.78806510  0.61104584
   0.43333808  0.78784607  0.25552560
   0.30957979  0.37302148  0.78880592
   0.43924519  0.45449860  0.21128576
   0.18673537  0.12144930  0.52136247
   0.81009392  0.70697025  0.69986978
   0.05892851  0.03835683  0.61097424
   0.56623310  0.21289386  0.83344841
   0.31166518  0.87170496  0.52135832
   0.68573762  0.28787330  0.12373329
   0.19130488  0.95510254  0.21180235
   0.68395370  0.28865299  0.61104042
   0.30911137  0.03843160  0.61108345
   0.93376952  0.12455227  0.78875319
   0.43649396  0.79699038  0.87619035
   0.81551079  0.04082714  0.74451369
   0.93496278  0.45712578  0.69987943
   0.19126050  0.62492138  0.65521225
   0.31017951  0.70641828  0.69988124
   0.93406784  0.28725430  0.12403992
   0.43717556  0.45561399  0.47837651
   0.06208961  0.70548882  0.47839536
   0.93674250  0.11980404  0.43450386
   0.44447627  0.12399005  0.30044778
   0.18736615  0.12060449  0.43410787
   0.56284250  0.04012898  0.87607239
   0.18685384  0.95720732  0.56546184
   0.68377642  0.78783566  0.12438213
   0.55924018  0.70257741  0.34483738
   0.31639182  0.03734920  0.38876768
   0.68256842  0.11419271  0.16693135
   0.81518239  0.20412403  0.21123743
   0.05997803  0.53771114  0.25563258
   0.56232469  0.70531055  0.47846046
   0.43486101  0.78753253  0.12381618
   0.56947925  0.37234766  0.30008142
   0.43362361  0.95239488  0.34487510
   0.18490701  0.95678165  0.69995541
   0.43182968  0.61315624  0.16612593
   0.93984261  0.45289381  0.21159037
   0.06249290  0.53088263  0.12410712
   0.81175678  0.37179411  0.52133349
   0.94462288  0.62367058  0.29983291
   0.30904379  0.03715070  0.25540202
   0.68393702  0.78853742  0.61101144
   0.19140870  0.46304462  0.83351516
   0.43325884  0.11227276  0.16652668
   0.31158465  0.37164160  0.52137114
   0.43370854  0.62330465  0.78908862
   0.05874125  0.03741934  0.25575739
   0.56223443  0.70713316  0.56551616
   0.94025597  0.29076844  0.74459048
   0.68318576  0.12316055  0.78876524
   0.18971764  0.45286574  0.21108616
   0.94117217  0.78779735  0.38880608
   0.68613722  0.29700748  0.87608919
   0.55676320  0.86321045  0.16604337
   0.43518534  0.45667473  0.69998392
   0.93404128  0.95135799  0.34468950
   0.68642272  0.62125348  0.52123186
   0.06613659  0.87464923  0.65518756
   0.05971303  0.87286909  0.78859823
   0.06613604  0.37469588  0.65518769
   0.68701174  0.45523215  0.47849978
   0.18374854  0.78789664  0.25539978
   0.43673097  0.12108078  0.43420578
   0.81502298  0.03163148  0.12389095
   0.93651063  0.62151481  0.52138645
   0.44123099  0.12472486  0.65511598
   0.81132965  0.53024702  0.12402377
   0.43385539  0.45265585  0.34498947
   0.80939060  0.20268498  0.34494687
   0.30920450  0.70228168  0.34474972
   0.69131078  0.12516762  0.65518790
   0.56997740  0.87358717  0.30022855
   0.06516653  0.54108414  0.74443965
   0.94028967  0.95343524  0.21124905
   0.81640350  0.70420654  0.21146470
   0.06976604  0.87359936  0.30017968
   0.19498992  0.12390854  0.30016501
   0.05855503  0.70241779  0.34474540
   0.80917307  0.03860772  0.61107578
   0.06295929  0.37181519  0.43419241
   0.55935453  0.20321090  0.34468752
   0.81935315  0.37335336  0.30000130
   0.56000915  0.03746654  0.25530691
   0.56632873  0.53784571  0.38901968
   0.06257232  0.20609609  0.47849382
   0.30994383  0.87269839  0.78866780
   0.93500054  0.95705618  0.69984975
   0.06923892  0.37473857  0.29998879
   0.69140855  0.62488031  0.65520686
   0.68673354  0.45697618  0.56542563
   0.44073726  0.95536719  0.21195899
   0.31223865  0.20571272  0.47863791
   0.81245530  0.53988226  0.87587197
   0.68811040  0.62087330  0.43438113
   0.81011565  0.20702770  0.69992907
   0.81234985  0.70575760  0.47852946
   0.81093745  0.87125455  0.43405994
   0.93692049  0.95521976  0.47854730
   0.56225232  0.20554885  0.47854374
   0.18678452  0.62037907  0.43431469
   0.31536648  0.04128589  0.74439857
   0.94115650  0.62485360  0.65511339
   0.56653890  0.71335298  0.83332241
   0.32038974  0.37232496  0.30007440
   0.31524735  0.54130875  0.74442205
   0.18710875  0.45557902  0.47857304
   0.31338252  0.04006984  0.87601975
   0.18503048  0.45697720  0.69995873
   0.56148130  0.37136517  0.52134901
   0.19134159  0.28753943  0.38878892
   0.31510048  0.20464072  0.21109699
   0.06667844  0.70446746  0.21122035
   0.56172756  0.37113865  0.43421957
   0.43655393  0.62157317  0.52128141
   0.81768899  0.71517571  0.83367940
   0.05985033  0.37316273  0.78865199
   0.43717090  0.29707810  0.87624261
   0.31145435  0.03063748  0.12410006
   0.68750430  0.12068696  0.43409735
   0.18365376  0.95236210  0.34483007
   0.06684011  0.21498032  0.83377637
   0.55909120  0.03858013  0.61107825
   0.68900829  0.45393986  0.21168832
   0.19042111  0.79121180  0.74443821
   0.19442356  0.62373168  0.30014640
   0.44129401  0.78775912  0.38903489
   0.43341280  0.28815654  0.25580875
   0.06344186  0.53960186  0.87595647
   0.56589017  0.04127682  0.74443625
   0.18837255  0.79701522  0.87610915
   0.93716841  0.45537130  0.47847370
   0.56555064  0.54119910  0.74441329
   0.81125359  0.20723810  0.56547009
   0.18442626  0.62330145  0.78883436
   0.06762364  0.53858691  0.38894897
   0.06043178  0.70678929  0.69989023
   0.30861991  0.53746132  0.25545397
   0.31561979  0.70433107  0.21210846
   0.30718023  0.86477024  0.16572762
   0.43662173  0.62122911  0.43425479
   0.81828147  0.03949717  0.38900856
   0.93688843  0.29686147  0.87572035
   0.93705907  0.79645316  0.87567497
   0.93455891  0.79146559  0.12447452
   0.56256326  0.52841335  0.12434875
   0.80550251  0.36575327  0.16588026
   0.06178299  0.87114835  0.43424763
   0.93648229  0.12137419  0.52139105
   0.19304128  0.78772286  0.38880485
   0.56589230  0.70444840  0.21206979
Direct configuration=     2
   0.06149758  0.03163886  0.12419289
   0.31614434  0.87426604  0.65519737
   0.18467877  0.12332977  0.78876560
   0.44136583  0.28781116  0.38911297
   0.31716280  0.71296632  0.83346794
   0.81733414  0.21455483  0.83368010
   0.19130919  0.96261960  0.83359585
   0.56228438  0.20687850  0.56559758
   0.06534516  0.04094835  0.74440255
   0.81144003  0.87136158  0.52142583
   0.19011442  0.29100527  0.74443805
   0.93406080  0.45288254  0.34476902
   0.94093601  0.28696578  0.38888231
   0.81303203  0.04004438  0.87585224
   0.18420456  0.78851415  0.61090603
   0.56596872  0.03824018  0.38900089
   0.94174041  0.96318179  0.83375015
   0.31286253  0.54100180  0.87594494
   0.69019976  0.29109141  0.74441644
   0.18213597  0.61456722  0.16642734
   0.81218499  0.20571400  0.47857394
   0.80947156  0.53863916  0.61101921
   0.31185184  0.87103094  0.43431406
   0.81020884  0.03804850  0.25590057
   0.68370698  0.95204402  0.34461475
   0.93219849  0.11365850  0.16660816
   0.06181880  0.87155541  0.52136561
   0.55848388  0.53763653  0.25553797
   0.68619108  0.79650468  0.87604331
   0.55717706  0.36584703  0.16638962
   0.44000965  0.79140032  0.74440334
   0.81155579  0.70662499  0.56555160
   0.55953916  0.87329124  0.78870274
   0.68660755  0.12156254  0.52141818
   0.81579992  0.37462309  0.65516113
   0.94148099  0.46314730  0.83374984
   0.06030662  0.20699341  0.69998674
   0.43518892  0.95673069  0.69984627
   0.31709554  0.21302992  0.83348856
   0.44070085  0.62469178  0.65511735
   0.30940612  0.53851370  0.61100394
   0.93669387  0.45654215  0.56562039
   0.68984699  0.79136769  0.74442453
   0.06419718  0.04028514  0.87585272
   0.69165159  0.78787706  0.38892766
   0.94007888  0.79072712  0.74457937
   0.05971212  0.20369755  0.34481352
   0.68429624  0.45259318  0.34491921
   0.43401142  0.12340401  0.78901694
   0.06523425  0.20471774  0.21121627
   0.05582854  0.36537414  0.16653311
   0.93387808  0.78749590  0.25553016
   0.56027199  0.20662262  0.69992668
   0.68493597  0.95663443  0.69990968
   0.81007379  0.87347313  0.78853224
   0.43687711  0.95720117  0.56545653
   0.80957229  0.37396692  0.78866856
   0.68441266  0.28783528  0.25587624
   0.18696557  0.45671270  0.56550809
   0.05629629  0.86499445  0.16644689
   0.18452437  0.28875325  0.61104396
   0.06208380  0.20715622  0.56540622
   0.31052036  0.20658832  0.69991404
   0.56267177  0.54086516  0.87597194
   0.06198713  0.70651730  0.56559745
   0.68364090  0.62366045  0.78872345
   0.31586398  0.53808142  0.38892140
   0.18676203  0.62162918  0.52141658
   0.56220503  0.87092929  0.43432860
   0.43687599  0.45665009  0.56558648
   0.43992697  0.29149304  0.74447086
   0.82019271  0.87396560  0.30017574
   0.80933875  0.70273858  0.34482494
   0.44172525  0.46268790  0.83352988
   0.68730792  0.95579912  0.47857054
   0.68505971  0.45680746  0.69995564
   0.56179029  0.87187368  0.52142830
   0.56584962  0.37448227  0.65516083
   0.81597917  0.87477616  0.65520634
   0.81139308  0.37145894  0.43401499
   0.80893000  0.53759190  0.25585736
   0.69175478  0.46213110  0.83356801
   0.18592603  0.78695994  0.12410309
   0.69112575  0.28751618  0.38896044
   0.31564017  0.37403591  0.65510864
   0.30972502  0.20306085  0.34462703
   0.81515162  0.54090174  0.74441092
   0.69182183  0.96242980  0.83357229
   0.56580142  0.87432600  0.65516324
   0.31140445  0.70706439  0.56550365
   0.31170611  0.53007370  0.12391127
   0.68925547  0.95465261  0.21175069
   0.31139203  0.20650746  0.56560996
   0.18730661  0.95575215  0.47857650
   0.68726341  0.95692163  0.56559350
   0.43423741  0.78862281  0.61093774
   0.68280623  0.61271861  0.16615332
   0.31850164  0.87384944  0.30005948
   0.31209841  0.70569296  0.47846581
   0.93420454  0.28843580  0.61093351
   0.44461609  0.62396262  0.30014405
   0.80834730  0.86335374  0.16658231
   0.56667016  0.20303518  0.21137127
   0.93321451  0.61330558  0.16649925
   0.43716349  0.95561022  0.47846221
   0.55952541  0.37329086  0.78874103
   0.06137979  0.37224754  0.52140345
   0.30751998  0.36481227  0.16645188
   0.69485580  0.12342423  0.30024750
   0.44190514  0.96277086  0.83354619
   0.18540604  0.28678734  0.12412472
   0.18445452  0.28820036  0.25586653
   0.31236412  0.37081021  0.43426237
   0.56209325  0.03241008  0.12430588
   0.43452674  0.28865921  0.61096209
   0.18426339  0.45296255  0.34482428
   0.43408036  0.28610166  0.12418320
   0.68401529  0.78767273  0.25579997
   0.43674175  0.12165976  0.52140964
   0.18835877  0.29627715  0.87603844
   0.19126718  0.12476227  0.65514480
   0.94094497  0.12489225  0.65516134
   0.81604987  0.53772389  0.38889812
   0.06618340  0.03824615  0.38908930
   0.18386267  0.11260390  0.16663548
   0.05925389  0.53845113  0.61098381
   0.93431997  0.28825554  0.25587057
   0.55930837  0.53860314  0.61097948
   0.93680415  0.95703578  0.56551765
   0.69395503  0.62432279  0.30005254
   0.93712475  0.62094886  0.43429402
   0.93394876  0.62478405  0.78868190
   0.56053790  0.70662188  0.69991307
   0.06625379  0.71451415  0.83379308
   0.94440108  0.12312564  0.30005258
   0.93422851  0.78823246  0.61098244
   0.43387623  0.78782063  0.25559979
   0.30981118  0.37316997  0.78873158
   0.43918888  0.45438207  0.21131773
   0.18675107  0.12165915  0.52142857
   0.81032895  0.70696100  0.69988300
   0.05920642  0.03852763  0.61090474
   0.56607102  0.21270279  0.83350518
   0.31171265  0.87179194  0.52143637
   0.68574345  0.28705683  0.12381271
   0.19086749  0.95512836  0.21178142
   0.68423590  0.28875955  0.61097748
   0.30936131  0.03854273  0.61100055
   0.93414597  0.12469452  0.78870637
   0.43672849  0.79638128  0.87612218
   0.81524280  0.04089214  0.74445536
   0.93522408  0.45710310  0.69989676
   0.19086963  0.62477328  0.65520234
   0.31042729  0.70645873  0.69989471
   0.93411987  0.28654245  0.12409098
   0.43716297  0.45542868  0.47834002
   0.06212876  0.70534154  0.47837144
   0.93682936  0.12007675  0.43448431
   0.44401352  0.12362797  0.30040572
   0.18732565  0.12069727  0.43409255
   0.56308045  0.04084198  0.87599420
   0.18677526  0.95706223  0.56553255
   0.68383096  0.78706146  0.12441304
   0.55967934  0.70273375  0.34485251
   0.31618024  0.03744114  0.38885845
   0.68291486  0.11444119  0.16688429
   0.81502897  0.20389471  0.21129218
   0.06011847  0.53769826  0.25562132
   0.56231878  0.70533113  0.47841577
   0.43482816  0.78692225  0.12386061
   0.56886811  0.37229649  0.30011119
   0.43415010  0.95266063  0.34486419
   0.18514981  0.95681729  0.69996483
   0.43210892  0.61361904  0.16612854
   0.93960797  0.45291206  0.21161671
   0.06229823  0.53128280  0.12414133
   0.81176324  0.37198218  0.52140368
   0.94407732  0.62352764  0.29986556
   0.30950168  0.03718145  0.25545487
   0.68424308  0.78863202  0.61094191
   0.19115155  0.46283353  0.83360190
   0.43349674  0.11267011  0.16651294
   0.31157158  0.37180699  0.52143603
   0.43406606  0.62349123  0.78899850
   0.05915038  0.03744570  0.25574599
   0.56214641  0.70698043  0.56556491
   0.94003828  0.29083374  0.74453367
   0.68363402  0.12341079  0.78870372
   0.18939422  0.45298655  0.21116051
   0.94087069  0.78774629  0.38888500
   0.68629548  0.29649111  0.87603809
   0.55672176  0.86362088  0.16606125
   0.43537295  0.45668702  0.69999028
   0.93458945  0.95177181  0.34470986
   0.68643970  0.62143324  0.52131810
   0.06576752  0.87455112  0.65517598
   0.06000667  0.87317354  0.78858124
   0.06577144  0.37458261  0.65519033
   0.68701466  0.45513239  0.47841887
   0.18411221  0.78787252  0.25547760
   0.43684868  0.12113183  0.43420151
   0.81444719  0.03222158  0.12396724
   0.93653088  0.62166604  0.52143849
   0.44086231  0.12457026  0.65512005
   0.81136221  0.53087243  0.12402034
   0.43440981  0.45289364  0.34497199
   0.80979308  0.20283848  0.34493565
   0.30972776  0.70251140  0.34476245
   0.69091922  0.12496601  0.65517928
   0.56933066  0.87341061  0.30021432
   0.06496544  0.54104256  0.74439492
   0.94006574  0.95363386  0.21131282
   0.81603069  0.70398968  0.21147962
   0.06916143  0.87341954  0.30018412
   0.19433602  0.12372613  0.30014229
   0.05913028  0.70260854  0.34475974
   0.80948760  0.03870800  0.61099064
   0.06285446  0.37165469  0.43416199
   0.55982696  0.20328517  0.34472355
   0.81881155  0.37330175  0.30003172
   0.56035854  0.03753609  0.25538772
   0.56602282  0.53777984  0.38906554
   0.06253419  0.20583161  0.47845494
   0.31014017  0.87292721  0.78861581
   0.93526333  0.95707719  0.69986569
   0.06879294  0.37437520  0.30002387
   0.69098516  0.62474573  0.65519759
   0.68670916  0.45684956  0.56548258
   0.44041067  0.95527889  0.21191340
   0.31223397  0.20554501  0.47855370
   0.81243629  0.54056707  0.87582147
   0.68804372  0.62084737  0.43433353
   0.81037514  0.20702572  0.69993563
   0.81233496  0.70562036  0.47846811
   0.81102908  0.87133626  0.43407340
   0.93698820  0.95510884  0.47850471
   0.56226600  0.20542428  0.47847414
   0.18686078  0.62046980  0.43429277
   0.31509867  0.04129618  0.74437409
   0.94078633  0.62476440  0.65511222
   0.56631875  0.71304979  0.83339821
   0.31970946  0.37234546  0.30010601
   0.31498336  0.54127617  0.74439324
   0.18721346  0.45545475  0.47850080
   0.31336624  0.04082940  0.87595273
   0.18525860  0.45696755  0.69996949
   0.56157636  0.37160640  0.52141551
   0.19100977  0.28760347  0.38887503
   0.31485886  0.20445962  0.21115623
   0.06628840  0.70419966  0.21125038
   0.56183585  0.37114390  0.43421009
   0.43661613  0.62174224  0.52133745
   0.81734900  0.71472406  0.83370032
   0.06008762  0.37337717  0.78862269
   0.43726766  0.29647998  0.87616932
   0.31145884  0.03119308  0.12409307
   0.68754086  0.12086175  0.43410041
   0.18416917  0.95259271  0.34483159
   0.06647392  0.21457111  0.83378361
   0.55940213  0.03867475  0.61099444
   0.68889058  0.45382023  0.21168537
   0.19014382  0.79121716  0.74440113
   0.19391284  0.62351759  0.30014348
   0.44112268  0.78772968  0.38908493
   0.43396066  0.28793660  0.25579702
   0.06368149  0.54034599  0.87590111
   0.56553957  0.04129685  0.74440097
   0.18842663  0.79645950  0.87606482
   0.93713389  0.45524679  0.47841515
   0.56525465  0.54118678  0.74437985
   0.81132752  0.20709339  0.56553203
   0.18470789  0.62347587  0.78875954
   0.06722503  0.53854690  0.38901511
   0.06060886  0.70681209  0.69989578
   0.30902277  0.53739999  0.25546975
   0.31519504  0.70406813  0.21203821
   0.30743459  0.86495627  0.16571925
   0.43664793  0.62118982  0.43422786
   0.81784836  0.03927063  0.38905769
   0.93702370  0.29631047  0.87571930
   0.93715548  0.79597497  0.87569095
   0.93452973  0.79038066  0.12453597
   0.56244157  0.52910015  0.12435880
   0.80580659  0.36573376  0.16583176
   0.06181715  0.87125865  0.43422812
   0.93658791  0.12161653  0.52142479
   0.19262596  0.78759844  0.38885428
   0.56572714  0.70424248  0.21202555
Direct configuration=     3
   0.06152375  0.03367431  0.12434786
   0.31475940  0.87408397  0.65517179
   0.18560579  0.12401229  0.78854503
   0.44088915  0.28803882  0.38925685
   0.31585431  0.71205570  0.83366625
   0.81643717  0.21327266  0.83375010
   0.19053639  0.96210413  0.83384226
   0.56191566  0.20645652  0.56573089
   0.06452744  0.04102083  0.74426820
   0.81125097  0.87204973  0.52169210
   0.18938337  0.29118606  0.74432464
   0.93563174  0.45343156  0.34480328
   0.94017055  0.28747500  0.38910461
   0.81283933  0.04229964  0.87567807
   0.18510035  0.78891822  0.61071758
   0.56515227  0.03815436  0.38920006
   0.94112364  0.96249981  0.83388345
   0.31303393  0.54305117  0.87574717
   0.68930233  0.29119709  0.74431302
   0.18351811  0.61565663  0.16623373
   0.81195299  0.20533176  0.47832052
   0.81014915  0.53885637  0.61079089
   0.31237260  0.87146094  0.43424636
   0.81104795  0.03763023  0.25583867
   0.68550322  0.95326188  0.34475145
   0.93301709  0.11459968  0.16640017
   0.06199117  0.87205300  0.52157720
   0.56016460  0.53743695  0.25561821
   0.68669334  0.79490260  0.87586587
   0.55804119  0.36617622  0.16617402
   0.43928183  0.79151643  0.74428086
   0.81162590  0.70646310  0.56569934
   0.56050531  0.87375730  0.78848981
   0.68651384  0.12199420  0.52165925
   0.81467111  0.37429195  0.65516505
   0.94096215  0.46240379  0.83389569
   0.06103080  0.20703259  0.69998155
   0.43592320  0.95667776  0.69991355
   0.31587293  0.21207602  0.83368748
   0.43970851  0.62421453  0.65511525
   0.31030228  0.53893087  0.61076227
   0.93676746  0.45611221  0.56576381
   0.68922708  0.79125138  0.74427486
   0.06465828  0.04265373  0.87570193
   0.69063162  0.78790777  0.38912379
   0.93939978  0.79086450  0.74435315
   0.06113536  0.20395718  0.34481094
   0.68589722  0.45323804  0.34484899
   0.43512646  0.12412155  0.78873972
   0.06420712  0.20347572  0.21140066
   0.05687881  0.36554847  0.16622099
   0.93528191  0.78769813  0.25559326
   0.56086132  0.20679180  0.69997122
   0.68591623  0.95686863  0.69997022
   0.81065767  0.87426015  0.78849895
   0.43688944  0.95660680  0.56567044
   0.81044167  0.37420344  0.78853253
   0.68550279  0.28751584  0.25580563
   0.18682183  0.45639919  0.56569091
   0.05730549  0.86568745  0.16628778
   0.18532148  0.28899991  0.61083312
   0.06182611  0.20658418  0.56562625
   0.31116104  0.20677914  0.69995091
   0.56346646  0.54296367  0.87575616
   0.06174304  0.70629798  0.56571392
   0.68493917  0.62410747  0.78853589
   0.31528096  0.53780696  0.38914495
   0.18688273  0.62216319  0.52164765
   0.56230365  0.87144714  0.43421688
   0.43680956  0.45639993  0.56574997
   0.43921925  0.29158257  0.74432967
   0.81769369  0.87336542  0.30015805
   0.81068062  0.70310941  0.34484654
   0.44091195  0.46194631  0.83381017
   0.68746445  0.95510754  0.47829479
   0.68593287  0.45699690  0.69998226
   0.56176228  0.87203951  0.52162955
   0.56476929  0.37430970  0.65512803
   0.81479966  0.87431465  0.65516370
   0.81162084  0.37105431  0.43401800
   0.81027697  0.53726549  0.25585693
   0.69104353  0.46182836  0.83383422
   0.18627357  0.78409446  0.12418366
   0.69019599  0.28770470  0.38915056
   0.31452014  0.37412300  0.65511372
   0.31114381  0.20350537  0.34477570
   0.81440113  0.54098904  0.74425422
   0.69128857  0.96191536  0.83383525
   0.56468725  0.87409824  0.65514073
   0.31168677  0.70660514  0.56569234
   0.31055268  0.53249110  0.12407259
   0.68880085  0.95465397  0.21173996
   0.31166867  0.20643991  0.56574662
   0.18706607  0.95543210  0.47832515
   0.68717443  0.95650546  0.56577091
   0.43514961  0.78890079  0.61071804
   0.68302405  0.61384014  0.16608373
   0.31713188  0.87315464  0.30010127
   0.31200317  0.70534641  0.47825257
   0.93518292  0.28871485  0.61070873
   0.44251564  0.62286435  0.30018923
   0.80894145  0.86444940  0.16638679
   0.56529360  0.20315064  0.21153682
   0.93381287  0.61468066  0.16646007
   0.43717702  0.95498739  0.47827943
   0.56053145  0.37360284  0.78852240
   0.06153120  0.37246254  0.52158945
   0.30808610  0.36537485  0.16612406
   0.69277539  0.12264133  0.30025724
   0.44097669  0.96197411  0.83381876
   0.18507703  0.28474988  0.12439538
   0.18556688  0.28724139  0.25580936
   0.31256802  0.37101143  0.43419904
   0.56138283  0.03357483  0.12432442
   0.43524529  0.28900943  0.61072874
   0.18578738  0.45353576  0.34481626
   0.43390173  0.28381185  0.12442422
   0.68549273  0.78778094  0.25588043
   0.43674600  0.12250182  0.52161124
   0.18860509  0.29467888  0.87594350
   0.18970158  0.12423543  0.65516450
   0.93986276  0.12429806  0.65513677
   0.81518949  0.53760815  0.38911140
   0.06539393  0.03837188  0.38922594
   0.18419105  0.11401117  0.16657943
   0.06018885  0.53876542  0.61077158
   0.93556591  0.28772745  0.25575716
   0.56015996  0.53903851  0.61074296
   0.93675231  0.95638294  0.56569546
   0.69225813  0.62312118  0.30019262
   0.93734031  0.62114434  0.43415696
   0.93524749  0.62492643  0.78855218
   0.56100156  0.70657666  0.69993111
   0.06541288  0.71331517  0.83380607
   0.94269719  0.12299825  0.30014110
   0.93507515  0.78873453  0.61079225
   0.43549068  0.78774428  0.25582234
   0.31050536  0.37361544  0.78850857
   0.43901994  0.45403249  0.21141367
   0.18679815  0.12228870  0.52162686
   0.81103406  0.70693324  0.69992267
   0.06004017  0.03904003  0.61069622
   0.56558477  0.21212959  0.83367548
   0.31185506  0.87205288  0.52167053
   0.68576091  0.28460743  0.12405095
   0.18955534  0.95520581  0.21171864
   0.68508248  0.28907924  0.61078866
   0.31011114  0.03887612  0.61075185
   0.93527530  0.12512126  0.78856593
   0.43743208  0.79455398  0.87591768
   0.81443884  0.04108716  0.74428036
   0.93600798  0.45703504  0.69994875
   0.18969702  0.62432898  0.65517262
   0.31117064  0.70658008  0.69993512
   0.93427599  0.28440688  0.12424418
   0.43712518  0.45487275  0.47823058
   0.06224620  0.70489970  0.47829965
   0.93708995  0.12089489  0.43442566
   0.44262529  0.12254173  0.30027955
   0.18720413  0.12097561  0.43404660
   0.56379431  0.04298100  0.87575961
   0.18653955  0.95662695  0.56574468
   0.68399460  0.78473887  0.12450576
   0.56099680  0.70320280  0.34489790
   0.31554548  0.03771698  0.38913079
   0.68395418  0.11518664  0.16674311
   0.81456870  0.20320674  0.21145644
   0.06053977  0.53765960  0.25558754
   0.56230106  0.70539288  0.47828170
   0.43472961  0.78509142  0.12399390
   0.56703469  0.37214297  0.30020048
   0.43572956  0.95345790  0.34483145
   0.18587818  0.95692420  0.69999307
   0.43294663  0.61500744  0.16613636
   0.93890403  0.45296683  0.21169572
   0.06171423  0.53248330  0.12424397
   0.81178261  0.37254641  0.52161424
   0.94244066  0.62309882  0.29996353
   0.31087534  0.03727372  0.25561342
   0.68516125  0.78891582  0.61073331
   0.19038012  0.46220024  0.83386214
   0.43421042  0.11386216  0.16647172
   0.31153235  0.37230314  0.52163069
   0.43513861  0.62405100  0.78872813
   0.06037777  0.03752477  0.25571178
   0.56188235  0.70652223  0.56571116
   0.93938523  0.29102963  0.74436322
   0.68497880  0.12416150  0.78851914
   0.18842398  0.45334899  0.21138354
   0.93996626  0.78759311  0.38912173
   0.68677024  0.29494201  0.87588481
   0.55659746  0.86485217  0.16611489
   0.43593580  0.45672389  0.70000937
   0.93623397  0.95301327  0.34477093
   0.68649064  0.62197251  0.52157681
   0.06466029  0.87425679  0.65514124
   0.06088760  0.87408688  0.78853028
   0.06467766  0.37424279  0.65519825
   0.68702339  0.45483311  0.47817612
   0.18520322  0.78780019  0.25571105
   0.43720183  0.12128497  0.43418867
   0.81271984  0.03399189  0.12419612
   0.93659166  0.62211971  0.52159461
   0.43975628  0.12410646  0.65513227
   0.81145990  0.53274867  0.12401007
   0.43607308  0.45360702  0.34491954