 288 288   0   0
  0.1280206E+02  0.9726678E-09  0.8423550E-09  0.4500000E-08  0.2500000E-15
  1.000000000000000E-004
  CAR 
 unknown system                          
      6.74829289     -6.04784681  301      4.29540584      1.00000000
     -6.048  0.0000E+00  0.0000E+00
     -6.005  0.0000E+00  0.0000E+00
     -5.963  0.0000E+00  0.0000E+00
     -5.920  0.0000E+00  0.0000E+00
     -5.877  0.0000E+00  0.0000E+00
     -5.835  0.0000E+00  0.0000E+00
     -5.792  0.0000E+00  0.0000E+00
     -5.749  0.0000E+00  0.0000E+00
     -5.707  0.0000E+00  0.0000E+00
     -5.664  0.0000E+00  0.0000E+00
     -5.621  0.0000E+00  0.0000E+00
     -5.579  0.0000E+00  0.0000E+00
     -5.536  0.0000E+00  0.0000E+00
     -5.493  0.0000E+00  0.0000E+00
     -5.451  0.0000E+00  0.0000E+00
     -5.408  0.1627E-15  0.6939E-17
     -5.365  0.3579E-14  0.1596E-15
     -5.323  0.7721E-13  0.3453E-14
     -5.280  0.1407E-11  0.6349E-13
     -5.237  0.2188E-10  0.9967E-12
     -5.195  0.2899E-09  0.1336E-10
     -5.152  0.3274E-08  0.1530E-09
     -5.109  0.3154E-07  0.1498E-08
     -5.067  0.2592E-06  0.1255E-07
     -5.024  0.1819E-05  0.9013E-07
     -4.982  0.1091E-04  0.5554E-06
     -4.939  0.5599E-04  0.2944E-05
     -4.896  0.2466E-03  0.1346E-04
     -4.854  0.9349E-03  0.5334E-04
     -4.811  0.3065E-02  0.1841E-03
     -4.768  0.8749E-02  0.5573E-03
     -4.726  0.2194E-01  0.1493E-02
     -4.683  0.4885E-01  0.3577E-02
     -4.640  0.9780E-01  0.7748E-02
     -4.598  0.1782E+00  0.1535E-01
     -4.555  0.2986E+00  0.2809E-01
     -4.512  0.4639E+00  0.4788E-01
     -4.470  0.6717E+00  0.7653E-01
     -4.427  0.9105E+00  0.1154E+00
     -4.384  0.1160E+01  0.1648E+00
     -4.342  0.1393E+01  0.2243E+00
     -4.299  0.1586E+01  0.2919E+00
     -4.256  0.1721E+01  0.3653E+00
     -4.214  0.1800E+01  0.4421E+00
     -4.171  0.1840E+01  0.5206E+00
     -4.128  0.1879E+01  0.6007E+00
     -4.086  0.1955E+01  0.6841E+00
     -4.043  0.2100E+01  0.7737E+00
     -4.000  0.2322E+01  0.8728E+00
     -3.958  0.2600E+01  0.9837E+00
     -3.915  0.2885E+01  0.1107E+01
     -3.873  0.3120E+01  0.1240E+01
     -3.830  0.3254E+01  0.1379E+01
     -3.787  0.3270E+01  0.1518E+01
     -3.745  0.3186E+01  0.1654E+01
     -3.702  0.3062E+01  0.1785E+01
     -3.659  0.2971E+01  0.1911E+01
     -3.617  0.2977E+01  0.2038E+01
     -3.574  0.3108E+01  0.2171E+01
     -3.531  0.3349E+01  0.2314E+01
     -3.489  0.3646E+01  0.2469E+01
     -3.446  0.3930E+01  0.2637E+01
     -3.403  0.4139E+01  0.2813E+01
     -3.361  0.4239E+01  0.2994E+01
     -3.318  0.4240E+01  0.3175E+01
     -3.275  0.4181E+01  0.3353E+01
     -3.233  0.4123E+01  0.3529E+01
     -3.190  0.4121E+01  0.3705E+01
     -3.147  0.4211E+01  0.3885E+01
     -3.105  0.4395E+01  0.4072E+01
     -3.062  0.4644E+01  0.4270E+01
     -3.019  0.4913E+01  0.4480E+01
     -2.977  0.5150E+01  0.4699E+01
     -2.934  0.5316E+01  0.4926E+01
     -2.891  0.5397E+01  0.5156E+01
     -2.849  0.5413E+01  0.5387E+01
     -2.806  0.5408E+01  0.5618E+01
     -2.764  0.5431E+01  0.5850E+01
     -2.721  0.5498E+01  0.6084E+01
     -2.678  0.5581E+01  0.6322E+01
     -2.636  0.5624E+01  0.6562E+01
     -2.593  0.5583E+01  0.6800E+01
     -2.550  0.5478E+01  0.7034E+01
     -2.508  0.5401E+01  0.7264E+01
     -2.465  0.5478E+01  0.7498E+01
     -2.422  0.5799E+01  0.7745E+01
     -2.380  0.6349E+01  0.8016E+01
     -2.337  0.6988E+01  0.8314E+01
     -2.294  0.7499E+01  0.8634E+01
     -2.252  0.7694E+01  0.8962E+01
     -2.209  0.7523E+01  0.9283E+01
     -2.166  0.7119E+01  0.9587E+01
     -2.124  0.6738E+01  0.9874E+01
     -2.081  0.6624E+01  0.1016E+02
     -2.038  0.6892E+01  0.1045E+02
     -1.996  0.7475E+01  0.1077E+02
     -1.953  0.8168E+01  0.1112E+02
     -1.910  0.8727E+01  0.1149E+02
     -1.868  0.8986E+01  0.1187E+02
     -1.825  0.8936E+01  0.1225E+02
     -1.782  0.8721E+01  0.1263E+02
     -1.740  0.8543E+01  0.1299E+02
     -1.697  0.8547E+01  0.1336E+02
     -1.655  0.8750E+01  0.1373E+02
     -1.612  0.9072E+01  0.1412E+02
     -1.569  0.9406E+01  0.1452E+02
     -1.527  0.9688E+01  0.1493E+02
     -1.484  0.9919E+01  0.1535E+02
     -1.441  0.1012E+02  0.1578E+02
     -1.399  0.1031E+02  0.1622E+02
     -1.356  0.1046E+02  0.1667E+02
     -1.313  0.1063E+02  0.1712E+02
     -1.271  0.1094E+02  0.1759E+02
     -1.228  0.1155E+02  0.1808E+02
     -1.185  0.1250E+02  0.1862E+02
     -1.143  0.1367E+02  0.1920E+02
     -1.100  0.1473E+02  0.1983E+02
     -1.057  0.1536E+02  0.2048E+02
     -1.015  0.1550E+02  0.2114E+02
     -0.972  0.1540E+02  0.2180E+02
     -0.929  0.1550E+02  0.2246E+02
     -0.887  0.1616E+02  0.2315E+02
     -0.844  0.1752E+02  0.2390E+02
     -0.801  0.1946E+02  0.2473E+02
     -0.759  0.2182E+02  0.2566E+02
     -0.716  0.2460E+02  0.2671E+02
     -0.673  0.2797E+02  0.2790E+02
     -0.631  0.3204E+02  0.2927E+02
     -0.588  0.3662E+02  0.3083E+02
     -0.546  0.4118E+02  0.3259E+02
     -0.503  0.4511E+02  0.3451E+02
     -0.460  0.4815E+02  0.3656E+02
     -0.418  0.5037E+02  0.3871E+02
     -0.375  0.5212E+02  0.4094E+02
     -0.332  0.5364E+02  0.4322E+02
     -0.290  0.5497E+02  0.4557E+02
     -0.247  0.5601E+02  0.4796E+02
     -0.204  0.5668E+02  0.5038E+02
     -0.162  0.5700E+02  0.5281E+02
     -0.119  0.5713E+02  0.5524E+02
     -0.076  0.5731E+02  0.5769E+02
     -0.034  0.5771E+02  0.6015E+02
      0.009  0.5847E+02  0.6264E+02
      0.052  0.5975E+02  0.6519E+02
      0.094  0.6173E+02  0.6783E+02
      0.137  0.6449E+02  0.7058E+02
      0.180  0.6786E+02  0.7347E+02
      0.222  0.7147E+02  0.7652E+02
      0.265  0.7491E+02  0.7971E+02
      0.308  0.7791E+02  0.8304E+02
      0.350  0.8039E+02  0.8647E+02
      0.393  0.8240E+02  0.8998E+02
      0.436  0.8398E+02  0.9356E+02
      0.478  0.8517E+02  0.9720E+02
      0.521  0.8596E+02  0.1009E+03
      0.563  0.8635E+02  0.1045E+03
      0.606  0.8636E+02  0.1082E+03
      0.649  0.8600E+02  0.1119E+03
      0.691  0.8520E+02  0.1155E+03
      0.734  0.8390E+02  0.1191E+03
      0.777  0.8210E+02  0.1226E+03
      0.819  0.8004E+02  0.1260E+03
      0.862  0.7812E+02  0.1294E+03
      0.905  0.7672E+02  0.1326E+03
      0.947  0.7595E+02  0.1359E+03
      0.990  0.7564E+02  0.1391E+03
      1.033  0.7545E+02  0.1423E+03
      1.075  0.7510E+02  0.1455E+03
      1.118  0.7452E+02  0.1487E+03
      1.161  0.7387E+02  0.1518E+03
      1.203  0.7342E+02  0.1550E+03
      1.246  0.7335E+02  0.1581E+03
      1.289  0.7357E+02  0.1612E+03
      1.331  0.7372E+02  0.1644E+03
      1.374  0.7339E+02  0.1675E+03
      1.417  0.7239E+02  0.1706E+03
      1.459  0.7093E+02  0.1736E+03
      1.502  0.6954E+02  0.1766E+03
      1.545  0.6878E+02  0.1795E+03
      1.587  0.6904E+02  0.1825E+03
      1.630  0.7035E+02  0.1855E+03
      1.672  0.7246E+02  0.1886E+03
      1.715  0.7497E+02  0.1918E+03
      1.758  0.7750E+02  0.1951E+03
      1.800  0.7982E+02  0.1985E+03
      1.843  0.8183E+02  0.2020E+03
      1.886  0.8360E+02  0.2055E+03
      1.928  0.8518E+02  0.2092E+03
      1.971  0.8665E+02  0.2129E+03
      2.014  0.8809E+02  0.2166E+03
      2.056  0.8953E+02  0.2204E+03
      2.099  0.9099E+02  0.2243E+03
      2.142  0.9246E+02  0.2283E+03
      2.184  0.9393E+02  0.2323E+03
      2.227  0.9549E+02  0.2363E+03
      2.270  0.9738E+02  0.2405E+03
      2.312  0.9991E+02  0.2448E+03
      2.355  0.1033E+03  0.2492E+03
      2.398  0.1074E+03  0.2537E+03
      2.440  0.1119E+03  0.2585E+03
      2.483  0.1165E+03  0.2635E+03
      2.526  0.1206E+03  0.2686E+03
      2.568  0.1242E+03  0.2739E+03
      2.611  0.1269E+03  0.2793E+03
      2.654  0.1287E+03  0.2848E+03
      2.696  0.1295E+03  0.2904E+03
      2.739  0.1299E+03  0.2959E+03
      2.781  0.1304E+03  0.3015E+03
      2.824  0.1317E+03  0.3071E+03
      2.867  0.1339E+03  0.3128E+03
      2.909  0.1367E+03  0.3186E+03
      2.952  0.1388E+03  0.3245E+03
      2.995  0.1387E+03  0.3305E+03
      3.037  0.1355E+03  0.3362E+03
      3.080  0.1291E+03  0.3417E+03
      3.123  0.1205E+03  0.3469E+03
      3.165  0.1114E+03  0.3516E+03
      3.208  0.1033E+03  0.3560E+03
      3.251  0.9732E+02  0.3602E+03
      3.293  0.9365E+02  0.3642E+03
      3.336  0.9195E+02  0.3681E+03
      3.379  0.9149E+02  0.3720E+03
      3.421  0.9139E+02  0.3759E+03
      3.464  0.9092E+02  0.3798E+03
      3.507  0.8965E+02  0.3836E+03
      3.549  0.8765E+02  0.3873E+03
      3.592  0.8553E+02  0.3910E+03
      3.635  0.8421E+02  0.3946E+03
      3.677  0.8447E+02  0.3982E+03
      3.720  0.8650E+02  0.4019E+03
      3.763  0.8981E+02  0.4057E+03
      3.805  0.9348E+02  0.4097E+03
      3.848  0.9669E+02  0.4138E+03
      3.890  0.9911E+02  0.4180E+03
      3.933  0.1009E+03  0.4223E+03
      3.976  0.1022E+03  0.4267E+03
      4.018  0.1033E+03  0.4311E+03
      4.061  0.1040E+03  0.4355E+03
      4.104  0.1040E+03  0.4400E+03
      4.146  0.1034E+03  0.4444E+03
      4.189  0.1023E+03  0.4488E+03
      4.232  0.1010E+03  0.4531E+03
      4.274  0.9972E+02  0.4573E+03
      4.317  0.9884E+02  0.4615E+03
      4.360  0.9851E+02  0.4657E+03
      4.402  0.9872E+02  0.4699E+03
      4.445  0.9922E+02  0.4742E+03
      4.488  0.9963E+02  0.4784E+03
      4.530  0.9965E+02  0.4827E+03
      4.573  0.9925E+02  0.4869E+03
      4.616  0.9873E+02  0.4911E+03
      4.658  0.9859E+02  0.4953E+03
      4.701  0.9924E+02  0.4996E+03
      4.744  0.1009E+03  0.5039E+03
      4.786  0.1033E+03  0.5083E+03
      4.829  0.1061E+03  0.5128E+03
      4.872  0.1090E+03  0.5174E+03
      4.914  0.1114E+03  0.5222E+03
      4.957  0.1131E+03  0.5270E+03
      4.999  0.1130E+03  0.5318E+03
      5.042  0.1101E+03  0.5365E+03
      5.085  0.1032E+03  0.5409E+03
      5.127  0.9154E+02  0.5448E+03
      5.170  0.7577E+02  0.5481E+03
      5.213  0.5773E+02  0.5505E+03
      5.255  0.4001E+02  0.5522E+03
      5.298  0.2498E+02  0.5533E+03
      5.341  0.1393E+02  0.5539E+03
      5.383  0.6897E+01  0.5542E+03
      5.426  0.3015E+01  0.5543E+03
      5.469  0.1158E+01  0.5544E+03
      5.511  0.3900E+00  0.5544E+03
      5.554  0.1147E+00  0.5544E+03
      5.597  0.2939E-01  0.5544E+03
      5.639  0.6546E-02  0.5544E+03
      5.682  0.1265E-02  0.5544E+03
      5.725  0.2119E-03  0.5544E+03
      5.767  0.3068E-04  0.5544E+03
      5.810  0.3834E-05  0.5544E+03
      5.853  0.4133E-06  0.5544E+03
      5.895  0.3835E-07  0.5544E+03
      5.938  0.3061E-08  0.5544E+03
      5.981  0.2099E-09  0.5544E+03
      6.023  0.1236E-10  0.5544E+03
      6.066  0.6233E-12  0.5544E+03
      6.108  0.2518E-13  0.5544E+03
      6.151  0.7158E-15  0.5544E+03
      6.194  0.0000E+00  0.5544E+03
      6.236  0.0000E+00  0.5544E+03
      6.279  0.0000E+00  0.5544E+03
      6.322  0.0000E+00  0.5544E+03
      6.364  0.0000E+00  0.5544E+03
      6.407  0.0000E+00  0.5544E+03
      6.450  0.0000E+00  0.5544E+03
      6.492  0.0000E+00  0.5544E+03
      6.535  0.0000E+00  0.5544E+03
      6.578  0.0000E+00  0.5544E+03
      6.620  0.0000E+00  0.5544E+03
      6.663  0.0000E+00  0.5544E+03
      6.706  0.0000E+00  0.5544E+03
      6.748  0.0000E+00  0.5544E+03
