       N       E                     dE             d eps       ncg     rms          rms(c)
DAV:   1     0.292351972118E+05    0.29235E+05   -0.86594E+05 27944   0.197E+03
DAV:   2     0.119720398075E+04   -0.28038E+05   -0.27425E+05 27720   0.605E+02
DAV:   3    -0.194140694139E+04   -0.31386E+04   -0.27268E+04 39102   0.280E+02
DAV:   4    -0.261136455800E+04   -0.66996E+03   -0.61011E+03 50932   0.977E+01
DAV:   5    -0.273143175792E+04   -0.12007E+03   -0.11246E+03 48356   0.398E+01    0.203E+02
RMM:   6    -0.696421765538E+04   -0.42328E+04   -0.15424E+04 48788   0.273E+02    0.787E+02
RMM:   7    -0.636737487169E+04    0.59684E+03   -0.78826E+03 49803   0.124E+02    0.592E+02
RMM:   8    -0.836250904742E+04   -0.19951E+04   -0.20862E+04 38723   0.403E+02    0.120E+03
RMM:   9    -0.105168383840E+05   -0.21543E+04   -0.17061E+04 46374   0.243E+02    0.121E+03
RMM:  10    -0.125762095013E+05   -0.20594E+04   -0.12364E+04 47564   0.281E+02    0.164E+03
RMM:  11    -0.140805338596E+05   -0.15043E+04   -0.13900E+04 48386   0.265E+02    0.113E+03
RMM:  12    -0.142393861386E+05   -0.15885E+03   -0.21031E+04 48193   0.296E+02    0.107E+03
RMM:  13    -0.101331584333E+05    0.41062E+04   -0.83845E+03 44651   0.173E+02    0.932E+02
RMM:  14    -0.896841146814E+04    0.11647E+04   -0.65452E+03 46960   0.145E+02    0.691E+02
RMM:  15    -0.689562244195E+04    0.20728E+04   -0.41103E+03 27978   0.126E+02    0.588E+02
RMM:  16    -0.494006935963E+04    0.19556E+04   -0.44349E+03 37407   0.157E+02    0.460E+02
RMM:  17    -0.338762965491E+04    0.15524E+04   -0.42676E+03 43636   0.776E+01    0.370E+02
RMM:  18    -0.296772796346E+04    0.41990E+03   -0.34861E+03 43138   0.684E+01    0.281E+02
RMM:  19    -0.258537183004E+04    0.38236E+03   -0.27434E+03 48766   0.590E+01    0.206E+02
RMM:  20    -0.256087343241E+04    0.24498E+02   -0.18411E+03 49055   0.661E+01    0.268E+02
RMM:  21    -0.233475899142E+04    0.22611E+03   -0.16469E+03 49513   0.468E+01    0.170E+02
RMM:  22    -0.259682059068E+04   -0.26206E+03   -0.15813E+03 50868   0.602E+01    0.202E+02
RMM:  23    -0.258534897014E+04    0.11472E+02   -0.10936E+03 50128   0.462E+01    0.174E+02
RMM:  24    -0.262358267799E+04   -0.38234E+02   -0.51795E+02 51455   0.435E+01    0.145E+02
RMM:  25    -0.269254924774E+04   -0.68967E+02   -0.68839E+02 47883   0.363E+01    0.159E+02
RMM:  26    -0.271034652557E+04   -0.17797E+02   -0.40849E+02 51153   0.326E+01    0.152E+02
RMM:  27    -0.272646387387E+04   -0.16117E+02   -0.34530E+02 49766   0.239E+01    0.153E+02
RMM:  28    -0.274354209396E+04   -0.17078E+02   -0.18685E+02 48881   0.216E+01    0.158E+02
RMM:  29    -0.276002976085E+04   -0.16488E+02   -0.19949E+02 50167   0.187E+01    0.160E+02
RMM:  30    -0.277649130726E+04   -0.16462E+02   -0.90063E+01 50704   0.170E+01    0.166E+02
RMM:  31    -0.281335191737E+04   -0.36861E+02   -0.70397E+01 50372   0.151E+01    0.174E+02
RMM:  32    -0.281803410520E+04   -0.46822E+01   -0.57677E+01 48774   0.151E+01    0.180E+02
RMM:  33    -0.285480352223E+04   -0.36769E+02   -0.10061E+02 50336   0.131E+01    0.187E+02
RMM:  34    -0.289295706532E+04   -0.38154E+02   -0.13622E+02 46543   0.123E+01    0.197E+02
RMM:  35    -0.292765775388E+04   -0.34701E+02   -0.12924E+02 46698   0.122E+01    0.204E+02
RMM:  36    -0.298901416663E+04   -0.61356E+02   -0.17742E+02 46612   0.110E+01    0.215E+02
RMM:  37    -0.301708478461E+04   -0.28071E+02   -0.13819E+02 48709   0.101E+01    0.222E+02
RMM:  38    -0.306219265035E+04   -0.45108E+02   -0.18601E+02 48088   0.916E+00    0.230E+02
RMM:  39    -0.309873308168E+04   -0.36540E+02   -0.15882E+02 46248   0.866E+00    0.236E+02
RMM:  40    -0.313645498212E+04   -0.37722E+02   -0.19975E+02 49052   0.773E+00    0.243E+02
RMM:  41    -0.316683192401E+04   -0.30377E+02   -0.16496E+02 46101   0.721E+00    0.249E+02
RMM:  42    -0.318931243244E+04   -0.22481E+02   -0.21275E+02 42843   0.708E+00    0.257E+02
RMM:  43    -0.321987671581E+04   -0.30564E+02   -0.19011E+02 47514   0.622E+00    0.263E+02
RMM:  44    -0.324823430654E+04   -0.28358E+02   -0.23600E+02 45169   0.593E+00    0.269E+02
RMM:  45    -0.327851488315E+04   -0.30281E+02   -0.22286E+02 46008   0.553E+00    0.274E+02
RMM:  46    -0.330820461358E+04   -0.29690E+02   -0.27920E+02 42759   0.540E+00    0.280E+02
RMM:  47    -0.334133459185E+04   -0.33130E+02   -0.28704E+02 41585   0.530E+00    0.286E+02
RMM:  48    -0.338125200249E+04   -0.39917E+02   -0.36463E+02 46787   0.483E+00    0.292E+02
RMM:  49    -0.343466978680E+04   -0.53418E+02   -0.39783E+02 39788   0.501E+00    0.298E+02
RMM:  50    -0.347439523181E+04   -0.39725E+02   -0.44899E+02 43044   0.506E+00    0.306E+02
RMM:  51    -0.312364035010E+04    0.35075E+03   -0.44678E+02 40897   0.101E+01    0.303E+02
RMM:  52    -0.310759846975E+04    0.16042E+02   -0.41612E+02 38302   0.970E+00    0.304E+02
RMM:  53    -0.313321166645E+04   -0.25613E+02   -0.35967E+02 42756   0.575E+00    0.303E+02
RMM:  54    -0.315555543152E+04   -0.22344E+02   -0.21346E+02 38234   0.521E+00    0.303E+02
RMM:  55    -0.317931571591E+04   -0.23760E+02   -0.14001E+02 39668   0.431E+00    0.302E+02
RMM:  56    -0.435011525299E+04   -0.11708E+04   -0.14669E+03 39188   0.393E+01    0.333E+02
RMM:  57    -0.331102661999E+04    0.10391E+04   -0.20291E+02 30538   0.258E+01    0.302E+02
RMM:  58    -0.341219989136E+04   -0.10117E+03   -0.33852E+02 30260   0.288E+01    0.290E+02
RMM:  59    -0.337246486758E+04    0.39735E+02   -0.27880E+02 34573   0.202E+01    0.285E+02
RMM:  60    -0.332517858638E+04    0.47286E+02   -0.15851E+02 32863   0.170E+01    0.282E+02
RMM:  61    -0.320897892934E+04    0.11620E+03   -0.25572E+02 35653   0.185E+01    0.284E+02
RMM:  62    -0.312060346477E+04    0.88375E+02   -0.11338E+02 30243   0.168E+01    0.284E+02
RMM:  63    -0.309445870347E+04    0.26145E+02   -0.13530E+02 38689   0.976E+00    0.274E+02
RMM:  64    -0.301750932087E+04    0.76949E+02   -0.76517E+01 34457   0.886E+00    0.272E+02
RMM:  65    -0.295820553774E+04    0.59304E+02   -0.50200E+01 36515   0.719E+00    0.264E+02
RMM:  66    -0.264870006196E+04    0.30951E+03   -0.14127E+02 31401   0.172E+01    0.222E+02
RMM:  67    -0.273847699456E+04   -0.89777E+02   -0.49402E+01 27790   0.147E+01    0.243E+02
RMM:  68    -0.275331693014E+04   -0.14840E+02   -0.35579E+01 29716   0.102E+01    0.238E+02
RMM:  69    -0.266826860873E+04    0.85048E+02   -0.49879E+01 30589   0.111E+01    0.229E+02
RMM:  70    -0.260362378652E+04    0.64645E+02   -0.45211E+01 33808   0.878E+00    0.208E+02
RMM:  71    -0.271947070370E+04   -0.11585E+03   -0.63910E+02 35439   0.366E+01    0.219E+02
RMM:  72    -0.259224910039E+04    0.12722E+03   -0.11601E+02 27829   0.218E+01    0.202E+02
RMM:  73    -0.247026464275E+04    0.12198E+03   -0.45648E+01 28861   0.129E+01    0.149E+02
RMM:  74    -0.244543657096E+04    0.24828E+02   -0.59109E+01 33380   0.101E+01    0.144E+02
RMM:  75    -0.242777210266E+04    0.17664E+02   -0.42068E+01 37187   0.767E+00    0.134E+02
RMM:  76    -0.276325577830E+04   -0.33548E+03   -0.76175E+02 30234   0.498E+01    0.234E+02
RMM:  77    -0.257821517067E+04    0.18504E+03   -0.24649E+02 27722   0.384E+01    0.212E+02
RMM:  78    -0.246866733820E+04    0.10955E+03   -0.62172E+01 27724   0.175E+01    0.158E+02
RMM:  79    -0.255201239706E+04   -0.83345E+02   -0.58461E+01 29294   0.142E+01    0.202E+02
RMM:  80    -0.267700354590E+04   -0.12499E+03   -0.68376E+01 32825   0.120E+01    0.241E+02
RMM:  81    -0.288377051473E+04   -0.20677E+03   -0.37939E+02 33091   0.281E+01    0.250E+02
RMM:  82    -0.271648154783E+04    0.16729E+03   -0.16253E+02 27750   0.287E+01    0.236E+02
RMM:  83    -0.259312613612E+04    0.12336E+03   -0.75405E+01 30106   0.149E+01    0.197E+02
RMM:  84    -0.249410123537E+04    0.99025E+02   -0.40281E+01 28001   0.132E+01    0.168E+02
RMM:  85    -0.242357728069E+04    0.70524E+02   -0.41417E+01 28873   0.125E+01    0.135E+02
RMM:  86    -0.239801186558E+04    0.25565E+02   -0.21489E+02 32817   0.214E+01    0.105E+02
RMM:  87    -0.235334270435E+04    0.44669E+02   -0.65748E+01 27722   0.177E+01    0.815E+01
RMM:  88    -0.236445089286E+04   -0.11108E+02   -0.43154E+01 29710   0.115E+01    0.935E+01
RMM:  89    -0.237496014998E+04   -0.10509E+02   -0.32346E+01 29171   0.104E+01    0.998E+01
RMM:  90    -0.237341810900E+04    0.15420E+01   -0.29379E+01 31300   0.848E+00    0.973E+01
RMM:  91    -0.255619174553E+04   -0.18277E+03   -0.44658E+02 31199   0.363E+01    0.199E+02
RMM:  92    -0.244718546156E+04    0.10901E+03   -0.12990E+02 27733   0.261E+01    0.152E+02
RMM:  93    -0.242728473097E+04    0.19901E+02   -0.51144E+01 28605   0.137E+01    0.145E+02
RMM:  94    -0.240899937358E+04    0.18285E+02   -0.40169E+01 31543   0.965E+00    0.132E+02
RMM:  95    -0.239164165865E+04    0.17358E+02   -0.24091E+01 29923   0.853E+00    0.118E+02
RMM:  96    -0.245435477335E+04   -0.62713E+02   -0.14919E+02 27854   0.245E+01    0.159E+02
RMM:  97    -0.240611891083E+04    0.48236E+02   -0.76683E+01 27720   0.214E+01    0.138E+02
RMM:  98    -0.238564126716E+04    0.20478E+02   -0.29328E+01 27724   0.113E+01    0.125E+02
RMM:  99    -0.238619470605E+04   -0.55344E+00   -0.24527E+01 28501   0.938E+00    0.125E+02
RMM: 100    -0.238895608225E+04   -0.27614E+01   -0.22966E+01 34408   0.606E+00
   1 F= -.23889561E+04 E0= -.23859775E+04  d E =-.238896E+04
       N       E                     dE             d eps       ncg     rms          rms(c)
DAV:   1    -0.245865290561E+04   -0.72458E+02   -0.15814E+03 42014   0.616E+01    0.172E+02
RMM:   2    -0.544828399855E+05   -0.52024E+05   -0.10397E+05 52015   0.727E+02    0.329E+03
RMM:   3    -0.562472379053E+05   -0.17644E+04   -0.88679E+04 50164   0.633E+02    0.260E+03
RMM:   4    -0.577763496040E+05   -0.15291E+04   -0.85598E+04 50728   0.535E+02    0.361E+03
RMM:   5    -0.657486155575E+05   -0.79723E+04   -0.10206E+05 50640   0.619E+02    0.321E+03
RMM:   6    -0.741244108669E+05   -0.83758E+04   -0.10459E+05 50690   0.632E+02    0.366E+03
RMM:   7    -0.792235260447E+05   -0.50991E+04   -0.94188E+04 50577   0.622E+02    0.335E+03
RMM:   8    -0.751127807796E+05    0.41107E+04   -0.63718E+04 50605   0.473E+02    0.314E+03
RMM:   9    -0.704660922514E+05    0.46467E+04   -0.42611E+04 49456   0.329E+02    0.294E+03
RMM:  10    -0.738724558639E+05   -0.34064E+04   -0.38920E+04 50341   0.271E+02    0.298E+03
RMM:  11    -0.767342326040E+05   -0.28618E+04   -0.36101E+04 48940   0.257E+02    0.307E+03
RMM:  12    -0.799852366206E+05   -0.32510E+04   -0.33108E+04 49611   0.247E+02    0.311E+03
RMM:  13    -0.792109355206E+05    0.77430E+03   -0.27518E+04 46867   0.208E+02    0.305E+03
RMM:  14    -0.681587838940E+05    0.11052E+05   -0.15864E+04 47689   0.164E+02    0.290E+03
RMM:  15    -0.348554854274E+05    0.33303E+05   -0.18729E+04 47252   0.185E+02    0.224E+03
RMM:  16    -0.181784070088E+05    0.16677E+05   -0.20816E+04 47874   0.238E+02    0.184E+03
RMM:  17    -0.118007753365E+05    0.63776E+04   -0.13762E+04 48236   0.223E+02    0.145E+03
RMM:  18    -0.773837043594E+04    0.40624E+04   -0.90530E+03 39332   0.138E+02    0.862E+02
RMM:  19     0.552865231947E+03    0.82912E+04   -0.10932E+04 48662   0.173E+02    0.116E+03
RMM:  20    -0.323967504584E+03   -0.87683E+03   -0.84584E+03 49676   0.116E+02    0.110E+03
RMM:  21    -0.403780841749E+03   -0.79813E+02   -0.47739E+03 49604   0.112E+02    0.920E+02
RMM:  22     0.788246402619E+03    0.11920E+04   -0.44788E+03 50191   0.128E+02    0.558E+02
RMM:  23     0.289395966329E+03   -0.49885E+03   -0.41325E+03 50816   0.138E+02    0.637E+02
RMM:  24    -0.208355689702E+04   -0.23730E+04   -0.51530E+03 50927   0.147E+02    0.714E+02
RMM:  25    -0.939080899764E+03    0.11445E+04   -0.47540E+03 50942   0.129E+02    0.481E+02
RMM:  26    -0.134308914446E+04   -0.40401E+03   -0.25826E+03 51634   0.105E+02    0.407E+02
RMM:  27    -0.232431488874E+04   -0.98123E+03   -0.30661E+03 49366   0.913E+01    0.351E+02
RMM:  28    -0.218288618877E+04    0.14143E+03   -0.53801E+03 51040   0.102E+02    0.304E+02
RMM:  29    -0.212181051128E+04    0.61076E+02   -0.22510E+03 31582   0.881E+01    0.242E+02
RMM:  30    -0.216590853700E+04   -0.44098E+02   -0.31771E+03 50969   0.508E+01    0.185E+02
RMM:  31    -0.226307120072E+04   -0.97163E+02   -0.24711E+03 48777   0.428E+01    0.150E+02
RMM:  32    -0.226848791029E+04   -0.54167E+01   -0.14826E+03 43349   0.340E+01    0.109E+02
RMM:  33    -0.250727983025E+04   -0.23879E+03   -0.14338E+03 43987   0.333E+01    0.166E+02
RMM:  34    -0.240030822688E+04    0.10697E+03   -0.70313E+02 42297   0.224E+01    0.118E+02
RMM:  35    -0.237579955929E+04    0.24509E+02   -0.38864E+02 39941   0.166E+01    0.992E+01
RMM:  36    -0.237034002381E+04    0.54595E+01   -0.22227E+02 41442   0.112E+01    0.897E+01
RMM:  37    -0.234590459296E+04    0.24435E+02   -0.11078E+02 39262   0.804E+00    0.741E+01
RMM:  38    -0.234537760981E+04    0.52698E+00   -0.62150E+01 42405   0.574E+00    0.725E+01
RMM:  39    -0.233135437573E+04    0.14023E+02   -0.41371E+01 37211   0.597E+00    0.584E+01
RMM:  40    -0.232366925683E+04    0.76851E+01   -0.39961E+01 38153   0.637E+00    0.469E+01
RMM:  41    -0.232147679738E+04    0.21925E+01   -0.30875E+01 42142   0.441E+00    0.406E+01
RMM:  42    -0.232184706044E+04   -0.37026E+00   -0.13421E+01 40643   0.268E+00    0.402E+01
RMM:  43    -0.232066819025E+04    0.11789E+01   -0.44951E+00 31757   0.271E+00    0.365E+01
RMM:  44    -0.232213183545E+04   -0.14636E+01   -0.44623E+00 30838   0.303E+00    0.402E+01
RMM:  45    -0.232111983177E+04    0.10120E+01   -0.35563E+00 32300   0.248E+00    0.378E+01
RMM:  46    -0.232395989718E+04   -0.28401E+01   -0.71775E+00 29622   0.494E+00    0.424E+01
RMM:  47    -0.235199344181E+04   -0.28034E+02   -0.30683E+01 31706   0.753E+00    0.757E+01
RMM:  48    -0.232929764060E+04    0.22696E+02   -0.10559E+01 31491   0.521E+00    0.507E+01
RMM:  49    -0.232853642104E+04    0.76122E+00   -0.79487E+00 29218   0.553E+00    0.531E+01
RMM:  50    -0.232588407266E+04    0.26523E+01   -0.65395E+00 30046   0.460E+00    0.478E+01
RMM:  51    -0.232630961763E+04   -0.42554E+00   -0.40088E+00 30068   0.355E+00    0.478E+01
RMM:  52    -0.232481617993E+04    0.14934E+01   -0.32376E+00 29674   0.330E+00    0.420E+01
RMM:  53    -0.232448809811E+04    0.32808E+00   -0.36376E+00 30246   0.330E+00    0.429E+01
RMM:  54    -0.232651087576E+04   -0.20228E+01   -0.31537E+00 29870   0.321E+00    0.455E+01
RMM:  55    -0.232526606051E+04    0.12448E+01   -0.26185E+00 40221   0.154E+00    0.440E+01
RMM:  56    -0.232415248923E+04    0.11136E+01   -0.10100E+00 35069   0.108E+00    0.427E+01
RMM:  57    -0.232374051558E+04    0.41197E+00   -0.31274E+00 29582   0.358E+00    0.456E+01
RMM:  58    -0.232244433121E+04    0.12962E+01   -0.35704E+00 28761   0.377E+00    0.420E+01
RMM:  59    -0.232111431786E+04    0.13300E+01   -0.50277E+00 28933   0.433E+00    0.414E+01
RMM:  60    -0.231979108601E+04    0.13232E+01   -0.25594E+00 28728   0.321E+00    0.381E+01
RMM:  61    -0.231992037717E+04   -0.12929E+00   -0.20974E+00 33797   0.195E+00    0.383E+01
RMM:  62    -0.238163009376E+04   -0.61710E+02   -0.23802E+01 30419   0.816E+00    0.104E+02
RMM:  63    -0.235448233730E+04    0.27148E+02   -0.10750E+01 28539   0.689E+00    0.825E+01
RMM:  64    -0.233930195782E+04    0.15180E+02   -0.10857E+01 27966   0.676E+00    0.666E+01
RMM:  65    -0.233294647190E+04    0.63555E+01   -0.88387E+00 27819   0.659E+00    0.579E+01
RMM:  66    -0.232780762395E+04    0.51388E+01   -0.58006E+00 28311   0.498E+00    0.506E+01
RMM:  67    -0.235981932163E+04   -0.32012E+02   -0.51493E+01 29930   0.127E+01    0.871E+01
RMM:  68    -0.235368319424E+04    0.61361E+01   -0.40072E+01 28228   0.129E+01    0.787E+01
RMM:  69    -0.234189470335E+04    0.11788E+02   -0.22678E+01 28024   0.101E+01    0.675E+01
RMM:  70    -0.233725962202E+04    0.46351E+01   -0.19228E+01 27863   0.985E+00    0.612E+01
RMM:  71    -0.233312564100E+04    0.41340E+01   -0.20297E+01 27841   0.966E+00    0.538E+01
RMM:  72    -0.235765676295E+04   -0.24531E+02   -0.41042E+01 29839   0.111E+01    0.790E+01
RMM:  73    -0.235059092132E+04    0.70658E+01   -0.61692E+01 40066   0.671E+00    0.684E+01
RMM:  74    -0.235164154950E+04   -0.10506E+01   -0.24245E+01 37414   0.445E+00    0.729E+01
RMM:  75    -0.234924074541E+04    0.24008E+01   -0.10665E+01 38299   0.285E+00    0.738E+01
RMM:  76    -0.234182002824E+04    0.74207E+01   -0.36620E+00 29923   0.339E+00    0.662E+01
RMM:  77    -0.234489396692E+04   -0.30739E+01   -0.20495E+01 28271   0.906E+00    0.702E+01
RMM:  78    -0.232630082615E+04    0.18593E+02   -0.18661E+01 28384   0.876E+00    0.402E+01
RMM:  79    -0.232347771971E+04    0.28231E+01   -0.17795E+01 30151   0.707E+00    0.333E+01
RMM:  80    -0.232136582398E+04    0.21119E+01   -0.11285E+01 32232   0.484E+00    0.277E+01
RMM:  81    -0.231906523857E+04    0.23006E+01   -0.45705E+00 30002   0.377E+00    0.191E+01
RMM:  82    -0.232442173259E+04   -0.53565E+01   -0.57846E+00 30936   0.391E+00    0.367E+01
RMM:  83    -0.231931002018E+04    0.51117E+01   -0.22547E+00 27963   0.345E+00    0.193E+01
RMM:  84    -0.231817319570E+04    0.11368E+01   -0.16793E+00 29809   0.233E+00    0.131E+01
RMM:  85    -0.231786384863E+04    0.30935E+00   -0.16006E+00 30089   0.220E+00    0.104E+01
RMM:  86    -0.231764908708E+04    0.21476E+00   -0.10301E+00 30166   0.180E+00    0.780E+00
RMM:  87    -0.231768616016E+04   -0.37073E-01   -0.80049E-01 29058   0.168E+00    0.825E+00
RMM:  88    -0.231746629217E+04    0.21987E+00   -0.41158E-01 29106   0.129E+00    0.493E+00
RMM:  89    -0.231747940488E+04   -0.13113E-01   -0.41034E-01 31908   0.968E-01    0.487E+00
RMM:  90    -0.231745918810E+04    0.20217E-01   -0.23879E-01 29515   0.914E-01    0.409E+00
RMM:  91    -0.231750817650E+04   -0.48988E-01   -0.18257E-01 30337   0.747E-01    0.492E+00
RMM:  92    -0.231748270032E+04    0.25476E-01   -0.22963E-01 28662   0.957E-01    0.428E+00
RMM:  93    -0.231742187160E+04    0.60829E-01   -0.10271E-01 28030   0.763E-01    0.269E+00
RMM:  94    -0.231742297867E+04   -0.11071E-02   -0.13949E-01 36206   0.405E-01    0.237E+00
RMM:  95    -0.231742236512E+04    0.61355E-03   -0.59220E-02 33456   0.338E-01    0.220E+00
RMM:  96    -0.231742101084E+04    0.13543E-02   -0.33573E-02 33588   0.256E-01    0.202E+00
RMM:  97    -0.231743741705E+04   -0.16406E-01   -0.56473E-02 29261   0.446E-01    0.260E+00
RMM:  98    -0.231740896673E+04    0.28450E-01   -0.21834E-02 28022   0.370E-01    0.133E+00
RMM:  99    -0.231740499195E+04    0.39748E-02   -0.13730E-02 31130   0.184E-01    0.973E-01
RMM: 100    -0.231740555866E+04   -0.56672E-03   -0.14413E-02 33841   0.153E-01
   2 F= -.23174056E+04 E0= -.23146233E+04  d E =0.715505E+02
       N       E                     dE             d eps       ncg     rms          rms(c)
DAV:   1    -0.231753489163E+04   -0.12990E+00   -0.24001E+01 29694   0.514E+00    0.171E+00
RMM:   2    -0.239875877575E+04   -0.81224E+02   -0.12123E+01 33405   0.426E+00    0.112E+02
RMM:   3    -0.232419925809E+04    0.74560E+02   -0.17422E+00 27997   0.271E+00    0.326E+01
RMM:   4    -0.232337544612E+04    0.82381E+00   -0.14154E+00 32371   0.173E+00    0.319E+01
RMM:   5    -0.231838760715E+04    0.49878E+01   -0.11607E+00 27732   0.235E+00    0.111E+01
RMM:   6    -0.232178108432E+04   -0.33935E+01   -0.27607E+00 33363   0.219E+00    0.284E+01
RMM:   7    -0.232150391168E+04    0.27717E+00   -0.16730E+00 30470   0.210E+00    0.273E+01
RMM:   8    -0.231817369841E+04    0.33302E+01   -0.60429E-01 27747   0.167E+00    0.102E+01
RMM:   9    -0.231761669843E+04    0.55700E+00   -0.27739E-01 27835   0.118E+00    0.380E+00
RMM:  10    -0.231760936984E+04    0.73286E-02   -0.33362E-01 33627   0.781E-01    0.368E+00
RMM:  11    -0.231762222339E+04   -0.12854E-01   -0.16520E-01 32013   0.594E-01    0.389E+00
RMM:  12    -0.231757776396E+04    0.44459E-01   -0.71439E-02 31145   0.399E-01    0.268E+00
RMM:  13    -0.231756720665E+04    0.10557E-01   -0.61497E-02 38430   0.242E-01    0.212E+00
RMM:  14    -0.231755148682E+04    0.15720E-01   -0.21110E-02 34469   0.187E-01    0.120E+00
RMM:  15    -0.231754619906E+04    0.52878E-02   -0.88731E-03 31564   0.142E-01    0.687E-01
RMM:  16    -0.231754593732E+04    0.26174E-03   -0.67935E-03 35441   0.101E-01    0.604E-01
RMM:  17    -0.231754643294E+04   -0.49561E-03   -0.51482E-03 31608   0.111E-01    0.649E-01
RMM:  18    -0.231754627501E+04    0.15792E-03   -0.18797E-03 28191   0.951E-02    0.631E-01
RMM:  19    -0.231754607964E+04    0.19537E-03   -0.15912E-03 29280   0.775E-02    0.599E-01
RMM:  20    -0.231754573355E+04    0.34609E-03   -0.26260E-03 31253   0.806E-02    0.501E-01
RMM:  21    -0.231754517319E+04    0.56036E-03   -0.10199E-03 28529   0.714E-02    0.377E-01
RMM:  22    -0.231754490721E+04    0.26598E-03   -0.10516E-03 32271   0.477E-02    0.301E-01
RMM:  23    -0.231754463107E+04    0.27614E-03   -0.70445E-04 33318   0.373E-02    0.184E-01
RMM:  24    -0.231754450006E+04    0.13102E-03   -0.28968E-04 31181   0.275E-02    0.941E-02
RMM:  25    -0.231754451493E+04   -0.14879E-04   -0.32984E-04 42219   0.135E-02    0.819E-02
RMM:  26    -0.231754451777E+04   -0.28351E-05   -0.12117E-04 37708   0.104E-02    0.687E-02
RMM:  27    -0.231754451883E+04   -0.10599E-05   -0.58041E-05 33508   0.915E-03    0.601E-02
RMM:  28    -0.231754452776E+04   -0.89286E-05   -0.50447E-05 31655   0.110E-02    0.627E-02
RMM:  29    -0.231754452220E+04    0.55585E-05   -0.30302E-05 28991   0.108E-02    0.362E-02
RMM:  30    -0.231754452355E+04   -0.13535E-05   -0.32654E-05 34587   0.602E-03    0.262E-02
RMM:  31    -0.231754452791E+04   -0.43533E-05   -0.11853E-05 26078   0.422E-03    0.242E-02
RMM:  32    -0.231754453106E+04   -0.31505E-05   -0.44635E-06 19571   0.407E-03    0.173E-02
RMM:  33    -0.231754453221E+04   -0.11525E-05   -0.26836E-06 18314   0.258E-03    0.159E-02
RMM:  34    -0.231754453403E+04   -0.18176E-05   -0.27502E-06 18008   0.288E-03    0.152E-02
RMM:  35    -0.231754453509E+04   -0.10630E-05   -0.22944E-06 16982   0.294E-03    0.985E-03
RMM:  36    -0.231754453567E+04   -0.57492E-06   -0.16377E-06 16436   0.179E-03
   3 F= -.23175445E+04 E0= -.23147626E+04  d E =0.714115E+02
       N       E                     dE             d eps       ncg     rms          rms(c)
DAV:   1    -0.231762810563E+04   -0.83571E-01   -0.13329E+01 28434   0.382E+00    0.912E-01
RMM:   2    -0.232293050944E+04   -0.53024E+01   -0.10104E+00 31749   0.164E+00    0.311E+01
RMM:   3    -0.231865872965E+04    0.42718E+01   -0.39963E-01 33277   0.957E-01    0.131E+01
RMM:   4    -0.232045444238E+04   -0.17957E+01   -0.17505E-01 28502   0.848E-01    0.228E+01
RMM:   5    -0.231782819378E+04    0.26262E+01   -0.11321E-01 28141   0.680E-01    0.473E+00
RMM:   6    -0.231802017683E+04   -0.19198E+00   -0.18864E-01 30662   0.683E-01    0.869E+00
RMM:   7    -0.231799849215E+04    0.21685E-01   -0.35582E-01 31774   0.894E-01    0.792E+00
RMM:   8    -0.231781437590E+04    0.18412E+00   -0.14091E-01 27752   0.762E-01    0.569E+00
RMM:   9    -0.231766619099E+04    0.14818E+00   -0.54010E-02 27792   0.484E-01    0.226E+00
RMM:  10    -0.231764979373E+04    0.16397E-01   -0.50260E-02 32069   0.301E-01    0.169E+00
RMM:  11    -0.231764826883E+04    0.15249E-02   -0.39495E-02 33861   0.268E-01    0.154E+00
RMM:  12    -0.231763941587E+04    0.88530E-02   -0.12415E-02 28494   0.215E-01    0.864E-01
RMM:  13    -0.231763634961E+04    0.30663E-02   -0.56487E-03 29255   0.144E-01    0.500E-01
RMM:  14    -0.231763666922E+04   -0.31961E-03   -0.60073E-03 35516   0.910E-02    0.504E-01
RMM:  15    -0.231763641712E+04    0.25210E-03   -0.29026E-03 31177   0.860E-02    0.414E-01
RMM:  16    -0.231763578785E+04    0.62927E-03   -0.11032E-03 28787   0.678E-02    0.245E-01
RMM:  17    -0.231763577182E+04    0.16035E-04   -0.13206E-03 35044   0.451E-02    0.220E-01
RMM:  18    -0.231763582396E+04   -0.52146E-04   -0.86395E-04 30461   0.490E-02    0.226E-01
RMM:  19    -0.231763561240E+04    0.21157E-03   -0.32991E-04 28291   0.408E-02    0.123E-01
RMM:  20    -0.231763561038E+04    0.20170E-05   -0.31294E-04 34143   0.222E-02    0.112E-01
RMM:  21    -0.231763560913E+04    0.12487E-05   -0.21752E-04 32762   0.210E-02    0.101E-01
RMM:  22    -0.231763557258E+04    0.36546E-04   -0.10668E-04 31005   0.171E-02    0.579E-02
RMM:  23    -0.231763557498E+04   -0.23991E-05   -0.10968E-04 40475   0.838E-03    0.486E-02
RMM:  24    -0.231763557357E+04    0.14182E-05   -0.40012E-05 33217   0.816E-03    0.424E-02
RMM:  25    -0.231763556814E+04    0.54298E-05   -0.20787E-05 30217   0.615E-03    0.265E-02
RMM:  26    -0.231763556849E+04   -0.35201E-06   -0.13863E-05 26632   0.327E-03    0.242E-02
RMM:  27    -0.231763556714E+04    0.13477E-05   -0.40196E-06 19638   0.369E-03    0.170E-02
RMM:  28    -0.231763556630E+04    0.83557E-06   -0.22621E-06 17369   0.341E-03
   4 F= -.23176356E+04 E0= -.23148542E+04  d E =0.713205E+02
       N       E                     dE             d eps       ncg     rms          rms(c)
DAV:   1    -0.231768574051E+04   -0.50173E-01   -0.21684E+02 27762   0.155E+01    0.394E+00
RMM:   2    -0.240339438422E+04   -0.85709E+02   -0.23140E+01 31746   0.757E+00    0.121E+02
RMM:   3    -0.233278866233E+04    0.70606E+02   -0.69787E+00 33528   0.395E+00    0.488E+01
RMM:   4    -0.236381306689E+04   -0.31024E+02   -0.35519E+00 28402   0.361E+00    0.893E+01
RMM:   5    -0.232036197798E+04    0.43451E+02   -0.21744E+00 30186   0.245E+00    0.173E+01
RMM:   6    -0.232408875165E+04   -0.37268E+01   -0.34117E+00 30905   0.273E+00    0.349E+01
RMM:   7    -0.232392575211E+04    0.16300E+00   -0.52330E+00 32128   0.339E+00    0.327E+01
RMM:   8    -0.232129076194E+04    0.26350E+01   -0.23600E+00 27933   0.300E+00    0.247E+01
RMM:   9    -0.231826499647E+04    0.30258E+01   -0.92568E-01 27831   0.204E+00    0.827E+00
RMM:  10    -0.231816049798E+04    0.10450E+00   -0.83717E-01 31258   0.130E+00    0.768E+00
RMM:  11    -0.231810085414E+04    0.59644E-01   -0.70573E-01 32991   0.119E+00    0.668E+00
RMM:  12    -0.231792359835E+04    0.17726E+00   -0.21594E-01 27776   0.983E-01    0.346E+00
RMM:  13    -0.231788654137E+04    0.37057E-01   -0.12762E-01 29831   0.609E-01    0.240E+00
RMM:  14    -0.231789092346E+04   -0.43821E-02   -0.12565E-01 37780   0.350E-01    0.228E+00
RMM:  15    -0.231788285281E+04    0.80706E-02   -0.45523E-02 33921   0.261E-01    0.173E+00
RMM:  16    -0.231788132681E+04    0.15260E-02   -0.30519E-02 32911   0.243E-01    0.158E+00
RMM:  17    -0.231787610509E+04    0.52217E-02   -0.23122E-02 30422   0.251E-01    0.112E+00
RMM:  18    -0.231787283696E+04    0.32681E-02   -0.11170E-02 28148   0.233E-01    0.883E-01
RMM:  19    -0.231787265083E+04    0.18612E-03   -0.79864E-03 29004   0.181E-01    0.861E-01
RMM:  20    -0.231787259101E+04    0.59821E-04   -0.85563E-03 33198   0.123E-01    0.804E-01
RMM:  21    -0.231787147476E+04    0.11163E-02   -0.32902E-03 30774   0.950E-02    0.670E-01
RMM:  22    -0.231787139172E+04    0.83037E-04   -0.37148E-03 33403   0.826E-02    0.634E-01
RMM:  23    -0.231787027008E+04    0.11216E-02   -0.23206E-03 29591   0.870E-02    0.410E-01
RMM:  24    -0.231786978135E+04    0.48873E-03   -0.14602E-03 30376   0.655E-02    0.263E-01
RMM:  25    -0.231786978020E+04    0.11441E-05   -0.16776E-03 40202   0.365E-02    0.225E-01
RMM:  26    -0.231786968370E+04    0.96502E-04   -0.64815E-04 34338   0.322E-02    0.172E-01
RMM:  27    -0.231786967108E+04    0.12619E-04   -0.33059E-04 33732   0.238E-02    0.158E-01
RMM:  28    -0.231786967351E+04   -0.24255E-05   -0.25715E-04 40501   0.145E-02    0.148E-01
RMM:  29    -0.231786961537E+04    0.58142E-04   -0.85778E-05 32714   0.125E-02    0.998E-02
RMM:  30    -0.231786959337E+04    0.22002E-04   -0.44598E-05 30453   0.115E-02    0.721E-02
RMM:  31    -0.231786959215E+04    0.12103E-05   -0.66593E-05 31469   0.126E-02    0.671E-02
RMM:  32    -0.231786958375E+04    0.84005E-05   -0.37317E-05 29100   0.118E-02    0.544E-02
RMM:  33    -0.231786957425E+04    0.95022E-05   -0.21989E-05 29837   0.801E-03    0.338E-02
RMM:  34    -0.231786957439E+04   -0.13443E-06   -0.19904E-05 29312   0.400E-03    0.306E-02
RMM:  35    -0.231786957202E+04    0.23629E-05   -0.78045E-06 24514   0.426E-03    0.189E-02
RMM:  36    -0.231786957132E+04    0.70254E-06   -0.35903E-06 19238   0.322E-03
   5 F= -.23178696E+04 E0= -.23150901E+04  d E =0.710865E+02
