<?xml version="1.0" encoding="ISO-8859-1"?>
<modeling>
 <generator>
  <i name="program" type="string">vasp </i>
  <i name="version" type="string">5.4.4.18Apr17-6-g9f103f2a35  </i>
  <i name="subversion" type="string">(build Sep 27 2018 12:46:37) complex + VL-xray_ parallel </i>
  <i name="platform" type="string">LLNL_Quartz_ifc </i>
  <i name="date" type="string">2021 09 26 </i>
  <i name="time" type="string">21:12:36 </i>
 </generator>
 <incar>
  <i type="int" name="ISTART">     2</i>
  <i type="string" name="PREC">accurate</i>
  <i type="string" name="ALGO"> Fast</i>
  <i type="int" name="ICHARG">     2</i>
  <i type="int" name="INIWAV">     1</i>
  <i type="int" name="NELM">   100</i>
  <i type="int" name="NELMIN">     4</i>
  <i type="int" name="IBRION">     2</i>
  <i name="EDIFF">      0.00000100</i>
  <i type="int" name="NSW">     5</i>
  <i type="int" name="ISIF">     2</i>
  <i type="int" name="ISYM">     2</i>
  <i name="ENCUT">    450.00000000</i>
  <i name="POTIM">      0.25000000</i>
  <i type="string" name="LREAL"> Auto</i>
  <i type="int" name="ISMEAR">     0</i>
  <i name="SIGMA">      0.15000000</i>
  <i type="logical" name="LWAVE"> F  </i>
  <i type="logical" name="LCHARG"> F  </i>
  <i type="int" name="ICORELEVEL">     0</i>
  <i type="int" name="CLNT">     1</i>
  <i type="int" name="CLN">     1</i>
  <i type="int" name="INCAR     ">     0</i>
  <i name="CLZ">      0.00000000</i>
  <v type="int" name="KPOINT_BSE">    -1     0     0     0</v>
  <i type="int" name="NELM">   100</i>
 </incar>
 <structure name="primitive_cell" >
  <crystal>
   <varray name="basis" >
    <v>       9.72667804       0.00000000       0.00000000 </v>
    <v>       0.00000000       8.42355028       0.00000000 </v>
    <v>       0.00000000       0.00000000      45.00000000 </v>
   </varray>
   <i name="volume">   3686.99226691 </i>
   <varray name="rec_basis" >
    <v>       0.10281002       0.00000000       0.00000000 </v>
    <v>       0.00000000       0.11871479       0.00000000 </v>
    <v>       0.00000000       0.00000000       0.02222222 </v>
   </varray>
  </crystal>
  <varray name="positions" >
   <v>       0.06269625       0.03295791       0.12457371 </v>
   <v>      -0.05818486       0.11253364       0.16687305 </v>
   <v>       0.19318540       0.11177012       0.16627036 </v>
   <v>       0.06783512      -0.13752150       0.16682364 </v>
   <v>       0.18738334       0.28153077       0.12462581 </v>
   <v>       0.31150299       0.03317167       0.12438280 </v>
   <v>       0.18647787      -0.21811049       0.12432664 </v>
   <v>      -0.06341938       0.28249045       0.12449704 </v>
   <v>      -0.18838825       0.03306940       0.12449402 </v>
   <v>      -0.06364262      -0.21852720       0.12451189 </v>
   <v>       0.06719100       0.36166784       0.16687469 </v>
   <v>      -0.18335698      -0.13770121       0.16683870 </v>
   <v>       0.31654820      -0.13759743       0.16687082 </v>
   <v>      -0.18285323       0.36250648       0.16696731 </v>
   <v>      -0.30755300       0.11169605       0.16697832 </v>
   <v>       0.18054967      -0.04776644       0.21160401 </v>
   <v>       0.31760095       0.36129821       0.16676077 </v>
   <v>       0.05497845       0.20296837       0.21185174 </v>
   <v>      -0.06931467      -0.04737577       0.21177555 </v>
   <v>      -0.05827243      -0.38757294       0.16686807 </v>
   <v>       0.43707149       0.28211508       0.12441726 </v>
   <v>       0.44190311       0.11251474       0.16683651 </v>
   <v>       0.06186908      -0.46664694       0.12451998 </v>
   <v>      -0.31282728       0.28215778       0.12442285 </v>
   <v>       0.19167129      -0.38766410       0.16686892 </v>
   <v>       0.43712073      -0.21881524       0.12444865 </v>
   <v>      -0.31326819      -0.21819003       0.12439401 </v>
   <v>       0.05549455      -0.29774226       0.21157170 </v>
   <v>       0.30559660       0.20307827       0.21195505 </v>
   <v>      -0.43698240       0.03328756       0.12448735 </v>
   <v>       0.31284034      -0.46657045       0.12450482 </v>
   <v>      -0.19447216       0.20296558       0.21175088 </v>
   <v>      -0.18871116      -0.46700296       0.12442497 </v>
   <v>       0.43021719      -0.04753936       0.21168809 </v>
   <v>       0.30514694      -0.29718633       0.21184660 </v>
   <v>      -0.43273232      -0.13774948       0.16689892 </v>
   <v>       0.18062433       0.45243214       0.21165567 </v>
   <v>      -0.30811113      -0.38790118       0.16696861 </v>
   <v>      -0.19470505      -0.29726408       0.21177952 </v>
   <v>      -0.06987726       0.45298074       0.21183231 </v>
   <v>      -0.31995610      -0.04710520       0.21181000 </v>
   <v>       0.44214562      -0.38780059       0.16681833 </v>
   <v>      -0.43281206       0.36249620       0.16697843 </v>
   <v>       0.06547001       0.03534009       0.25599257 </v>
   <v>      -0.44454788       0.20225284       0.21157675 </v>
   <v>       0.43060205       0.45233972       0.21161493 </v>
   <v>      -0.18454962       0.03522372       0.25597904 </v>
   <v>      -0.05954950      -0.21472679       0.25601123 </v>
   <v>       0.19039165      -0.21474015       0.25600789 </v>
   <v>      -0.05960621       0.28525259       0.25595811 </v>
   <v>       0.31543538       0.03552946       0.25598464 </v>
   <v>       0.19037652       0.28519059       0.25600377 </v>
   <v>      -0.43741227      -0.46702761       0.12445533 </v>
   <v>      -0.31945918       0.45240039       0.21165832 </v>
   <v>      -0.44461086      -0.29725222       0.21172340 </v>
   <v>      -0.30996911      -0.21444861       0.25601134 </v>
   <v>       0.06553979      -0.46482930       0.25595031 </v>
   <v>      -0.30955640       0.28522770       0.25599943 </v>
   <v>       0.44048574      -0.21464656       0.25596997 </v>
   <v>       0.44054134       0.28532321       0.25597659 </v>
   <v>      -0.18441735      -0.46463565       0.25598157 </v>
   <v>      -0.43439261       0.03544784       0.25598752 </v>
   <v>       0.31555317      -0.46467921       0.25596806 </v>
   <v>       0.05397035      -0.12681607       0.30014125 </v>
   <v>       0.17880777       0.12213054       0.30027271 </v>
   <v>      -0.07127767       0.12207417       0.30026860 </v>
   <v>       0.30363732      -0.12784639       0.30032495 </v>
   <v>      -0.19607922      -0.12785247       0.30021279 </v>
   <v>       0.05383205       0.37253289       0.30027981 </v>
   <v>       0.17890668      -0.37779278       0.30024443 </v>
   <v>       0.42844562       0.12181155       0.30036677 </v>
   <v>      -0.43456327      -0.46481182       0.25599189 </v>
   <v>       0.30373689       0.37226439       0.30027004 </v>
   <v>      -0.07134415      -0.37786571       0.30033013 </v>
   <v>      -0.32084207       0.12193034       0.30027324 </v>
   <v>      -0.19665126       0.37197549       0.30040013 </v>
   <v>      -0.44621916      -0.12793674       0.30028920 </v>
   <v>       0.42870614      -0.37794575       0.30033416 </v>
   <v>      -0.32116150      -0.37801845       0.30020976 </v>
   <v>      -0.44632378       0.37209836       0.30032885 </v>
   <v>      -0.05741726      -0.04803677       0.34502349 </v>
   <v>       0.19132207      -0.04828576       0.34498981 </v>
   <v>       0.06574190       0.20277281       0.34504551 </v>
   <v>       0.06636623      -0.29778111       0.34493092 </v>
   <v>      -0.18351698       0.20213329       0.34494764 </v>
   <v>       0.31622347       0.20216212       0.34489383 </v>
   <v>      -0.18337589      -0.29752457       0.34494765 </v>
   <v>      -0.30857144      -0.04819490       0.34498502 </v>
   <v>      -0.05866845       0.45159577       0.34489187 </v>
   <v>       0.31606472      -0.29838242       0.34491779 </v>
   <v>       0.19155380       0.45159616       0.34492420 </v>
   <v>       0.44186024      -0.04767390       0.34486159 </v>
   <v>      -0.43381912       0.20197743       0.34491029 </v>
   <v>      -0.30899870       0.45176457       0.34489811 </v>
   <v>       0.44147078       0.45201079       0.34500076 </v>
   <v>       0.06460368       0.04183992      -0.12439227 </v>
   <v>      -0.43409307      -0.29849409       0.34487175 </v>
   <v>      -0.05796066      -0.20328978      -0.12424302 </v>
   <v>       0.19283051      -0.20239921      -0.12418084 </v>
   <v>      -0.18506557       0.04176888      -0.12441396 </v>
   <v>       0.31472503       0.04174999      -0.12441173 </v>
   <v>      -0.05788045       0.29708998      -0.12429028 </v>
   <v>       0.19199422       0.29712116      -0.12418551 </v>
   <v>       0.05834956       0.03742406       0.38905124 </v>
   <v>      -0.30789148      -0.20295958      -0.12431540 </v>
   <v>       0.06469028      -0.45805046      -0.12439015 </v>
   <v>       0.44195125      -0.20258339      -0.12424674 </v>
   <v>      -0.30706489       0.29763468      -0.12425358 </v>
   <v>       0.44247922       0.29729876      -0.12420263 </v>
   <v>       0.30869362       0.03741110       0.38899181 </v>
   <v>       0.18357465      -0.21265577       0.38906174 </v>
   <v>      -0.06610189      -0.21307904       0.38891506 </v>
   <v>       0.18357030       0.28818197       0.38900133 </v>
   <v>      -0.06613787       0.28709807       0.38895877 </v>
   <v>      -0.19139220       0.03738195       0.38907513 </v>
   <v>      -0.18517268      -0.45808165      -0.12441058 </v>
   <v>       0.31482944      -0.45800149      -0.12438278 </v>
   <v>      -0.43520416       0.04165541      -0.12441692 </v>
   <v>       0.05829983      -0.46156221       0.38908098 </v>
   <v>       0.43376616      -0.21239058       0.38916185 </v>
   <v>       0.43368089       0.28759727       0.38906586 </v>
   <v>      -0.31633766      -0.21218334       0.38907323 </v>
   <v>      -0.31631513       0.28754561       0.38906446 </v>
   <v>      -0.44126960       0.03760507       0.38879874 </v>
   <v>       0.30845639      -0.46225138       0.38908166 </v>
   <v>      -0.19111504      -0.46223766       0.38909299 </v>
   <v>      -0.43511901      -0.45804886      -0.12439819 </v>
   <v>       0.18363309      -0.03705873      -0.16687943 </v>
   <v>      -0.06636513      -0.03674466      -0.16692734 </v>
   <v>       0.05881110       0.21311987      -0.16674938 </v>
   <v>       0.05867368      -0.28711373      -0.16683355 </v>
   <v>       0.30882547       0.21336161      -0.16673040 </v>
   <v>      -0.19142709       0.21300106      -0.16682549 </v>
   <v>      -0.44142813      -0.46255345       0.38906110 </v>
   <v>       0.30862183      -0.28697688      -0.16690656 </v>
   <v>      -0.19133761      -0.28715902      -0.16681225 </v>
   <v>       0.43356035      -0.03688537      -0.16691667 </v>
   <v>      -0.31640809      -0.03675706      -0.16694893 </v>
   <v>       0.18366011       0.46305588      -0.16685872 </v>
   <v>      -0.06643500       0.46320632      -0.16694522 </v>
   <v>      -0.06135823       0.11980228       0.43427516 </v>
   <v>       0.06274037      -0.12869364       0.43454209 </v>
   <v>       0.18817236       0.12003374       0.43446045 </v>
   <v>      -0.44132324       0.21305341      -0.16678125 </v>
   <v>       0.43347345       0.46281755      -0.16686636 </v>
   <v>      -0.31639595       0.46308749      -0.16691813 </v>
   <v>       0.31340493      -0.12927684       0.43431092 </v>
   <v>      -0.18747293      -0.12883827       0.43439572 </v>
   <v>      -0.44130152      -0.28693637      -0.16681221 </v>
   <v>       0.06318628       0.37089189       0.43443327 </v>
   <v>       0.18843855      -0.38033986       0.43426541 </v>
   <v>      -0.06270936      -0.38082187       0.43440609 </v>
   <v>       0.43792426       0.12037753       0.43444661 </v>
   <v>      -0.31186896       0.11999089       0.43450086 </v>
   <v>       0.31306305       0.37101162       0.43440891 </v>
   <v>      -0.18753505       0.37052862       0.43446944 </v>
   <v>       0.43854289      -0.37914679       0.43431872 </v>
   <v>      -0.31203892      -0.37966630       0.43445028 </v>
   <v>      -0.43711647      -0.12954183       0.43442801 </v>
   <v>      -0.43744972       0.37034958       0.43447385 </v>
   <v>       0.07078409      -0.12552525      -0.21158739 </v>
   <v>      -0.05425268       0.12477259      -0.21154083 </v>
   <v>       0.19552374       0.12483434      -0.21148316 </v>
   <v>      -0.17911995      -0.12555515      -0.21160230 </v>
   <v>       0.32075258      -0.12538995      -0.21160820 </v>
   <v>       0.07082093       0.37449543      -0.21160149 </v>
   <v>      -0.05430774      -0.37526845      -0.21154107 </v>
   <v>      -0.30432544       0.12475671      -0.21154340 </v>
   <v>       0.19551298      -0.37510143      -0.21145680 </v>
   <v>      -0.17915160       0.37445553      -0.21159976 </v>
   <v>       0.44561642       0.12482075      -0.21149864 </v>
   <v>       0.32081066       0.37450352      -0.21161146 </v>
   <v>      -0.30422437      -0.37531001      -0.21155096 </v>
   <v>      -0.42915228      -0.12544718      -0.21161984 </v>
   <v>       0.44549299      -0.37508884      -0.21150731 </v>
   <v>       0.18815836      -0.04402482       0.47862928 </v>
   <v>      -0.06238587      -0.04423990       0.47867766 </v>
   <v>       0.06271544       0.20573488       0.47864269 </v>
   <v>      -0.42916665       0.37444543      -0.21161464 </v>
   <v>       0.06304904      -0.29472987       0.47863993 </v>
   <v>      -0.18686717       0.20554304       0.47850664 </v>
   <v>       0.31288970       0.20580312       0.47860041 </v>
   <v>      -0.18699579      -0.29399796       0.47859971 </v>
   <v>       0.31230864      -0.29443600       0.47865369 </v>
   <v>       0.43784328      -0.04412011       0.47861042 </v>
   <v>      -0.31234270      -0.04408330       0.47865964 </v>
   <v>       0.18796855       0.45567093       0.47861118 </v>
   <v>      -0.06225887       0.45578435       0.47861750 </v>
   <v>      -0.43715165       0.20572195       0.47861415 </v>
   <v>       0.43784095       0.45593658       0.47861486 </v>
   <v>      -0.31227252       0.45576074       0.47864314 </v>
   <v>      -0.43714048      -0.29406733       0.47862734 </v>
   <v>       0.06051452       0.04229716      -0.25582596 </v>
   <v>       0.18580237      -0.20822188      -0.25584934 </v>
   <v>      -0.06422415      -0.20812332      -0.25584843 </v>
   <v>       0.31043738       0.04223552      -0.25582745 </v>
   <v>      -0.18941963       0.04240589      -0.25584488 </v>
   <v>       0.18576102       0.29189514      -0.25583452 </v>
   <v>      -0.06417100       0.29189521      -0.25584540 </v>
   <v>       0.06054287      -0.45783058      -0.25586689 </v>
   <v>       0.43569878      -0.20808261      -0.25584678 </v>
   <v>      -0.31430427      -0.20812715      -0.25585562 </v>
   <v>       0.43583497       0.29166467      -0.25584859 </v>
   <v>      -0.31428680       0.29178819      -0.25591020 </v>
   <v>       0.31053996      -0.45791345      -0.25583294 </v>
   <v>      -0.18949080      -0.45782666      -0.25585507 </v>
   <v>      -0.43943812       0.04225760      -0.25582263 </v>
   <v>       0.06332537      -0.12802704      -0.47873276 </v>
   <v>      -0.06139674       0.12253590      -0.47864937 </v>
   <v>       0.18826188       0.12280176      -0.47861081 </v>
   <v>      -0.18671760      -0.12807673      -0.47874369 </v>
   <v>       0.31369840      -0.12777153      -0.47868378 </v>
   <v>       0.06342852       0.37237215      -0.47863398 </v>
   <v>       0.18824589      -0.37788286      -0.47865733 </v>
   <v>      -0.06162577      -0.37781448      -0.47858384 </v>
   <v>      -0.31150942       0.12236162      -0.47862498 </v>
   <v>       0.43825341       0.12195329      -0.47864088 </v>
   <v>      -0.18666202       0.37219605      -0.47867418 </v>
   <v>       0.31350295       0.37232836      -0.47860863 </v>
   <v>      -0.43943532      -0.45783516      -0.25583468 </v>
   <v>       0.43838656      -0.37774772      -0.47868710 </v>
   <v>      -0.31160073      -0.37757612      -0.47861814 </v>
   <v>      -0.43683359      -0.12796187      -0.47862131 </v>
   <v>      -0.43649534       0.37235243      -0.47861927 </v>
   <v>      -0.05933311      -0.04171414      -0.30029419 </v>
   <v>       0.19045189      -0.04161555      -0.30029267 </v>
   <v>       0.06544525       0.20834575      -0.30029713 </v>
   <v>       0.06552300      -0.29166455      -0.30029492 </v>
   <v>      -0.18449066       0.20833490      -0.30034880 </v>
   <v>       0.31533759       0.20838566      -0.30031976 </v>
   <v>      -0.18468424      -0.29167179      -0.30032583 </v>
   <v>      -0.30954865      -0.04158357      -0.30030336 </v>
   <v>       0.31547694      -0.29161347      -0.30030883 </v>
   <v>       0.44054060      -0.04167165      -0.30029085 </v>
   <v>      -0.05935337       0.45842353      -0.30028849 </v>
   <v>       0.19045460       0.45844506      -0.30032159 </v>
   <v>      -0.43446358       0.20831742      -0.30030755 </v>
   <v>      -0.30949240       0.45833756      -0.30029275 </v>
   <v>       0.44036505       0.45836632      -0.30031604 </v>
   <v>       0.18888010      -0.04265814      -0.43477449 </v>
   <v>      -0.06135928      -0.04213772      -0.43454146 </v>
   <v>       0.06390782       0.20773729      -0.43444731 </v>
   <v>      -0.43465707      -0.29162556      -0.30032224 </v>
   <v>       0.06377623      -0.29228760      -0.43457169 </v>
   <v>      -0.18626150       0.20751770      -0.43461703 </v>
   <v>       0.31395095       0.20782382      -0.43444907 </v>
   <v>      -0.18595084      -0.29243928      -0.43459844 </v>
   <v>       0.31374054      -0.29234020      -0.43449919 </v>
   <v>      -0.31120212      -0.04220264      -0.43454400 </v>
   <v>       0.43880543      -0.04229938      -0.43456238 </v>
   <v>      -0.06103607       0.45721821      -0.43456586 </v>
   <v>       0.18888287       0.45751290      -0.43460417 </v>
   <v>      -0.43605090       0.20727908      -0.43456709 </v>
   <v>      -0.31127728       0.45768136      -0.43456778 </v>
   <v>       0.43878237       0.45775542      -0.43454242 </v>
   <v>      -0.43605898      -0.29240992      -0.43460382 </v>
   <v>       0.05891070      -0.12411190      -0.34506720 </v>
   <v>       0.18385773       0.12586582      -0.34507922 </v>
   <v>      -0.06606495       0.12598783      -0.34504222 </v>
   <v>       0.30892579      -0.12419334      -0.34502830 </v>
   <v>      -0.19120314      -0.12436976      -0.34506940 </v>
   <v>       0.05883450       0.37581158      -0.34509982 </v>
   <v>       0.18384268      -0.37429108      -0.34504990 </v>
   <v>      -0.06611582      -0.37402874      -0.34505742 </v>
   <v>       0.43378658       0.12573108      -0.34510926 </v>
   <v>       0.30889879       0.37581245      -0.34506366 </v>
   <v>      -0.31594701       0.12607529      -0.34502820 </v>
   <v>      -0.19113335       0.37559369      -0.34509154 </v>
   <v>       0.43393172      -0.37419864      -0.34505192 </v>
   <v>      -0.44113769      -0.12435866      -0.34506737 </v>
   <v>      -0.31598392      -0.37393581      -0.34501490 </v>
   <v>      -0.44113437       0.37576237      -0.34507784 </v>
   <v>       0.06277009       0.04172610      -0.38923795 </v>
   <v>      -0.06211901      -0.20816228      -0.38924517 </v>
   <v>       0.18762066      -0.20806620      -0.38914257 </v>
   <v>      -0.18705669       0.04173088      -0.38928267 </v>
   <v>       0.18780239       0.29181763      -0.38918795 </v>
   <v>       0.31264629       0.04175037      -0.38901600 </v>
   <v>      -0.06224001       0.29175011      -0.38913828 </v>
   <v>       0.06263956      -0.45827521      -0.38900601 </v>
   <v>       0.43763071      -0.20800894      -0.38912606 </v>
   <v>      -0.31225763      -0.20806586      -0.38912470 </v>
   <v>       0.43781440       0.29176363      -0.38918806 </v>
   <v>      -0.31237804       0.29196652      -0.38909221 </v>
   <v>      -0.18737475      -0.45807712      -0.38913007 </v>
   <v>       0.31261051      -0.45803102      -0.38912163 </v>
   <v>      -0.43728092       0.04173757      -0.38919264 </v>
   <v>      -0.43727791      -0.45819432      -0.38914349 </v>
  </varray>
 </structure>
 <varray name="primitive_index" >
  <v type="int" >        1 </v>
  <v type="int" >       26 </v>
  <v type="int" >      282 </v>
  <v type="int" >       60 </v>
  <v type="int" >      111 </v>
  <v type="int" >      256 </v>
  <v type="int" >       83 </v>
  <v type="int" >      155 </v>
  <v type="int" >      202 </v>
  <v type="int" >      212 </v>
  <v type="int" >       51 </v>
  <v type="int" >      102 </v>
  <v type="int" >      192 </v>
  <v type="int" >      252 </v>
  <v type="int" >      166 </v>
  <v type="int" >      146 </v>
  <v type="int" >        5 </v>
  <v type="int" >       50 </v>
  <v type="int" >      273 </v>
  <v type="int" >      104 </v>
  <v type="int" >      117 </v>
  <v type="int" >      182 </v>
  <v type="int" >      176 </v>
  <v type="int" >      145 </v>
  <v type="int" >       20 </v>
  <v type="int" >       48 </v>
  <v type="int" >      163 </v>
  <v type="int" >      250 </v>
  <v type="int" >      123 </v>
  <v type="int" >      251 </v>
  <v type="int" >       91 </v>
  <v type="int" >      167 </v>
  <v type="int" >      205 </v>
  <v type="int" >      229 </v>
  <v type="int" >      276 </v>
  <v type="int" >      277 </v>
  <v type="int" >      189 </v>
  <v type="int" >       97 </v>
  <v type="int" >      213 </v>
  <v type="int" >      175 </v>
  <v type="int" >       92 </v>
  <v type="int" >      174 </v>
  <v type="int" >       30 </v>
  <v type="int" >      185 </v>
  <v type="int" >      103 </v>
  <v type="int" >      139 </v>
  <v type="int" >       24 </v>
  <v type="int" >       52 </v>
  <v type="int" >      200 </v>
  <v type="int" >      127 </v>
  <v type="int" >      179 </v>
  <v type="int" >       35 </v>
  <v type="int" >      164 </v>
  <v type="int" >      261 </v>
  <v type="int" >      243 </v>
  <v type="int" >      118 </v>
  <v type="int" >      168 </v>
  <v type="int" >       58 </v>
  <v type="int" >      137 </v>
  <v type="int" >      265 </v>
  <v type="int" >       81 </v>
  <v type="int" >      281 </v>
  <v type="int" >      275 </v>
  <v type="int" >      214 </v>
  <v type="int" >      215 </v>
  <v type="int" >      135 </v>
  <v type="int" >       98 </v>
  <v type="int" >       72 </v>
  <v type="int" >      226 </v>
  <v type="int" >      263 </v>
  <v type="int" >      159 </v>
  <v type="int" >       28 </v>
  <v type="int" >      242 </v>
  <v type="int" >      178 </v>
  <v type="int" >      109 </v>
  <v type="int" >      220 </v>
  <v type="int" >      210 </v>
  <v type="int" >      101 </v>
  <v type="int" >      130 </v>
  <v type="int" >      171 </v>
  <v type="int" >      287 </v>
  <v type="int" >      258 </v>
  <v type="int" >       47 </v>
  <v type="int" >      216 </v>
  <v type="int" >      207 </v>
  <v type="int" >       86 </v>
  <v type="int" >       73 </v>
  <v type="int" >       25 </v>
  <v type="int" >       12 </v>
  <v type="int" >      208 </v>
  <v type="int" >      116 </v>
  <v type="int" >      172 </v>
  <v type="int" >      219 </v>
  <v type="int" >      279 </v>
  <v type="int" >      206 </v>
  <v type="int" >       84 </v>
  <v type="int" >       62 </v>
  <v type="int" >      105 </v>
  <v type="int" >      268 </v>
  <v type="int" >        2 </v>
  <v type="int" >      245 </v>
  <v type="int" >      280 </v>
  <v type="int" >      120 </v>
  <v type="int" >      124 </v>
  <v type="int" >       29 </v>
  <v type="int" >      266 </v>
  <v type="int" >      150 </v>
  <v type="int" >      191 </v>
  <v type="int" >      255 </v>
  <v type="int" >      165 </v>
  <v type="int" >        7 </v>
  <v type="int" >      190 </v>
  <v type="int" >      248 </v>
  <v type="int" >       13 </v>
  <v type="int" >       38 </v>
  <v type="int" >      247 </v>
  <v type="int" >       18 </v>
  <v type="int" >      161 </v>
  <v type="int" >      286 </v>
  <v type="int" >      264 </v>
  <v type="int" >        4 </v>
  <v type="int" >       45 </v>
  <v type="int" >       55 </v>
  <v type="int" >       16 </v>
  <v type="int" >       67 </v>
  <v type="int" >      270 </v>
  <v type="int" >       64 </v>
  <v type="int" >      173 </v>
  <v type="int" >       17 </v>
  <v type="int" >      259 </v>
  <v type="int" >      134 </v>
  <v type="int" >       39 </v>
  <v type="int" >        6 </v>
  <v type="int" >      222 </v>
  <v type="int" >      249 </v>
  <v type="int" >      253 </v>
  <v type="int" >      110 </v>
  <v type="int" >       88 </v>
  <v type="int" >      181 </v>
  <v type="int" >       36 </v>
  <v type="int" >      158 </v>
  <v type="int" >      204 </v>
  <v type="int" >      160 </v>
  <v type="int" >      143 </v>
  <v type="int" >       74 </v>
  <v type="int" >       82 </v>
  <v type="int" >       23 </v>
  <v type="int" >      285 </v>
  <v type="int" >      241 </v>
  <v type="int" >      218 </v>
  <v type="int" >      238 </v>
  <v type="int" >      131 </v>
  <v type="int" >      201 </v>
  <v type="int" >      257 </v>
  <v type="int" >      113 </v>
  <v type="int" >       80 </v>
  <v type="int" >      283 </v>
  <v type="int" >      232 </v>
  <v type="int" >       69 </v>
  <v type="int" >      235 </v>
  <v type="int" >      197 </v>
  <v type="int" >      149 </v>
  <v type="int" >        3 </v>
  <v type="int" >      112 </v>
  <v type="int" >      224 </v>
  <v type="int" >      254 </v>
  <v type="int" >      132 </v>
  <v type="int" >      188 </v>
  <v type="int" >      272 </v>
  <v type="int" >       57 </v>
  <v type="int" >       49 </v>
  <v type="int" >      138 </v>
  <v type="int" >       66 </v>
  <v type="int" >       33 </v>
  <v type="int" >      184 </v>
  <v type="int" >      288 </v>
  <v type="int" >      236 </v>
  <v type="int" >      223 </v>
  <v type="int" >      106 </v>
  <v type="int" >      157 </v>
  <v type="int" >       21 </v>
  <v type="int" >      230 </v>
  <v type="int" >      234 </v>
  <v type="int" >       99 </v>
  <v type="int" >      221 </v>
  <v type="int" >       75 </v>
  <v type="int" >      244 </v>
  <v type="int" >      269 </v>
  <v type="int" >      237 </v>
  <v type="int" >      156 </v>
  <v type="int" >      199 </v>
  <v type="int" >      169 </v>
  <v type="int" >        9 </v>
  <v type="int" >      262 </v>
  <v type="int" >       46 </v>
  <v type="int" >      239 </v>
  <v type="int" >      151 </v>
  <v type="int" >       11 </v>
  <v type="int" >      187 </v>
  <v type="int" >      211 </v>
  <v type="int" >       31 </v>
  <v type="int" >       43 </v>
  <v type="int" >       71 </v>
  <v type="int" >       19 </v>
  <v type="int" >       94 </v>
  <v type="int" >       87 </v>
  <v type="int" >      267 </v>
  <v type="int" >      284 </v>
  <v type="int" >       27 </v>
  <v type="int" >      140 </v>
  <v type="int" >       10 </v>
  <v type="int" >      144 </v>
  <v type="int" >      107 </v>
  <v type="int" >       68 </v>
  <v type="int" >      203 </v>
  <v type="int" >       34 </v>
  <v type="int" >      152 </v>
  <v type="int" >      177 </v>
  <v type="int" >      183 </v>
  <v type="int" >      278 </v>
  <v type="int" >       14 </v>
  <v type="int" >      195 </v>
  <v type="int" >       77 </v>
  <v type="int" >      108 </v>
  <v type="int" >      225 </v>
  <v type="int" >      119 </v>
  <v type="int" >       37 </v>
  <v type="int" >      274 </v>
  <v type="int" >      233 </v>
  <v type="int" >       63 </v>
  <v type="int" >      141 </v>
  <v type="int" >       54 </v>
  <v type="int" >      154 </v>
  <v type="int" >      125 </v>
  <v type="int" >      136 </v>
  <v type="int" >      246 </v>
  <v type="int" >       53 </v>
  <v type="int" >       76 </v>
  <v type="int" >      193 </v>
  <v type="int" >      162 </v>
  <v type="int" >      129 </v>
  <v type="int" >      170 </v>
  <v type="int" >      133 </v>
  <v type="int" >       65 </v>
  <v type="int" >      271 </v>
  <v type="int" >       93 </v>
  <v type="int" >       32 </v>
  <v type="int" >       90 </v>
  <v type="int" >       95 </v>
  <v type="int" >       56 </v>
  <v type="int" >       42 </v>
  <v type="int" >       59 </v>
  <v type="int" >        8 </v>
  <v type="int" >      228 </v>
  <v type="int" >       70 </v>
  <v type="int" >      186 </v>
  <v type="int" >      196 </v>
  <v type="int" >      121 </v>
  <v type="int" >      122 </v>
  <v type="int" >       44 </v>
  <v type="int" >       79 </v>
  <v type="int" >      198 </v>
  <v type="int" >      153 </v>
  <v type="int" >      240 </v>
  <v type="int" >      231 </v>
  <v type="int" >       85 </v>
  <v type="int" >      209 </v>
  <v type="int" >      194 </v>
  <v type="int" >       40 </v>
  <v type="int" >       89 </v>
  <v type="int" >      227 </v>
  <v type="int" >       78 </v>
  <v type="int" >      142 </v>
  <v type="int" >      114 </v>
  <v type="int" >       15 </v>
  <v type="int" >      217 </v>
  <v type="int" >       61 </v>
  <v type="int" >      148 </v>
  <v type="int" >      100 </v>
  <v type="int" >      126 </v>
  <v type="int" >       96 </v>
  <v type="int" >      180 </v>
  <v type="int" >      115 </v>
  <v type="int" >      147 </v>
  <v type="int" >       22 </v>
  <v type="int" >       41 </v>
  <v type="int" >      260 </v>
  <v type="int" >      128 </v>
 </varray>
 <kpoints>
  <generation param="Gamma">
   <v type="int" name="divisions">       4        4        1 </v>
   <v name="usershift">      0.00000000       0.00000000       0.00000000 </v>
   <v name="genvec1">      0.25000000       0.00000000       0.00000000 </v>
   <v name="genvec2">      0.00000000       0.25000000       0.00000000 </v>
   <v name="genvec3">      0.00000000       0.00000000       1.00000000 </v>
   <v name="shift">      0.00000000       0.00000000       0.00000000 </v>
  </generation>
  <varray name="kpointlist" >
   <v>       0.00000000       0.00000000       0.00000000 </v>
   <v>       0.25000000       0.00000000       0.00000000 </v>
   <v>       0.50000000       0.00000000       0.00000000 </v>
   <v>       0.00000000       0.25000000       0.00000000 </v>
   <v>       0.25000000       0.25000000       0.00000000 </v>
   <v>       0.50000000       0.25000000       0.00000000 </v>
   <v>      -0.25000000       0.25000000       0.00000000 </v>
   <v>       0.00000000       0.50000000       0.00000000 </v>
   <v>       0.25000000       0.50000000       0.00000000 </v>
   <v>       0.50000000       0.50000000       0.00000000 </v>
  </varray>
  <varray name="weights" >
   <v>       0.06250000 </v>
   <v>       0.12500000 </v>
   <v>       0.06250000 </v>
   <v>       0.12500000 </v>
   <v>       0.12500000 </v>
   <v>       0.12500000 </v>
   <v>       0.12500000 </v>
   <v>       0.06250000 </v>
   <v>       0.12500000 </v>
   <v>       0.06250000 </v>
  </varray>
 </kpoints>
 <parameters>
  <separator name="general" >
   <i type="string" name="SYSTEM">unknown system</i>
   <i type="logical" name="LCOMPAT"> F  </i>
  </separator>
  <separator name="electronic" >
   <i type="string" name="PREC">accura</i>
   <i name="ENMAX">    450.00000000</i>
   <i name="ENAUG">    838.43500000</i>
   <i name="EDIFF">      0.00000100</i>
   <i type="int" name="IALGO">    68</i>
   <i type="int" name="IWAVPR">    11</i>
   <i type="int" name="NBANDS">  1386</i>
   <i name="NELECT">   2297.00000000</i>
   <i type="int" name="TURBO">     0</i>
   <i type="int" name="IRESTART">     0</i>
   <i type="int" name="NREBOOT">     0</i>
   <i type="int" name="NMIN">     0</i>
   <i name="EREF">      0.00000000</i>
   <separator name="electronic smearing" >
    <i type="int" name="ISMEAR">     0</i>
    <i name="SIGMA">      0.15000000</i>
    <i name="KSPACING">      0.50000000</i>
    <i type="logical" name="KGAMMA"> T  </i>
   </separator>
   <separator name="electronic projectors" >
    <i type="logical" name="LREAL"> T  </i>
    <v name="ROPT">     -0.00025000     -0.00025000</v>
    <i type="int" name="LMAXPAW">  -100</i>
    <i type="int" name="LMAXMIX">     2</i>
    <i type="logical" name="NLSPLINE"> F  </i>
   </separator>
   <separator name="electronic startup" >
    <i type="int" name="ISTART">     0</i>
    <i type="int" name="ICHARG">     2</i>
    <i type="int" name="INIWAV">     1</i>
   </separator>
   <separator name="electronic spin" >
    <i type="int" name="ISPIN">     1</i>
    <i type="logical" name="LNONCOLLINEAR"> F  </i>
    <v name="MAGMOM">      1.00000000      1.00000000      1.00000000      1.00000000      1.00000000      1.00000000      1.00000000      1.00000000      1.00000000      1.00000000      1.00000000      1.00000000      1.00000000      1.00000000      1.00000000      1.00000000      1.00000000      1.00000000      1.00000000      1.00000000
      1.00000000      1.00000000      1.00000000      1.00000000      1.00000000      1.00000000      1.00000000      1.00000000      1.00000000      1.00000000      1.00000000      1.00000000      1.00000000      1.00000000      1.00000000      1.00000000      1.00000000      1.00000000      1.00000000      1.00000000
      1.00000000      1.00000000      1.00000000      1.00000000      1.00000000      1.00000000      1.00000000      1.00000000      1.00000000      1.00000000      1.00000000      1.00000000      1.00000000      1.00000000      1.00000000      1.00000000      1.00000000      1.00000000      1.00000000      1.00000000
      1.00000000      1.00000000      1.00000000      1.00000000      1.00000000      1.00000000      1.00000000      1.00000000      1.00000000      1.00000000      1.00000000      1.00000000      1.00000000      1.00000000      1.00000000      1.00000000      1.00000000      1.00000000      1.00000000      1.00000000
      1.00000000      1.00000000      1.00000000      1.00000000      1.00000000      1.00000000      1.00000000      1.00000000      1.00000000      1.00000000      1.00000000      1.00000000      1.00000000      1.00000000      1.00000000      1.00000000      1.00000000      1.00000000      1.00000000      1.00000000
      1.00000000      1.00000000      1.00000000      1.00000000      1.00000000      1.00000000      1.00000000      1.00000000      1.00000000      1.00000000      1.00000000      1.00000000      1.00000000      1.00000000      1.00000000      1.00000000      1.00000000      1.00000000      1.00000000      1.00000000
      1.00000000      1.00000000      1.00000000      1.00000000      1.00000000      1.00000000      1.00000000      1.00000000      1.00000000      1.00000000      1.00000000      1.00000000      1.00000000      1.00000000      1.00000000      1.00000000      1.00000000      1.00000000      1.00000000      1.00000000
      1.00000000      1.00000000      1.00000000      1.00000000      1.00000000      1.00000000      1.00000000      1.00000000      1.00000000      1.00000000      1.00000000      1.00000000      1.00000000      1.00000000      1.00000000      1.00000000      1.00000000      1.00000000      1.00000000      1.00000000
      1.00000000      1.00000000      1.00000000      1.00000000      1.00000000      1.00000000      1.00000000      1.00000000      1.00000000      1.00000000      1.00000000      1.00000000      1.00000000      1.00000000      1.00000000      1.00000000      1.00000000      1.00000000      1.00000000      1.00000000
      1.00000000      1.00000000      1.00000000      1.00000000      1.00000000      1.00000000      1.00000000      1.00000000      1.00000000      1.00000000      1.00000000      1.00000000      1.00000000      1.00000000      1.00000000      1.00000000      1.00000000      1.00000000      1.00000000      1.00000000
      1.00000000      1.00000000      1.00000000      1.00000000      1.00000000      1.00000000      1.00000000      1.00000000      1.00000000      1.00000000      1.00000000      1.00000000      1.00000000      1.00000000      1.00000000      1.00000000      1.00000000      1.00000000      1.00000000      1.00000000
      1.00000000      1.00000000      1.00000000      1.00000000      1.00000000      1.00000000      1.00000000      1.00000000      1.00000000      1.00000000      1.00000000      1.00000000      1.00000000      1.00000000      1.00000000      1.00000000      1.00000000      1.00000000      1.00000000      1.00000000
      1.00000000      1.00000000      1.00000000      1.00000000      1.00000000      1.00000000      1.00000000      1.00000000      1.00000000      1.00000000      1.00000000      1.00000000      1.00000000      1.00000000      1.00000000      1.00000000      1.00000000      1.00000000      1.00000000      1.00000000
      1.00000000      1.00000000      1.00000000      1.00000000      1.00000000      1.00000000      1.00000000      1.00000000      1.00000000      1.00000000      1.00000000      1.00000000      1.00000000      1.00000000      1.00000000      1.00000000      1.00000000      1.00000000      1.00000000      1.00000000
      1.00000000      1.00000000      1.00000000      1.00000000      1.00000000      1.00000000      1.00000000      1.00000000</v>
    <i name="NUPDOWN">     -1.00000000</i>
    <i type="logical" name="LSORBIT"> F  </i>
    <v name="SAXIS">      0.00000000      0.00000000      1.00000000</v>
    <i type="logical" name="LSPIRAL"> F  </i>
    <v name="QSPIRAL">      0.00000000      0.00000000      0.00000000</v>
    <i type="logical" name="LZEROZ"> F  </i>
   </separator>
   <separator name="electronic exchange-correlation" >
    <i type="logical" name="LASPH"> F  </i>
    <i type="logical" name="LMETAGGA"> F  </i>
   </separator>
   <separator name="electronic convergence" >
    <i type="int" name="NELM">   100</i>
    <i type="int" name="NELMDL">     0</i>
    <i type="int" name="NELMIN">     4</i>
    <i name="ENINI">    450.00000000</i>
    <separator name="electronic convergence detail" >
     <i type="logical" name="LDIAG"> T  </i>
     <i type="logical" name="LSUBROT"> F  </i>
     <i name="WEIMIN">      0.00100000</i>
     <i name="EBREAK">      0.00000000</i>
     <i name="DEPER">      0.30000000</i>
     <i type="int" name="NRMM">     4</i>
     <i name="TIME">      0.40000000</i>
    </separator>
   </separator>
   <separator name="electronic mixer" >
    <i name="AMIX">      0.40000000</i>
    <i name="BMIX">      1.00000000</i>
    <i name="AMIN">      0.10000000</i>
    <i name="AMIX_MAG">      1.60000000</i>
    <i name="BMIX_MAG">      1.00000000</i>
    <separator name="electronic mixer details" >
     <i type="int" name="IMIX">     4</i>
     <i type="logical" name="MIXFIRST"> F  </i>
     <i type="int" name="MAXMIX">   -45</i>
     <i name="WC">    100.00000000</i>
     <i type="int" name="INIMIX">     1</i>
     <i type="int" name="MIXPRE">     1</i>
     <i type="int" name="MREMOVE">     5</i>
    </separator>
   </separator>
   <separator name="electronic dipolcorrection" >
    <i type="logical" name="LDIPOL"> F  </i>
    <i type="logical" name="LMONO"> F  </i>
    <i type="int" name="IDIPOL">     0</i>
    <i name="EPSILON">      1.00000000</i>
    <v name="DIPOL">   -100.00000000   -100.00000000   -100.00000000</v>
    <i name="EFIELD">      0.00000000</i>
   </separator>
  </separator>
  <separator name="grids" >
   <i type="int" name="NGX">    70</i>
   <i type="int" name="NGY">    60</i>
   <i type="int" name="NGZ">   320</i>
   <i type="int" name="NGXF">   140</i>
   <i type="int" name="NGYF">   120</i>
   <i type="int" name="NGZF">   640</i>
   <i type="logical" name="ADDGRID"> F  </i>
  </separator>
  <separator name="ionic" >
   <i type="int" name="NSW">     5</i>
   <i type="int" name="IBRION">     2</i>
   <i type="int" name="MDALGO">     0</i>
   <i type="int" name="ISIF">     2</i>
   <i name="PSTRESS">      0.00000000</i>
   <i name="EDIFFG">      0.00001000</i>
   <i type="int" name="NFREE">     1</i>
   <i name="POTIM">      0.25000000</i>
   <i name="SMASS">     -3.00000000</i>
   <i name="SCALEE">      1.00000000</i>
  </separator>
  <separator name="ionic md" >
   <i name="TEBEG">      0.00010000</i>
   <i name="TEEND">      0.00010000</i>
   <i type="int" name="NBLOCK">     1</i>
   <i type="int" name="KBLOCK">     5</i>
   <i type="int" name="NPACO">   256</i>
   <i name="APACO">     16.00000000</i>
  </separator>
  <separator name="symmetry" >
   <i type="int" name="ISYM">     2</i>
   <i name="SYMPREC">      0.00001000</i>
  </separator>
  <separator name="dos" >
   <i type="int" name="LORBIT">     0</i>
   <v name="RWIGS">     -1.00000000     -1.00000000</v>
   <i type="int" name="NEDOS">   301</i>
   <i name="EMIN">     10.00000000</i>
   <i name="EMAX">    -10.00000000</i>
   <i name="EFERMI">      0.00000000</i>
  </separator>
  <separator name="writing" >
   <i type="int" name="NWRITE">     2</i>
   <i type="logical" name="LWAVE"> F  </i>
   <i type="logical" name="LDOWNSAMPLE"> F  </i>
   <i type="logical" name="LCHARG"> F  </i>
   <i type="logical" name="LPARD"> F  </i>
   <i type="logical" name="LVTOT"> F  </i>
   <i type="logical" name="LVHAR"> F  </i>
   <i type="logical" name="LELF"> F  </i>
   <i type="logical" name="LOPTICS"> F  </i>
   <v name="STM">      0.00000000      0.00000000      0.00000000      0.00000000      0.00000000      0.00000000      0.00000000</v>
  </separator>
  <separator name="performance" >
   <i type="int" name="NPAR">    14</i>
   <i type="int" name="NSIM">     4</i>
   <i type="int" name="NBLK">    -1</i>
   <i type="logical" name="LPLANE"> T  </i>
   <i type="logical" name="LSCALAPACK"> T  </i>
   <i type="logical" name="LSCAAWARE"> T  </i>
   <i type="logical" name="LSCALU"> F  </i>
   <i type="logical" name="LASYNC"> F  </i>
   <i type="logical" name="LORBITALREAL"> F  </i>
  </separator>
  <separator name="miscellaneous" >
   <i type="int" name="IDIOT">     3</i>
   <i type="int" name="ISPECIAL">     0</i>
   <i type="logical" name="LMUSIC"> F  </i>
   <v name="POMASS">     55.84700000     54.93800000</v>
   <v name="DARWINR">      0.00000000      0.00000000</v>
   <v name="DARWINV">      1.00000000      1.00000000</v>
   <i type="logical" name="LCORR"> T  </i>
  </separator>
  <i type="logical" name="GGA_COMPAT"> T  </i>
  <i type="logical" name="LBERRY"> F  </i>
  <i type="int" name="ICORELEVEL">     0</i>
  <i type="logical" name="LDAU"> F  </i>
  <i type="int" name="I_CONSTRAINED_M">     0</i>
  <separator name="electronic exchange-correlation" >
   <i type="string" name="GGA">--</i>
   <i type="int" name="VOSKOWN">     0</i>
   <i type="logical" name="LHFCALC"> F  </i>
   <i type="string" name="PRECFOCK"></i>
   <i type="logical" name="LSYMGRAD"> F  </i>
   <i type="logical" name="LHFONE"> F  </i>
   <i type="logical" name="LRHFCALC"> F  </i>
   <i type="logical" name="LTHOMAS"> F  </i>
   <i type="logical" name="LMODELHF"> F  </i>
   <i name="ENCUT4O">     -1.00000000</i>
   <i type="int" name="EXXOEP">     0</i>
   <i type="int" name="FOURORBIT">     0</i>
   <i name="AEXX">      0.00000000</i>
   <i name="HFALPHA">      0.00000000</i>
   <i name="MCALPHA">      0.00000000</i>
   <i name="ALDAX">      1.00000000</i>
   <i name="AGGAX">      1.00000000</i>
   <i name="ALDAC">      1.00000000</i>
   <i name="AGGAC">      1.00000000</i>
   <i type="int" name="NKREDX">     1</i>
   <i type="int" name="NKREDY">     1</i>
   <i type="int" name="NKREDZ">     1</i>
   <i type="logical" name="SHIFTRED"> F  </i>
   <i type="logical" name="ODDONLY"> F  </i>
   <i type="logical" name="EVENONLY"> F  </i>
   <i type="int" name="LMAXFOCK">     0</i>
   <i type="int" name="NMAXFOCKAE">     0</i>
   <i type="logical" name="LFOCKAEDFT"> F  </i>
   <i name="HFSCREEN">      0.00000000</i>
   <i name="HFSCREENC">      0.00000000</i>
   <i type="int" name="NBANDSGWLOW">     0</i>
  </separator>
  <separator name="vdW DFT" >
   <i type="logical" name="LUSE_VDW"> F  </i>
   <i name="Zab_VDW">     -0.84910000</i>
   <i name="PARAM1">      0.12340000</i>
   <i name="PARAM2">      1.00000000</i>
   <i name="PARAM3">      0.00000000</i>
  </separator>
  <separator name="model GW" >
   <i type="int" name="MODEL_GW">     0</i>
   <i name="MODEL_EPS0">      7.68123389</i>
   <i name="MODEL_ALPHA">      1.00000000</i>
  </separator>
  <separator name="linear response parameters" >
   <i type="logical" name="LEPSILON"> F  </i>
   <i type="logical" name="LRPA"> F  </i>
   <i type="logical" name="LNABLA"> F  </i>
   <i type="logical" name="LVEL"> F  </i>
   <i type="int" name="KINTER">     0</i>
   <i name="CSHIFT">      0.10000000</i>
   <i name="OMEGAMAX">     -1.00000000</i>
   <i name="DEG_THRESHOLD">      0.00200000</i>
   <i name="RTIME">     -0.10000000</i>
   <i name="WPLASMAI">      0.00000000</i>
   <v name="DFIELD">      0.00000000      0.00000000      0.00000000</v>
   <v name="WPLASMA">      0.00000000      0.00000000      0.00000000      0.00000000      0.00000000      0.00000000      0.00000000      0.00000000      0.00000000</v>
  </separator>
  <separator name="orbital magnetization" >
   <i type="logical" name="NUCIND"> F  </i>
   <v name="MAGPOS">      0.00000000      0.00000000      0.00000000</v>
   <i type="logical" name="LNICSALL"> T  </i>
   <i type="logical" name="ORBITALMAG"> F  </i>
   <i type="logical" name="LMAGBLOCH"> F  </i>
   <i type="logical" name="LCHIMAG"> F  </i>
   <i type="logical" name="LGAUGE"> T  </i>
   <i type="int" name="MAGATOM">     0</i>
   <v name="MAGDIPOL">      0.00000000      0.00000000      0.00000000</v>
   <v name="AVECCONST">      0.00000000      0.00000000      0.00000000</v>
  </separator>
  <separator name="response functions" >
   <i type="logical" name="LADDER"> F  </i>
   <i type="logical" name="LRPAFORCE"> F  </i>
   <i type="logical" name="LFXC"> F  </i>
   <i type="logical" name="LHARTREE"> T  </i>
   <i type="int" name="IBSE">     0</i>
   <v type="int" name="KPOINT">    -1     0     0     0</v>
   <i type="logical" name="LTCTE"> F  </i>
   <i type="logical" name="LTETE"> F  </i>
   <i type="logical" name="LTRIPLET"> F  </i>
   <i type="logical" name="LFXCEPS"> F  </i>
   <i type="logical" name="LFXHEG"> F  </i>
   <i type="int" name="NATURALO">     2</i>
   <i type="logical" name="L2ORDER"> F  </i>
   <i type="logical" name="LMP2LT"> F  </i>
   <i type="logical" name="LUSEW"> F  </i>
   <i name="ENCUTGW">     -2.00000000</i>
   <i name="ENCUTGWSOFT">     -2.00000000</i>
   <i name="ENCUTLF">     -1.00000000</i>
   <i type="int" name="LMAXMP2">    -1</i>
   <i name="SCISSOR">      0.00000000</i>
   <i type="int" name="NOMEGA">     0</i>
   <i type="int" name="NOMEGAR">     0</i>
   <i type="int" name="NBANDSGW">    -1</i>
   <i type="int" name="NBANDSO">    -1</i>
   <i type="int" name="NBANDSV">    -1</i>
   <i type="int" name="NELM">   100</i>
   <i type="int" name="NELMHF">     1</i>
   <i type="int" name="DIM">     3</i>
   <i type="int" name="ANTIRES">     0</i>
   <i name="OMEGAMAX">    -30.00000000</i>
   <i name="OMEGAMIN">    -30.00000000</i>
   <i name="OMEGATL">   -200.00000000</i>
   <i type="int" name="OMEGAGRID">   140</i>
   <i name="CSHIFT">     -0.10000000</i>
   <i type="logical" name="SELFENERGY"> F  </i>
   <i type="logical" name="LSPECTRAL"> F  </i>
   <i type="logical" name="LSPECTRALGW"> F  </i>
   <i type="logical" name="LSINGLES"> F  </i>
   <i type="logical" name="LFERMIGW"> F  </i>
   <i type="logical" name="ODDONLYGW"> F  </i>
   <i type="logical" name="EVENONLYGW"> F  </i>
   <i type="int" name="NKREDLFX">     1</i>
   <i type="int" name="NKREDLFY">     1</i>
   <i type="int" name="NKREDLFZ">     1</i>
   <i type="int" name="MAXMEM">  2800</i>
   <i type="int" name="TELESCOPE">     0</i>
   <i type="int" name="TAUPAR">     1</i>
   <i type="int" name="OMEGAPAR">    -1</i>
   <i name="LAMBDA">      1.00000000</i>
  </separator>
  <separator name="External order field" >
   <i name="OFIELD_KAPPA">      0.00000000</i>
   <v name="OFIELD_K">      0.00000000      0.00000000      0.00000000</v>
   <i name="OFIELD_Q6_NEAR">      0.00000000</i>
   <i name="OFIELD_Q6_FAR">      0.00000000</i>
   <i name="OFIELD_A">      0.00000000</i>
  </separator>
 </parameters>
 <atominfo>
  <atoms>     288 </atoms>
  <types>       2 </types>
  <array name="atoms" >
   <dimension dim="1">ion</dimension>
   <field type="string">element</field>
   <field type="int">atomtype</field>
   <set>
    <rc><c>Fe</c><c>   1</c></rc>
    <rc><c>Fe</c><c>   1</c></rc>
    <rc><c>Fe</c><c>   1</c></rc>
    <rc><c>Fe</c><c>   1</c></rc>
    <rc><c>Fe</c><c>   1</c></rc>
    <rc><c>Fe</c><c>   1</c></rc>
    <rc><c>Fe</c><c>   1</c></rc>
    <rc><c>Fe</c><c>   1</c></rc>
    <rc><c>Fe</c><c>   1</c></rc>
    <rc><c>Fe</c><c>   1</c></rc>
    <rc><c>Fe</c><c>   1</c></rc>
    <rc><c>Fe</c><c>   1</c></rc>
    <rc><c>Fe</c><c>   1</c></rc>
    <rc><c>Fe</c><c>   1</c></rc>
    <rc><c>Fe</c><c>   1</c></rc>
    <rc><c>Fe</c><c>   1</c></rc>
    <rc><c>Fe</c><c>   1</c></rc>
    <rc><c>Fe</c><c>   1</c></rc>
    <rc><c>Fe</c><c>   1</c></rc>
    <rc><c>Fe</c><c>   1</c></rc>
    <rc><c>Fe</c><c>   1</c></rc>
    <rc><c>Fe</c><c>   1</c></rc>
    <rc><c>Fe</c><c>   1</c></rc>
    <rc><c>Fe</c><c>   1</c></rc>
    <rc><c>Fe</c><c>   1</c></rc>
    <rc><c>Fe</c><c>   1</c></rc>
    <rc><c>Fe</c><c>   1</c></rc>
    <rc><c>Fe</c><c>   1</c></rc>
    <rc><c>Fe</c><c>   1</c></rc>
    <rc><c>Fe</c><c>   1</c></rc>
    <rc><c>Fe</c><c>   1</c></rc>
    <rc><c>Fe</c><c>   1</c></rc>
    <rc><c>Fe</c><c>   1</c></rc>
    <rc><c>Fe</c><c>   1</c></rc>
    <rc><c>Fe</c><c>   1</c></rc>
    <rc><c>Fe</c><c>   1</c></rc>
    <rc><c>Fe</c><c>   1</c></rc>
    <rc><c>Fe</c><c>   1</c></rc>
    <rc><c>Fe</c><c>   1</c></rc>
    <rc><c>Fe</c><c>   1</c></rc>
    <rc><c>Fe</c><c>   1</c></rc>
    <rc><c>Fe</c><c>   1</c></rc>
    <rc><c>Fe</c><c>   1</c></rc>
    <rc><c>Fe</c><c>   1</c></rc>
    <rc><c>Fe</c><c>   1</c></rc>
    <rc><c>Fe</c><c>   1</c></rc>
    <rc><c>Fe</c><c>   1</c></rc>
    <rc><c>Fe</c><c>   1</c></rc>
    <rc><c>Fe</c><c>   1</c></rc>
    <rc><c>Fe</c><c>   1</c></rc>
    <rc><c>Fe</c><c>   1</c></rc>
    <rc><c>Fe</c><c>   1</c></rc>
    <rc><c>Fe</c><c>   1</c></rc>
    <rc><c>Fe</c><c>   1</c></rc>
    <rc><c>Fe</c><c>   1</c></rc>
    <rc><c>Fe</c><c>   1</c></rc>
    <rc><c>Fe</c><c>   1</c></rc>
    <rc><c>Fe</c><c>   1</c></rc>
    <rc><c>Fe</c><c>   1</c></rc>
    <rc><c>Fe</c><c>   1</c></rc>
    <rc><c>Fe</c><c>   1</c></rc>
    <rc><c>Fe</c><c>   1</c></rc>
    <rc><c>Fe</c><c>   1</c></rc>
    <rc><c>Fe</c><c>   1</c></rc>
    <rc><c>Fe</c><c>   1</c></rc>
    <rc><c>Fe</c><c>   1</c></rc>
    <rc><c>Fe</c><c>   1</c></rc>
    <rc><c>Fe</c><c>   1</c></rc>
    <rc><c>Fe</c><c>   1</c></rc>
    <rc><c>Fe</c><c>   1</c></rc>
    <rc><c>Fe</c><c>   1</c></rc>
    <rc><c>Fe</c><c>   1</c></rc>
    <rc><c>Fe</c><c>   1</c></rc>
    <rc><c>Fe</c><c>   1</c></rc>
    <rc><c>Fe</c><c>   1</c></rc>
    <rc><c>Fe</c><c>   1</c></rc>
    <rc><c>Fe</c><c>   1</c></rc>
    <rc><c>Fe</c><c>   1</c></rc>
    <rc><c>Fe</c><c>   1</c></rc>
    <rc><c>Fe</c><c>   1</c></rc>
    <rc><c>Fe</c><c>   1</c></rc>
    <rc><c>Fe</c><c>   1</c></rc>
    <rc><c>Fe</c><c>   1</c></rc>
    <rc><c>Fe</c><c>   1</c></rc>
    <rc><c>Fe</c><c>   1</c></rc>
    <rc><c>Fe</c><c>   1</c></rc>
    <rc><c>Fe</c><c>   1</c></rc>
    <rc><c>Fe</c><c>   1</c></rc>
    <rc><c>Fe</c><c>   1</c></rc>
    <rc><c>Fe</c><c>   1</c></rc>
    <rc><c>Fe</c><c>   1</c></rc>
    <rc><c>Fe</c><c>   1</c></rc>
    <rc><c>Fe</c><c>   1</c></rc>
    <rc><c>Fe</c><c>   1</c></rc>
    <rc><c>Fe</c><c>   1</c></rc>
    <rc><c>Fe</c><c>   1</c></rc>
    <rc><c>Fe</c><c>   1</c></rc>
    <rc><c>Fe</c><c>   1</c></rc>
    <rc><c>Fe</c><c>   1</c></rc>
    <rc><c>Fe</c><c>   1</c></rc>
    <rc><c>Fe</c><c>   1</c></rc>
    <rc><c>Fe</c><c>   1</c></rc>
    <rc><c>Fe</c><c>   1</c></rc>
    <rc><c>Fe</c><c>   1</c></rc>
    <rc><c>Fe</c><c>   1</c></rc>
    <rc><c>Fe</c><c>   1</c></rc>
    <rc><c>Fe</c><c>   1</c></rc>
    <rc><c>Fe</c><c>   1</c></rc>
    <rc><c>Fe</c><c>   1</c></rc>
    <rc><c>Fe</c><c>   1</c></rc>
    <rc><c>Fe</c><c>   1</c></rc>
    <rc><c>Fe</c><c>   1</c></rc>
    <rc><c>Fe</c><c>   1</c></rc>
    <rc><c>Fe</c><c>   1</c></rc>
    <rc><c>Fe</c><c>   1</c></rc>
    <rc><c>Fe</c><c>   1</c></rc>
    <rc><c>Fe</c><c>   1</c></rc>
    <rc><c>Fe</c><c>   1</c></rc>
    <rc><c>Fe</c><c>   1</c></rc>
    <rc><c>Fe</c><c>   1</c></rc>
    <rc><c>Fe</c><c>   1</c></rc>
    <rc><c>Fe</c><c>   1</c></rc>
    <rc><c>Fe</c><c>   1</c></rc>
    <rc><c>Fe</c><c>   1</c></rc>
    <rc><c>Fe</c><c>   1</c></rc>
    <rc><c>Fe</c><c>   1</c></rc>
    <rc><c>Fe</c><c>   1</c></rc>
    <rc><c>Fe</c><c>   1</c></rc>
    <rc><c>Fe</c><c>   1</c></rc>
    <rc><c>Fe</c><c>   1</c></rc>
    <rc><c>Fe</c><c>   1</c></rc>
    <rc><c>Fe</c><c>   1</c></rc>
    <rc><c>Fe</c><c>   1</c></rc>
    <rc><c>Fe</c><c>   1</c></rc>
    <rc><c>Fe</c><c>   1</c></rc>
    <rc><c>Fe</c><c>   1</c></rc>
    <rc><c>Fe</c><c>   1</c></rc>
    <rc><c>Fe</c><c>   1</c></rc>
    <rc><c>Fe</c><c>   1</c></rc>
    <rc><c>Fe</c><c>   1</c></rc>
    <rc><c>Fe</c><c>   1</c></rc>
    <rc><c>Fe</c><c>   1</c></rc>
    <rc><c>Fe</c><c>   1</c></rc>
    <rc><c>Fe</c><c>   1</c></rc>
    <rc><c>Fe</c><c>   1</c></rc>
    <rc><c>Fe</c><c>   1</c></rc>
    <rc><c>Fe</c><c>   1</c></rc>
    <rc><c>Fe</c><c>   1</c></rc>
    <rc><c>Fe</c><c>   1</c></rc>
    <rc><c>Fe</c><c>   1</c></rc>
    <rc><c>Fe</c><c>   1</c></rc>
    <rc><c>Fe</c><c>   1</c></rc>
    <rc><c>Fe</c><c>   1</c></rc>
    <rc><c>Fe</c><c>   1</c></rc>
    <rc><c>Fe</c><c>   1</c></rc>
    <rc><c>Fe</c><c>   1</c></rc>
    <rc><c>Fe</c><c>   1</c></rc>
    <rc><c>Fe</c><c>   1</c></rc>
    <rc><c>Fe</c><c>   1</c></rc>
    <rc><c>Fe</c><c>   1</c></rc>
    <rc><c>Fe</c><c>   1</c></rc>
    <rc><c>Fe</c><c>   1</c></rc>
    <rc><c>Fe</c><c>   1</c></rc>
    <rc><c>Fe</c><c>   1</c></rc>
    <rc><c>Fe</c><c>   1</c></rc>
    <rc><c>Fe</c><c>   1</c></rc>
    <rc><c>Fe</c><c>   1</c></rc>
    <rc><c>Fe</c><c>   1</c></rc>
    <rc><c>Fe</c><c>   1</c></rc>
    <rc><c>Fe</c><c>   1</c></rc>
    <rc><c>Fe</c><c>   1</c></rc>
    <rc><c>Fe</c><c>   1</c></rc>
    <rc><c>Fe</c><c>   1</c></rc>
    <rc><c>Fe</c><c>   1</c></rc>
    <rc><c>Fe</c><c>   1</c></rc>
    <rc><c>Fe</c><c>   1</c></rc>
    <rc><c>Fe</c><c>   1</c></rc>
    <rc><c>Fe</c><c>   1</c></rc>
    <rc><c>Fe</c><c>   1</c></rc>
    <rc><c>Fe</c><c>   1</c></rc>
    <rc><c>Fe</c><c>   1</c></rc>
    <rc><c>Fe</c><c>   1</c></rc>
    <rc><c>Fe</c><c>   1</c></rc>
    <rc><c>Fe</c><c>   1</c></rc>
    <rc><c>Fe</c><c>   1</c></rc>
    <rc><c>Fe</c><c>   1</c></rc>
    <rc><c>Fe</c><c>   1</c></rc>
    <rc><c>Fe</c><c>   1</c></rc>
    <rc><c>Fe</c><c>   1</c></rc>
    <rc><c>Fe</c><c>   1</c></rc>
    <rc><c>Fe</c><c>   1</c></rc>
    <rc><c>Fe</c><c>   1</c></rc>
    <rc><c>Fe</c><c>   1</c></rc>
    <rc><c>Fe</c><c>   1</c></rc>
    <rc><c>Fe</c><c>   1</c></rc>
    <rc><c>Fe</c><c>   1</c></rc>
    <rc><c>Fe</c><c>   1</c></rc>
    <rc><c>Fe</c><c>   1</c></rc>
    <rc><c>Fe</c><c>   1</c></rc>
    <rc><c>Fe</c><c>   1</c></rc>
    <rc><c>Fe</c><c>   1</c></rc>
    <rc><c>Fe</c><c>   1</c></rc>
    <rc><c>Fe</c><c>   1</c></rc>
    <rc><c>Fe</c><c>   1</c></rc>
    <rc><c>Fe</c><c>   1</c></rc>
    <rc><c>Fe</c><c>   1</c></rc>
    <rc><c>Fe</c><c>   1</c></rc>
    <rc><c>Fe</c><c>   1</c></rc>
    <rc><c>Fe</c><c>   1</c></rc>
    <rc><c>Fe</c><c>   1</c></rc>
    <rc><c>Fe</c><c>   1</c></rc>
    <rc><c>Fe</c><c>   1</c></rc>
    <rc><c>Fe</c><c>   1</c></rc>
    <rc><c>Fe</c><c>   1</c></rc>
    <rc><c>Fe</c><c>   1</c></rc>
    <rc><c>Fe</c><c>   1</c></rc>
    <rc><c>Fe</c><c>   1</c></rc>
    <rc><c>Fe</c><c>   1</c></rc>
    <rc><c>Fe</c><c>   1</c></rc>
    <rc><c>Fe</c><c>   1</c></rc>
    <rc><c>Fe</c><c>   1</c></rc>
    <rc><c>Fe</c><c>   1</c></rc>
    <rc><c>Fe</c><c>   1</c></rc>
    <rc><c>Fe</c><c>   1</c></rc>
    <rc><c>Fe</c><c>   1</c></rc>
    <rc><c>Fe</c><c>   1</c></rc>
    <rc><c>Fe</c><c>   1</c></rc>
    <rc><c>Fe</c><c>   1</c></rc>
    <rc><c>Fe</c><c>   1</c></rc>
    <rc><c>Fe</c><c>   1</c></rc>
    <rc><c>Fe</c><c>   1</c></rc>
    <rc><c>Fe</c><c>   1</c></rc>
    <rc><c>Fe</c><c>   1</c></rc>
    <rc><c>Fe</c><c>   1</c></rc>
    <rc><c>Fe</c><c>   1</c></rc>
    <rc><c>Fe</c><c>   1</c></rc>
    <rc><c>Fe</c><c>   1</c></rc>
    <rc><c>Fe</c><c>   1</c></rc>
    <rc><c>Fe</c><c>   1</c></rc>
    <rc><c>Fe</c><c>   1</c></rc>
    <rc><c>Fe</c><c>   1</c></rc>
    <rc><c>Fe</c><c>   1</c></rc>
    <rc><c>Fe</c><c>   1</c></rc>
    <rc><c>Fe</c><c>   1</c></rc>
    <rc><c>Fe</c><c>   1</c></rc>
    <rc><c>Fe</c><c>   1</c></rc>
    <rc><c>Fe</c><c>   1</c></rc>
    <rc><c>Fe</c><c>   1</c></rc>
    <rc><c>Fe</c><c>   1</c></rc>
    <rc><c>Fe</c><c>   1</c></rc>
    <rc><c>Fe</c><c>   1</c></rc>
    <rc><c>Fe</c><c>   1</c></rc>
    <rc><c>Fe</c><c>   1</c></rc>
    <rc><c>Fe</c><c>   1</c></rc>
    <rc><c>Fe</c><c>   1</c></rc>
    <rc><c>Fe</c><c>   1</c></rc>
    <rc><c>Fe</c><c>   1</c></rc>
    <rc><c>Fe</c><c>   1</c></rc>
    <rc><c>Fe</c><c>   1</c></rc>
    <rc><c>Fe</c><c>   1</c></rc>
    <rc><c>Fe</c><c>   1</c></rc>
    <rc><c>Fe</c><c>   1</c></rc>
    <rc><c>Fe</c><c>   1</c></rc>
    <rc><c>Fe</c><c>   1</c></rc>
    <rc><c>Fe</c><c>   1</c></rc>
    <rc><c>Fe</c><c>   1</c></rc>
    <rc><c>Fe</c><c>   1</c></rc>
    <rc><c>Fe</c><c>   1</c></rc>
    <rc><c>Fe</c><c>   1</c></rc>
    <rc><c>Fe</c><c>   1</c></rc>
    <rc><c>Fe</c><c>   1</c></rc>
    <rc><c>Fe</c><c>   1</c></rc>
    <rc><c>Fe</c><c>   1</c></rc>
    <rc><c>Fe</c><c>   1</c></rc>
    <rc><c>Fe</c><c>   1</c></rc>
    <rc><c>Fe</c><c>   1</c></rc>
    <rc><c>Fe</c><c>   1</c></rc>
    <rc><c>Fe</c><c>   1</c></rc>
    <rc><c>Fe</c><c>   1</c></rc>
    <rc><c>Fe</c><c>   1</c></rc>
    <rc><c>Fe</c><c>   1</c></rc>
    <rc><c>Mn</c><c>   2</c></rc>
    <rc><c>Mn</c><c>   2</c></rc>
    <rc><c>Mn</c><c>   2</c></rc>
    <rc><c>Mn</c><c>   2</c></rc>
    <rc><c>Mn</c><c>   2</c></rc>
    <rc><c>Mn</c><c>   2</c></rc>
    <rc><c>Mn</c><c>   2</c></rc>
   </set>
  </array>
  <array name="atomtypes" >
   <dimension dim="1">type</dimension>
   <field type="int">atomspertype</field>
   <field type="string">element</field>
   <field>mass</field>
   <field>valence</field>
   <field type="string">pseudopotential</field>
   <set>
    <rc><c> 281</c><c>Fe</c><c>     55.84700000</c><c>      8.00000000</c><c>  PAW_PBE Fe_GW 31Mar2010               </c></rc>
    <rc><c>   7</c><c>Mn</c><c>     54.93800000</c><c>      7.00000000</c><c>  PAW_PBE Mn_GW 31Mar2010               </c></rc>
   </set>
  </array>
 </atominfo>
 <structure name="initialpos" >
  <crystal>
   <varray name="basis" >
    <v>       9.72667804       0.00000000       0.00000000 </v>
    <v>       0.00000000       8.42355028       0.00000000 </v>
    <v>       0.00000000       0.00000000      45.00000000 </v>
   </varray>
   <i name="volume">   3686.99226691 </i>
   <varray name="rec_basis" >
    <v>       0.10281002       0.00000000       0.00000000 </v>
    <v>       0.00000000       0.11871479       0.00000000 </v>
    <v>       0.00000000       0.00000000       0.02222222 </v>
   </varray>
  </crystal>
  <varray name="positions" >
   <v>       0.06269625       0.03295791       0.12457371 </v>
   <v>       0.81493443       0.04176888       0.87558604 </v>
   <v>       0.19552374       0.12483434       0.78851684 </v>
   <v>       0.43368089       0.28759727       0.38906586 </v>
   <v>       0.31760095       0.36129821       0.16676077 </v>
   <v>       0.80857291       0.21300106       0.83317451 </v>
   <v>       0.18357465       0.78734423       0.38906174 </v>
   <v>       0.56394910       0.20727908       0.56543291 </v>
   <v>       0.06051452       0.04229716       0.74417404 </v>
   <v>       0.81328240       0.87192327       0.52125631 </v>
   <v>       0.18576102       0.29189514       0.74416548 </v>
   <v>       0.94133155       0.45159577       0.34489187 </v>
   <v>       0.93386213       0.28709807       0.38895877 </v>
   <v>       0.43838656       0.62225228       0.52131290 </v>
   <v>       0.18762066       0.79193380       0.61085743 </v>
   <v>       0.55873040       0.03760507       0.38879874 </v>
   <v>       0.93363487       0.96325534       0.83307266 </v>
   <v>       0.31482944       0.54199851       0.87561722 </v>
   <v>       0.68571320       0.29178819       0.74408980 </v>
   <v>       0.19167129       0.61233590       0.16686892 </v>
   <v>       0.81313283       0.20554304       0.47850664 </v>
   <v>       0.81262525       0.54192288       0.61086993 </v>
   <v>       0.31340493       0.87072316       0.43431092 </v>
   <v>       0.81545038       0.03522372       0.25597904 </v>
   <v>       0.69142856       0.95180510       0.34498502 </v>
   <v>       0.94181514       0.11253364       0.16687305 </v>
   <v>       0.93860326       0.12253590       0.52135063 </v>
   <v>       0.56543673       0.53518818       0.25599189 </v>
   <v>       0.69210852       0.79704042       0.87568460 </v>
   <v>       0.56718794       0.36249620       0.16697843 </v>
   <v>       0.43569878       0.79191739       0.74415322 </v>
   <v>       0.81404916       0.70756072       0.56540156 </v>
   <v>       0.57084772       0.87455282       0.78838016 </v>
   <v>       0.68849058       0.12236162       0.52137502 </v>
   <v>       0.19037652       0.28519059       0.25600377 </v>
   <v>       0.93356500       0.46320632       0.83305478 </v>
   <v>       0.06544525       0.20834575       0.69970287 </v>
   <v>       0.80860780       0.03738195       0.38907513 </v>
   <v>       0.30882547       0.21336161       0.83326960 </v>
   <v>       0.43393172       0.62580136       0.65494808 </v>
   <v>       0.31261051       0.54196898       0.61087837 </v>
   <v>       0.93896393       0.45721821       0.56543414 </v>
   <v>       0.68569573       0.79187285       0.74414438 </v>
   <v>       0.30892579       0.87580666       0.65497170 </v>
   <v>       0.68366234       0.78781666       0.38907323 </v>
   <v>       0.93577585       0.79187668       0.74415157 </v>
   <v>       0.06574190       0.20277281       0.34504551 </v>
   <v>       0.43712073       0.78118476       0.12444865 </v>
   <v>       0.44561642       0.12482075       0.78850136 </v>
   <v>       0.05497845       0.20296837       0.21185174 </v>
   <v>       0.06719100       0.36166784       0.16687469 </v>
   <v>       0.94045050       0.78527321       0.25601123 </v>
   <v>       0.56553642       0.20831742       0.69969245 </v>
   <v>       0.69045135       0.95841643       0.69969664 </v>
   <v>       0.68368487       0.28754561       0.38906446 </v>
   <v>       0.43880543       0.95770062       0.56543762 </v>
   <v>       0.82084840       0.37445553       0.78840024 </v>
   <v>       0.69044360       0.28522770       0.25599943 </v>
   <v>       0.18888287       0.45751290       0.56539583 </v>
   <v>       0.06783512       0.86247850       0.16682364 </v>
   <v>       0.18780239       0.29181763       0.61081205 </v>
   <v>       0.56590693       0.70150591       0.34487175 </v>
   <v>       0.31533759       0.20838566       0.69968024 </v>
   <v>       0.56488099       0.54195114       0.87560181 </v>
   <v>       0.06377623       0.70771240       0.56542831 </v>
   <v>       0.69577563       0.62468999       0.78844904 </v>
   <v>       0.30845639       0.53774862       0.38908166 </v>
   <v>       0.18824589       0.62211714       0.52134267 </v>
   <v>       0.56288353       0.87045817       0.43442801 </v>
   <v>       0.43878237       0.45775542       0.56545758 </v>
   <v>       0.43583497       0.29166467       0.74415141 </v>
   <v>       0.80392078       0.87214753       0.30021279 </v>
   <v>       0.81662411       0.70247543       0.34494765 </v>
   <v>       0.43347345       0.46281755       0.83313364 </v>
   <v>       0.68765730       0.95591670       0.47865964 </v>
   <v>       0.69050760       0.45833756       0.69970725 </v>
   <v>       0.56316641       0.87203813       0.52137869 </v>
   <v>       0.55886563       0.37576237       0.65492216 </v>
   <v>       0.80879686       0.87563024       0.65493060 </v>
   <v>       0.81246495       0.37052862       0.43446944 </v>
   <v>       0.81558265       0.53536435       0.25598157 </v>
   <v>       0.68360405       0.46308749       0.83308187 </v>
   <v>       0.18647787       0.78188951       0.12432664 </v>
   <v>       0.06460368       0.04183992       0.87560773 </v>
   <v>       0.30889879       0.37581245       0.65493634 </v>
   <v>       0.31622347       0.20216212       0.34489383 </v>
   <v>       0.81050920       0.54217334       0.74414493 </v>
   <v>       0.68359191       0.96324294       0.83305107 </v>
   <v>       0.55886231       0.87564134       0.65493263 </v>
   <v>       0.31374054       0.70765980       0.56550081 </v>
   <v>       0.31284034       0.53342955       0.12450482 </v>
   <v>       0.68004390       0.95289480       0.21181000 </v>
   <v>       0.31395095       0.20782382       0.56555093 </v>
   <v>       0.31053996       0.54208655       0.74416706 </v>
   <v>       0.68879788       0.95779736       0.56545600 </v>
   <v>       0.43763071       0.79199106       0.61087394 </v>
   <v>       0.69188887       0.61209882       0.16696861 </v>
   <v>       0.30363732       0.87215361       0.30032495 </v>
   <v>       0.31230864       0.70556400       0.47865369 </v>
   <v>       0.93775999       0.29175011       0.61086172 </v>
   <v>       0.42870614       0.62205425       0.30033416 </v>
   <v>       0.81664302       0.86229879       0.16683870 </v>
   <v>       0.55545212       0.20225284       0.21157675 </v>
   <v>       0.94172757       0.61242706       0.16686807 </v>
   <v>       0.94203934       0.79671022       0.87575698 </v>
   <v>       0.57083335       0.37444543       0.78838536 </v>
   <v>       0.06342852       0.37237215       0.52136602 </v>
   <v>       0.56350466       0.37235243       0.52138073 </v>
   <v>       0.67915793       0.12193034       0.30027324 </v>
   <v>       0.43356035       0.96311463       0.83308333 </v>
   <v>       0.18738334       0.28153077       0.12462581 </v>
   <v>       0.82088005       0.87444485       0.78839770 </v>
   <v>       0.31306305       0.37101162       0.43440891 </v>
   <v>       0.93788099       0.79183772       0.61075483 </v>
   <v>       0.43781440       0.29176363       0.61081194 </v>
   <v>       0.19155380       0.45159616       0.34492420 </v>
   <v>       0.43707149       0.28211508       0.12441726 </v>
   <v>       0.69003089       0.78555139       0.25601134 </v>
   <v>       0.19045189       0.95838445       0.69970733 </v>
   <v>       0.19199422       0.29712116       0.87581449 </v>
   <v>       0.18385773       0.12586582       0.65492078 </v>
   <v>       0.93393505       0.12598783       0.65495778 </v>
   <v>       0.30559660       0.20307827       0.21195505 </v>
   <v>       0.05834956       0.03742406       0.38905124 </v>
   <v>       0.44054060       0.95832835       0.69970915 </v>
   <v>       0.06263956       0.54172479       0.61099399 </v>
   <v>       0.94039379       0.28525259       0.25595811 </v>
   <v>       0.56272209       0.54180568       0.61085651 </v>
   <v>       0.93864072       0.95786228       0.56545854 </v>
   <v>       0.67883850       0.62198155       0.30020976 </v>
   <v>       0.93729064       0.61917813       0.43440609 </v>
   <v>       0.94569226       0.62473155       0.78845893 </v>
   <v>       0.56534293       0.70837444       0.69967776 </v>
   <v>       0.05867368       0.71288627       0.83316645 </v>
   <v>       0.92872233       0.12207417       0.30026860 </v>
   <v>       0.94064663       0.45842353       0.69971151 </v>
   <v>       0.44048574       0.78535344       0.25596997 </v>
   <v>       0.32081066       0.37450352       0.78838854 </v>
   <v>       0.43060205       0.45233972       0.21161493 </v>
   <v>       0.18826188       0.12280176       0.52138919 </v>
   <v>       0.81531576       0.70832821       0.69967417 </v>
   <v>       0.06277009       0.04172610       0.61076205 </v>
   <v>       0.55867676       0.21305341       0.83321875 </v>
   <v>       0.31369840       0.87222847       0.52131622 </v>
   <v>       0.68717272       0.28215778       0.12442285 </v>
   <v>       0.18054967       0.95223356       0.21160401 </v>
   <v>       0.68762196       0.29196652       0.61090779 </v>
   <v>       0.31264629       0.04175037       0.61098400 </v>
   <v>       0.94574732       0.12477259       0.78845917 </v>
   <v>       0.44195125       0.79741661       0.87575326 </v>
   <v>       0.81058037       0.04240589       0.74415512 </v>
   <v>       0.43825341       0.12195329       0.52135912 </v>
   <v>       0.18384268       0.62570892       0.65495010 </v>
   <v>       0.31547694       0.70838653       0.69969117 </v>
   <v>       0.93658062       0.28249045       0.12449704 </v>
   <v>       0.43784095       0.45593658       0.47861486 </v>
   <v>       0.06304904       0.70527013       0.47863993 </v>
   <v>       0.93864177       0.11980228       0.43427516 </v>
   <v>       0.42844562       0.12181155       0.30036677 </v>
   <v>       0.18817236       0.12003374       0.43446045 </v>
   <v>       0.56479584       0.04165541       0.87558308 </v>
   <v>       0.18888010       0.95734186       0.56522551 </v>
   <v>       0.68673181       0.78180997       0.12439401 </v>
   <v>       0.56258773       0.53297239       0.12445533 </v>
   <v>       0.30869362       0.03741110       0.38899181 </v>
   <v>       0.69244700       0.11169605       0.16697832 </v>
   <v>       0.80552784       0.20296558       0.21175088 </v>
   <v>       0.06553979       0.53517070       0.25595031 </v>
   <v>       0.56285952       0.70593267       0.47862734 </v>
   <v>       0.06390782       0.20773729       0.56555269 </v>
   <v>       0.55367622       0.37209836       0.30032885 </v>
   <v>       0.44186024       0.95232610       0.34486159 </v>
   <v>       0.18363309       0.96294127       0.83312057 </v>
   <v>       0.44214562       0.61219941       0.16681833 </v>
   <v>       0.93012274       0.45298074       0.21183231 </v>
   <v>       0.06186908       0.53335306       0.12451998 </v>
   <v>       0.81333798       0.37219605       0.52132582 </v>
   <v>       0.92865585       0.62213429       0.30033013 </v>
   <v>       0.31543538       0.03552946       0.25598464 </v>
   <v>       0.68774237       0.79193414       0.61087530 </v>
   <v>       0.18366011       0.46305588       0.83314128 </v>
   <v>       0.44190311       0.11251474       0.16683651 </v>
   <v>       0.31350295       0.37232836       0.52139137 </v>
   <v>       0.44549299       0.62491116       0.78849269 </v>
   <v>       0.06547001       0.03534009       0.25599257 </v>
   <v>       0.56394102       0.70759008       0.56539618 </v>
   <v>       0.93582900       0.29189521       0.74415460 </v>
   <v>       0.69567456       0.12475671       0.78845660 </v>
   <v>       0.18062433       0.45243214       0.21165567 </v>
   <v>       0.93389811       0.78692096       0.38891506 </v>
   <v>       0.69293511       0.29763468       0.87574642 </v>
   <v>       0.31654820       0.86240257       0.16687082 </v>
   <v>       0.44036505       0.45836632       0.69968396 </v>
   <v>       0.80886665       0.37559369       0.65490846 </v>
   <v>       0.68839927       0.62242388       0.52138186 </v>
   <v>       0.05891070       0.87588810       0.65493280 </v>
   <v>       0.07078409       0.87447475       0.78841261 </v>
   <v>       0.05883450       0.37581158       0.65490018 </v>
   <v>       0.68772748       0.45576074       0.47864314 </v>
   <v>       0.19039165       0.78525985       0.25600789 </v>
   <v>       0.43792426       0.12037753       0.43444661 </v>
   <v>       0.81161175       0.03306940       0.12449402 </v>
   <v>       0.93837423       0.62218552       0.52141616 </v>
   <v>       0.06274037       0.87130636       0.43454209 </v>
   <v>       0.81128884       0.53299704       0.12442497 </v>
   <v>       0.44147078       0.45201079       0.34500076 </v>
   <v>       0.81648302       0.20213329       0.34494764 </v>
   <v>       0.31606472       0.70161758       0.34491779 </v>
   <v>       0.68405299       0.12607529       0.65497180 </v>
   <v>       0.55378084       0.87206326       0.30028920 </v>
   <v>       0.06054287       0.54216942       0.74413311 </v>
   <v>       0.93635738       0.78147280       0.12451189 </v>
   <v>       0.80529495       0.70273592       0.21177952 </v>
   <v>       0.05397035       0.87318393       0.30014125 </v>
   <v>       0.17880777       0.12213054       0.30027271 </v>
   <v>       0.06636623       0.70221889       0.34493092 </v>
   <v>       0.81294331       0.04173088       0.61071733 </v>
   <v>       0.06318628       0.37089189       0.43443327 </v>
   <v>       0.56618088       0.20197743       0.34491029 </v>
   <v>       0.80334874       0.37197549       0.30040013 </v>
   <v>       0.43784328       0.95587989       0.47861042 </v>
   <v>       0.55857187       0.53744655       0.38906110 </v>
   <v>       0.06271544       0.20573488       0.47864269 </v>
   <v>       0.32075258       0.87461005       0.78839180 </v>
   <v>       0.94066689       0.95828586       0.69970581 </v>
   <v>       0.05383205       0.37253289       0.30027981 </v>
   <v>       0.68401608       0.62606419       0.65498510 </v>
   <v>       0.68872272       0.45768136       0.56543222 </v>
   <v>       0.43021719       0.95246064       0.21168809 </v>
   <v>       0.31288970       0.20580312       0.47860041 </v>
   <v>       0.43378658       0.12573108       0.65489074 </v>
   <v>       0.68796108       0.62033370       0.43445028 </v>
   <v>       0.81550934       0.20833490       0.69965120 </v>
   <v>       0.81300421       0.70600204       0.47859971 </v>
   <v>       0.56255028       0.37034958       0.43447385 </v>
   <v>       0.93761413       0.95576010       0.47867766 </v>
   <v>       0.56284835       0.20572195       0.47861415 </v>
   <v>       0.18843855       0.61966014       0.43426541 </v>
   <v>       0.31043738       0.04223552       0.74417255 </v>
   <v>       0.93388418       0.62597126       0.65494258 </v>
   <v>       0.55869848       0.71306363       0.83318779 </v>
   <v>       0.30373689       0.37226439       0.30027004 </v>
   <v>       0.55538914       0.70274778       0.21172340 </v>
   <v>       0.18796855       0.45567093       0.47861118 </v>
   <v>       0.31472503       0.04174999       0.87558827 </v>
   <v>       0.19045460       0.45844506       0.69967841 </v>
   <v>       0.81482732       0.54191835       0.87558942 </v>
   <v>       0.18357030       0.28818197       0.38900133 </v>
   <v>       0.30862183       0.71302312       0.83309344 </v>
   <v>       0.05549455       0.70225774       0.21157170 </v>
   <v>       0.56301760       0.03328756       0.12448735 </v>
   <v>       0.81714677       0.36250648       0.16696731 </v>
   <v>       0.80866239       0.71284098       0.83318775 </v>
   <v>       0.07082093       0.37449543       0.78839851 </v>
   <v>       0.44247922       0.29729876       0.87579737 </v>
   <v>       0.31150299       0.03317167       0.12438280 </v>
   <v>       0.68813104       0.11999089       0.43450086 </v>
   <v>       0.19132207       0.95171424       0.34498981 </v>
   <v>       0.05881110       0.21311987       0.83325062 </v>
   <v>       0.56271908       0.04173757       0.61080736 </v>
   <v>       0.68054082       0.45240039       0.21165832 </v>
   <v>       0.18580237       0.79177812       0.74415066 </v>
   <v>       0.17890668       0.62220722       0.30024443 </v>
   <v>       0.43376616       0.78760942       0.38916185 </v>
   <v>       0.44054134       0.28532321       0.25597659 </v>
   <v>       0.06469028       0.54194954       0.87560985 </v>
   <v>       0.56056188       0.04225760       0.74417737 </v>
   <v>       0.19283051       0.79760079       0.87581916 </v>
   <v>       0.93774113       0.45578435       0.47861750 </v>
   <v>       0.80888496       0.53776234       0.38909299 </v>
   <v>       0.81373850       0.20751770       0.56538297 </v>
   <v>       0.19551298       0.62489857       0.78854320 </v>
   <v>       0.93068533       0.95262423       0.21177555 </v>
   <v>       0.06552300       0.70833545       0.69970508 </v>
   <v>       0.31555317       0.53532079       0.25596806 </v>
   <v>       0.30514694       0.70281367       0.21184660 </v>
   <v>       0.56726768       0.86225052       0.16689892 </v>
   <v>       0.56056468       0.54216484       0.74416532 </v>
   <v>       0.69100130       0.45176457       0.34489811 </v>
   <v>       0.94211955       0.29708998       0.87570972 </v>
   <v>       0.56560739       0.03544784       0.25598752 </v>
   <v>       0.19318540       0.11177012       0.16627036 </v>
   <v>       0.43854289       0.62085321       0.43431872 </v>
   <v>       0.06332537       0.87197296       0.52126724 </v>
   <v>       0.81252707       0.87116173       0.43439572 </v>
   <v>       0.05829983       0.53843779       0.38908098 </v>
   <v>       0.94258274       0.95196323       0.34502349 </v>
   <v>       0.18815836       0.95597518       0.47862928 </v>
  </varray>
 </structure>
 <calculation>
  <scstep>
   <time name="dav">   54.91   54.93</time>
   <time name="total">   55.05   55.12</time>
   <energy>
    <i name="alphaZ">  16403.00255340 </i>
    <i name="ewald"> 723669.42903187 </i>
    <i name="hartreedc">-915318.85820315 </i>
    <i name="XCdc">  -6388.69837073 </i>
    <i name="pawpsdc"> 163151.95320885 </i>
    <i name="pawaedc">-160818.84594568 </i>
    <i name="eentropy">     -1.03605089 </i>
    <i name="bandstr">  38623.65515047 </i>
    <i name="atom"> 169914.59583762 </i>
    <i name="e_fr_energy">  29235.19721175 </i>
    <i name="e_wo_entrp">  29236.23326265 </i>
    <i name="e_0_energy">  29235.71523720 </i>
   </energy>
  </scstep>
  <scstep>
   <time name="dav">   54.21   54.25</time>
   <time name="total">   54.22   54.26</time>
   <energy>
    <i name="e_fr_energy">   1197.20398075 </i>
    <i name="e_wo_entrp">   1198.66835958 </i>
    <i name="e_0_energy">   1197.93617017 </i>
   </energy>
  </scstep>
  <scstep>
   <time name="dav">   71.37   71.43</time>
   <time name="total">   71.37   71.43</time>
   <energy>
    <i name="e_fr_energy">  -1941.40694139 </i>
    <i name="e_wo_entrp">  -1937.81862331 </i>
    <i name="e_0_energy">  -1939.61278235 </i>
   </energy>
  </scstep>
  <scstep>
   <time name="dav">   89.21   89.28</time>
   <time name="total">   89.22   89.29</time>
   <energy>
    <i name="e_fr_energy">  -2611.36455800 </i>
    <i name="e_wo_entrp">  -2607.81003138 </i>
    <i name="e_0_energy">  -2609.58729469 </i>
   </energy>
  </scstep>
  <scstep>
   <time name="dav">   85.59   85.66</time>
   <time name="total">   87.65   87.72</time>
   <energy>
    <i name="e_fr_energy">  -2731.43175792 </i>
    <i name="e_wo_entrp">  -2727.75207008 </i>
    <i name="e_0_energy">  -2729.59191400 </i>
   </energy>
  </scstep>
  <scstep>
   <time name="diag">    8.26    8.26</time>
   <time name="diis">   37.90   37.92</time>
   <time name="orth">    2.28    2.28</time>
   <time name="total">   50.54   50.60</time>
   <energy>
    <i name="e_fr_energy">  -6964.21765538 </i>
    <i name="e_wo_entrp">  -6960.97771819 </i>
    <i name="e_0_energy">  -6962.59768678 </i>
   </energy>
  </scstep>
  <scstep>
   <time name="diag">    8.28    8.28</time>
   <time name="diis">   38.63   38.64</time>
   <time name="orth">    2.28    2.28</time>
   <time name="total">   51.22   51.29</time>
[...]
       <r>     5.8099     0.0000  2772.0000 </r>
       <r>     5.8526     0.0000  2772.0000 </r>
       <r>     5.8952     0.0000  2772.0000 </r>
       <r>     5.9379     0.0000  2772.0000 </r>
       <r>     5.9805     0.0000  2772.0000 </r>
       <r>     6.0232     0.0000  2772.0000 </r>
       <r>     6.0658     0.0000  2772.0000 </r>
       <r>     6.1085     0.0000  2772.0000 </r>
       <r>     6.1511     0.0000  2772.0000 </r>
       <r>     6.1938     0.0000  2772.0000 </r>
       <r>     6.2364     0.0000  2772.0000 </r>
       <r>     6.2791     0.0000  2772.0000 </r>
       <r>     6.3218     0.0000  2772.0000 </r>
       <r>     6.3644     0.0000  2772.0000 </r>
       <r>     6.4071     0.0000  2772.0000 </r>
       <r>     6.4497     0.0000  2772.0000 </r>
       <r>     6.4924     0.0000  2772.0000 </r>
       <r>     6.5350     0.0000  2772.0000 </r>
       <r>     6.5777     0.0000  2772.0000 </r>
       <r>     6.6203     0.0000  2772.0000 </r>
       <r>     6.6630     0.0000  2772.0000 </r>
       <r>     6.7056     0.0000  2772.0000 </r>
       <r>     6.7483     0.0000  2772.0000 </r>
      </set>
     </set>
    </array>
   </total>
  </dos>
 </calculation>
 <structure name="finalpos" >
  <crystal>
   <varray name="basis" >
    <v>       9.72667804       0.00000000       0.00000000 </v>
    <v>       0.00000000       8.42355028       0.00000000 </v>
    <v>       0.00000000       0.00000000      45.00000000 </v>
   </varray>
   <i name="volume">   3686.99226691 </i>
   <varray name="rec_basis" >
    <v>       0.10281002       0.00000000       0.00000000 </v>
    <v>       0.00000000       0.11871479       0.00000000 </v>
    <v>       0.00000000       0.00000000       0.02222222 </v>
   </varray>
  </crystal>
  <varray name="positions" >
   <v>       0.06305164       0.03222521       0.12467831 </v>
   <v>       0.81467943       0.04173952       0.87535259 </v>
   <v>       0.19550092       0.12466085       0.78854286 </v>
   <v>       0.43432595       0.28800580       0.38925802 </v>
   <v>       0.31671022       0.36154645       0.16686119 </v>
   <v>       0.80870923       0.21268465       0.83297411 </v>
   <v>       0.18477522       0.78717647       0.38932483 </v>
   <v>       0.56424651       0.20697873       0.56555479 </v>
   <v>       0.06096639       0.04217811       0.74446810 </v>
   <v>       0.81331856       0.87226184       0.52122272 </v>
   <v>       0.18617791       0.29182742       0.74449170 </v>
   <v>       0.94024567       0.45174482       0.34485765 </v>
   <v>       0.93298671       0.28692340       0.38922436 </v>
   <v>       0.43835106       0.62269589       0.52129624 </v>
   <v>       0.18702074       0.79212612       0.61083174 </v>
   <v>       0.55934227       0.03722654       0.38893558 </v>
   <v>       0.93401601       0.96301858       0.83285071 </v>
   <v>       0.31509897       0.54222689       0.87541598 </v>
   <v>       0.68565455       0.29173133       0.74441552 </v>
   <v>       0.19150814       0.61265829       0.16695827 </v>
   <v>       0.81327457       0.20466744       0.47851820 </v>
   <v>       0.81276723       0.54221122       0.61098330 </v>
   <v>       0.31398062       0.87067544       0.43430605 </v>
   <v>       0.81529750       0.03519866       0.25573095 </v>
   <v>       0.69069663       0.95175533       0.34487556 </v>
   <v>       0.94229995       0.11210418       0.16684193 </v>
   <v>       0.93846579       0.12253971       0.52136156 </v>
   <v>       0.56521270       0.53518282       0.25579447 </v>
   <v>       0.69138817       0.79680225       0.87548632 </v>
   <v>       0.56654187       0.36291297       0.16696269 </v>
   <v>       0.43549442       0.79191986       0.74442189 </v>
   <v>       0.81447713       0.70784098       0.56550565 </v>
   <v>       0.57036981       0.87498199       0.78851978 </v>
   <v>       0.68895803       0.12214785       0.52132484 </v>
   <v>       0.19019516       0.28493585       0.25559426 </v>
   <v>       0.93387303       0.46327420       0.83289219 </v>
   <v>       0.06554576       0.20828971       0.70003598 </v>
   <v>       0.80758650       0.03756065       0.38928248 </v>
   <v>       0.30935267       0.21294098       0.83314439 </v>
   <v>       0.43438139       0.62568837       0.65527476 </v>
   <v>       0.31266886       0.54237655       0.61095258 </v>
   <v>       0.93858859       0.45751852       0.56548449 </v>
   <v>       0.68566651       0.79199660       0.74443383 </v>
   <v>       0.30885173       0.87558465       0.65522911 </v>
   <v>       0.68324984       0.78766708       0.38916780 </v>
   <v>       0.93630433       0.79206596       0.74437654 </v>
   <v>       0.06569382       0.20293275       0.34488992 </v>
   <v>       0.43700425       0.78190345       0.12459304 </v>
   <v>       0.44536768       0.12475536       0.78858522 </v>
   <v>       0.05595256       0.20295113       0.21154466 </v>
   <v>       0.06778054       0.36203168       0.16702102 </v>
   <v>       0.94028197       0.78569481       0.25564982 </v>
   <v>       0.56506908       0.20877063       0.69998649 </v>
   <v>       0.69032035       0.95836938       0.69995624 </v>
   <v>       0.68354269       0.28752713       0.38919676 </v>
   <v>       0.43905371       0.95732001       0.56551189 </v>
   <v>       0.82050770       0.37426821       0.78844198 </v>
   <v>       0.69019081       0.28502351       0.25582780 </v>
   <v>       0.18828964       0.45796574       0.56542778 </v>
   <v>       0.06804774       0.86237848       0.16680944 </v>
   <v>       0.18739467       0.29140831       0.61089919 </v>
   <v>       0.56614669       0.70215744       0.34480259 </v>
   <v>       0.31531029       0.20847840       0.70006300 </v>
   <v>       0.56442075       0.54262694       0.87546362 </v>
   <v>       0.06328227       0.70810194       0.56555283 </v>
   <v>       0.69541992       0.62473010       0.78856372 </v>
   <v>       0.30957658       0.53769715       0.38929469 </v>
   <v>       0.18810118       0.62248376       0.52135781 </v>
   <v>       0.56301606       0.87048796       0.43439314 </v>
   <v>       0.43924171       0.45788711       0.56554485 </v>
   <v>       0.43580281       0.29165413       0.74443625 </v>
   <v>       0.80306812       0.87222856       0.30003678 </v>
   <v>       0.81514167       0.70257440       0.34489071 </v>
   <v>       0.43377763       0.46291521       0.83299176 </v>
   <v>       0.68791637       0.95592647       0.47862764 </v>
   <v>       0.69029470       0.45843878       0.69992288 </v>
   <v>       0.56344594       0.87229299       0.52136531 </v>
   <v>       0.55936685       0.37584840       0.65518204 </v>
   <v>       0.80927294       0.87559210       0.65501598 </v>
   <v>       0.81213830       0.37023905       0.43442946 </v>
   <v>       0.81530587       0.53530284       0.25569693 </v>
   <v>       0.68344088       0.46320180       0.83290764 </v>
   <v>       0.18653490       0.78223402       0.12441940 </v>
   <v>       0.06501991       0.04219028       0.87540344 </v>
   <v>       0.30922107       0.37573613       0.65525016 </v>
   <v>       0.31694908       0.20198189       0.34473782 </v>
   <v>       0.81073281       0.54186739       0.74437399 </v>
   <v>       0.68341045       0.96305602       0.83287232 </v>
   <v>       0.55931816       0.87552606       0.65506938 </v>
   <v>       0.31344253       0.70837839       0.56557752 </v>
   <v>       0.31264200       0.53378066       0.12472484 </v>
   <v>       0.68024424       0.95242664       0.21149458 </v>
   <v>       0.31395431       0.20727627       0.56561981 </v>
   <v>       0.31073699       0.54201866       0.74440768 </v>
   <v>       0.68895081       0.95766435       0.56557452 </v>
   <v>       0.43786437       0.79223804       0.61086603 </v>
   <v>       0.69183715       0.61309233       0.16690979 </v>
   <v>       0.30458550       0.87218143       0.30010530 </v>
   <v>       0.31234248       0.70555450       0.47860046 </v>
   <v>       0.93747477       0.29138188       0.61093151 </v>
   <v>       0.42951883       0.62233482       0.30016643 </v>
   <v>       0.81660406       0.86206488       0.16674884 </v>
   <v>       0.55521993       0.20199260       0.21137605 </v>
   <v>       0.94201057       0.61292802       0.16687513 </v>
   <v>       0.94188559       0.79663800       0.87545486 </v>
   <v>       0.57043608       0.37421799       0.78846789 </v>
   <v>       0.06315740       0.37212830       0.52137220 </v>
   <v>       0.56378567       0.37220746       0.52140501 </v>
   <v>       0.67899978       0.12144791       0.30017247 </v>
   <v>       0.43365900       0.96298816       0.83291928 </v>
   <v>       0.18759342       0.28090336       0.12482837 </v>
   <v>       0.82066089       0.87478148       0.78852191 </v>
   <v>       0.31332191       0.37095688       0.43432227 </v>
   <v>       0.93781461       0.79200669       0.61078351 </v>
   <v>       0.43827415       0.29145041       0.61089317 </v>
   <v>       0.19204356       0.45182289       0.34483060 </v>
   <v>       0.43659635       0.28136368       0.12449988 </v>
   <v>       0.68981078       0.78566273       0.25582646 </v>
   <v>       0.19021296       0.95794130       0.70004964 </v>
   <v>       0.19216443       0.29677676       0.87570127 </v>
   <v>       0.18372153       0.12554568       0.65514883 </v>
   <v>       0.93375688       0.12572385       0.65504745 </v>
   <v>       0.30508606       0.20301347       0.21159336 </v>
   <v>       0.05814854       0.03820992       0.38945071 </v>
   <v>       0.44000249       0.95823692       0.70006885 </v>
   <v>       0.06197194       0.54235073       0.61104383 </v>
   <v>       0.94030079       0.28493340       0.25559528 </v>
   <v>       0.56320799       0.54203982       0.61094713 </v>
   <v>       0.93850482       0.95774400       0.56558605 </v>
   <v>       0.67858637       0.62228117       0.30007028 </v>
   <v>       0.93681681       0.61952731       0.43443805 </v>
   <v>       0.94562418       0.62492085       0.78856132 </v>
   <v>       0.56480797       0.70792307       0.69994020 </v>
   <v>       0.05928352       0.71305696       0.83295081 </v>
   <v>       0.92844499       0.12191825       0.29994671 </v>
   <v>       0.94054542       0.45897636       0.69992323 </v>
   <v>       0.44023467       0.78547459       0.25574285 </v>
   <v>       0.32069656       0.37446861       0.78842816 </v>
   <v>       0.43001228       0.45257003       0.21132227 </v>
   <v>       0.18781414       0.12303993       0.52146984 </v>
   <v>       0.81557902       0.70800244       0.69985809 </v>
   <v>       0.06217759       0.04130920       0.61080115 </v>
   <v>       0.55850371       0.21270683       0.83302026 </v>
   <v>       0.31389557       0.87209646       0.52140743 </v>
   <v>       0.68722628       0.28142391       0.12449920 </v>
   <v>       0.18073002       0.95236869       0.21124476 </v>
   <v>       0.68783949       0.29161352       0.61099435 </v>
   <v>       0.31265687       0.04140828       0.61098845 </v>
   <v>       0.94550642       0.12467976       0.78848295 </v>
   <v>       0.44177066       0.79736250       0.87552580 </v>
   <v>       0.81085418       0.04254728       0.74450580 </v>
   <v>       0.43835160       0.12166541       0.52141887 </v>
   <v>       0.18354221       0.62589978       0.65525353 </v>
   <v>       0.31518074       0.70827270       0.70004910 </v>
   <v>       0.93702636       0.28216799       0.12461116 </v>
   <v>       0.43795102       0.45617749       0.47854916 </v>
   <v>       0.06292874       0.70526232       0.47863028 </v>
   <v>       0.93810006       0.11980084       0.43442996 </v>
   <v>       0.42915646       0.12145479       0.30017996 </v>
   <v>       0.18816530       0.12007901       0.43446567 </v>
   <v>       0.56419460       0.04149730       0.87538145 </v>
   <v>       0.18846707       0.95697753       0.56535893 </v>
   <v>       0.68695119       0.78246484       0.12450035 </v>
   <v>       0.56261590       0.53364373       0.12459521 </v>
   <v>       0.30963462       0.03735173       0.38925882 </v>
   <v>       0.69222945       0.11081289       0.16687944 </v>
   <v>       0.80609388       0.20266360       0.21154853 </v>
   <v>       0.06542731       0.53514050       0.25547857 </v>
   <v>       0.56309481       0.70634373       0.47854142 </v>
   <v>       0.06317930       0.20705191       0.56557679 </v>
   <v>       0.55402817       0.37188234       0.30015846 </v>
   <v>       0.44244235       0.95208775       0.34469840 </v>
   <v>       0.18433312       0.96271975       0.83293967 </v>
   <v>       0.44151277       0.61288888       0.16689263 </v>
   <v>       0.93121876       0.45307238       0.21151443 </v>
   <v>       0.06192720       0.53394232       0.12472581 </v>
   <v>       0.81353886       0.37185001       0.52130523 </v>
   <v>       0.92821240       0.62246424       0.30011692 </v>
   <v>       0.31488811       0.03567905       0.25568016 </v>
   <v>       0.68810723       0.79213086       0.61092265 </v>
   <v>       0.18428074       0.46310346       0.83300923 </v>
   <v>       0.44113641       0.11199522       0.16675043 </v>
   <v>       0.31330056       0.37228155       0.52134671 </v>
   <v>       0.44508600       0.62502368       0.78860133 </v>
   <v>       0.06533634       0.03557667       0.25557477 </v>
   <v>       0.56410916       0.70804787       0.56550418 </v>
   <v>       0.93609603       0.29189425       0.74447108 </v>
   <v>       0.69525347       0.12478381       0.78852162 </v>
   <v>       0.18079662       0.45227784       0.21125915 </v>
   <v>       0.93257803       0.78653634       0.38918521 </v>
   <v>       0.69236817       0.29765944       0.87545352 </v>
   <v>       0.31599968       0.86246564       0.16686026 </v>
   <v>       0.44014871       0.45849318       0.69999812 </v>
   <v>       0.80901823       0.37591570       0.65509725 </v>
   <v>       0.68862486       0.62252825       0.52143193 </v>
   <v>       0.05863825       0.87571728       0.65514989 </v>
   <v>       0.07073517       0.87460659       0.78851993 </v>
   <v>       0.05843345       0.37606591       0.65511239 </v>
   <v>       0.68779442       0.45580066       0.47860684 </v>
   <v>       0.19014970       0.78579317       0.25564173 </v>
   <v>       0.43813126       0.12013403       0.43438853 </v>
   <v>       0.81155590       0.03216275       0.12450825 </v>
   <v>       0.93837153       0.62227496       0.52152312 </v>
   <v>       0.06250448       0.87145143       0.43468567 </v>
   <v>       0.81160456       0.53390374       0.12449396 </v>
   <v>       0.44191981       0.45208794       0.34491908 </v>
   <v>       0.81515443       0.20184679       0.34490693 </v>
   <v>       0.31686597       0.70189787       0.34480550 </v>
   <v>       0.68447263       0.12615916       0.65505342 </v>
   <v>       0.55422026       0.87195507       0.30019310 </v>
   <v>       0.06096927       0.54213731       0.74433754 </v>
   <v>       0.93651519       0.78177266       0.12460362 </v>
   <v>       0.80570315       0.70283274       0.21143880 </v>
   <v>       0.05453331       0.87324190       0.29980888 </v>
   <v>       0.17946002       0.12169885       0.29998155 </v>
   <v>       0.06617822       0.70206485       0.34471198 </v>
   <v>       0.81303873       0.04144322       0.61078701 </v>
   <v>       0.06305051       0.37016377       0.43445880 </v>
   <v>       0.56635483       0.20169267       0.34477957 </v>
   <v>       0.80274202       0.37180485       0.30017600 </v>
   <v>       0.43838204       0.95530446       0.47853462 </v>
   <v>       0.55891343       0.53780540       0.38924600 </v>
   <v>       0.06189969       0.20522721       0.47863234 </v>
   <v>       0.32049617       0.87486263       0.78850953 </v>
   <v>       0.94100345       0.95782832       0.69993334 </v>
   <v>       0.05417437       0.37211146       0.29996484 </v>
   <v>       0.68448570       0.62583332       0.65519076 </v>
   <v>       0.68901697       0.45770969       0.56552719 </v>
   <v>       0.42991687       0.95207168       0.21134595 </v>
   <v>       0.31289234       0.20589190       0.47854682 </v>
   <v>       0.43424860       0.12582668       0.65509601 </v>
   <v>       0.68771348       0.62062799       0.43435968 </v>
   <v>       0.81537699       0.20866870       0.69991634 </v>
   <v>       0.81295859       0.70645861       0.47860100 </v>
   <v>       0.56267810       0.37041698       0.43438787 </v>
   <v>       0.93702500       0.95632632       0.47866768 </v>
   <v>       0.56353119       0.20543309       0.47852102 </v>
   <v>       0.18883678       0.61995814       0.43435011 </v>
   <v>       0.31052270       0.04222242       0.74447140 </v>
   <v>       0.93382846       0.62600725       0.65516753 </v>
   <v>       0.55858684       0.71310128       0.83307117 </v>
   <v>       0.30459675       0.37192239       0.30001393 </v>
   <v>       0.55522260       0.70287617       0.21135813 </v>
   <v>       0.18794265       0.45598057       0.47864904 </v>
   <v>       0.31489744       0.04201368       0.87543114 </v>
   <v>       0.19041770       0.45888701       0.70003205 </v>
   <v>       0.81448734       0.54234856       0.87541286 </v>
   <v>       0.18418904       0.28832855       0.38930832 </v>
   <v>       0.30917708       0.71325405       0.83293249 </v>
   <v>       0.05617209       0.70210419       0.21119063 </v>
   <v>       0.56294791       0.03254639       0.12447743 </v>
   <v>       0.81754916       0.36309715       0.16697069 </v>
   <v>       0.80871795       0.71290090       0.83302055 </v>
   <v>       0.07067656       0.37451667       0.78840478 </v>
   <v>       0.44193510       0.29716703       0.87557562 </v>
   <v>       0.31149041       0.03267335       0.12448678 </v>
   <v>       0.68824989       0.11973879       0.43452004 </v>
   <v>       0.19224022       0.95175116       0.34470169 </v>
   <v>       0.05941914       0.21274256       0.83310965 </v>
   <v>       0.56313603       0.04164339       0.61084792 </v>
   <v>       0.68069170       0.45281315       0.21144879 </v>
   <v>       0.18609085       0.79184748       0.74436328 </v>
   <v>       0.17973565       0.62253075       0.29999143 </v>
   <v>       0.43462583       0.78735283       0.38935284 </v>
   <v>       0.44011995       0.28527273       0.25574434 </v>
   <v>       0.06491594       0.54198835       0.87540484 </v>
   <v>       0.56039962       0.04243806       0.74452743 </v>
   <v>       0.19310127       0.79765522       0.87552411 </v>
   <v>       0.93761671       0.45574762       0.47871228 </v>
   <v>       0.80790777       0.53790596       0.38927596 </v>
   <v>       0.81398882       0.20713908       0.56544495 </v>
   <v>       0.19540632       0.62516517       0.78860184 </v>
   <v>       0.93136858       0.95244354       0.21150437 </v>
   <v>       0.06550625       0.70843327       0.69995342 </v>
   <v>       0.31531582       0.53513119       0.25560838 </v>
   <v>       0.30501802       0.70272043       0.21143910 </v>
   <v>       0.56692942       0.86217604       0.16683971 </v>
   <v>       0.56035657       0.54186102       0.74440499 </v>
   <v>       0.69050833       0.45193753       0.34485337 </v>
   <v>       0.94227694       0.29697911       0.87554304 </v>
   <v>       0.56549666       0.03546895       0.25581986 </v>
   <v>       0.19311470       0.11168875       0.16633833 </v>
   <v>       0.43882067       0.62130480       0.43423222 </v>
   <v>       0.06267826       0.87193738       0.52143573 </v>
   <v>       0.81183535       0.87171338       0.43447965 </v>
   <v>       0.05811086       0.53788757       0.38940684 </v>
   <v>       0.94085064       0.95196794       0.34477367 </v>
   <v>       0.18803110       0.95574800       0.47851686 </v>
  </varray>
 </structure>
</modeling>
