<?xml version="1.0" encoding="ISO-8859-1"?>
<modeling>
 <generator>
  <i name="program" type="string">vasp </i>
  <i name="version" type="string">5.4.4.18Apr17-6-g9f103f2a35  </i>
  <i name="subversion" type="string">(build Sep 27 2018 12:46:37) complex + VL-xray_ parallel </i>
  <i name="platform" type="string">LLNL_Quartz_ifc </i>
  <i name="date" type="string">2021 09 27 </i>
  <i name="time" type="string">01:04:32 </i>
 </generator>
 <incar>
  <i type="int" name="ISTART">     2</i>
  <i type="string" name="PREC">accurate</i>
  <i type="string" name="ALGO"> Fast</i>
  <i type="int" name="ICHARG">     2</i>
  <i type="int" name="INIWAV">     1</i>
  <i type="int" name="NELM">   100</i>
  <i type="int" name="NELMIN">     4</i>
  <i type="int" name="IBRION">     2</i>
  <i name="EDIFF">      0.00000100</i>
  <i type="int" name="NSW">     5</i>
  <i type="int" name="ISIF">     2</i>
  <i type="int" name="ISYM">     2</i>
  <i name="ENCUT">    450.00000000</i>
  <i name="POTIM">      0.25000000</i>
  <i type="string" name="LREAL"> Auto</i>
  <i type="int" name="ISMEAR">     0</i>
  <i name="SIGMA">      0.15000000</i>
  <i type="logical" name="LWAVE"> F  </i>
  <i type="logical" name="LCHARG"> F  </i>
  <i type="int" name="ICORELEVEL">     0</i>
  <i type="int" name="CLNT">     1</i>
  <i type="int" name="CLN">     1</i>
  <i type="int" name="INCAR     ">     0</i>
  <i name="CLZ">      0.00000000</i>
  <v type="int" name="KPOINT_BSE">    -1     0     0     0</v>
  <i type="int" name="NELM">   100</i>
 </incar>
 <structure name="primitive_cell" >
  <crystal>
   <varray name="basis" >
    <v>       9.72667804       0.00000000       0.00000000 </v>
    <v>       0.00000000       8.42355028       0.00000000 </v>
    <v>       0.00000000       0.00000000      45.00000000 </v>
   </varray>
   <i name="volume">   3686.99226691 </i>
   <varray name="rec_basis" >
    <v>       0.10281002       0.00000000       0.00000000 </v>
    <v>       0.00000000       0.11871479       0.00000000 </v>
    <v>       0.00000000       0.00000000       0.02222222 </v>
   </varray>
  </crystal>
  <varray name="positions" >
   <v>       0.06263762       0.02961883       0.12397747 </v>
   <v>       0.18295960       0.11231996       0.16639777 </v>
   <v>       0.18592665      -0.21262897       0.12388681 </v>
   <v>       0.05658606      -0.13515870       0.16659133 </v>
   <v>      -0.06554056      -0.21214039       0.12433962 </v>
   <v>       0.31163468       0.03075526       0.12409258 </v>
   <v>      -0.18647074       0.03033822       0.12400187 </v>
   <v>      -0.06957802       0.11532628       0.16679860 </v>
   <v>       0.18560074       0.28647089       0.12420450 </v>
   <v>      -0.06488401       0.28703415       0.12407850 </v>
   <v>       0.30583202      -0.13553324       0.16551455 </v>
   <v>       0.05559121       0.36534577       0.16662360 </v>
   <v>      -0.19294767      -0.13644137       0.16673022 </v>
   <v>       0.43229930       0.11319393       0.16647160 </v>
   <v>      -0.05909655      -0.04606400       0.21115085 </v>
   <v>       0.30675092       0.36357867       0.16672858 </v>
   <v>       0.18228315      -0.38607544       0.16651394 </v>
   <v>       0.43479764      -0.21428499       0.12396654 </v>
   <v>       0.06509665       0.20368121       0.21107751 </v>
   <v>       0.19043310      -0.04493445       0.21170146 </v>
   <v>      -0.31439074      -0.21268405       0.12420193 </v>
   <v>      -0.06797478      -0.38708763       0.16664383 </v>
   <v>       0.06176071      -0.46987901       0.12411238 </v>
   <v>      -0.19371235       0.36467084       0.16597286 </v>
   <v>       0.43535428       0.28689382       0.12419844 </v>
   <v>      -0.31788106       0.11413033       0.16677397 </v>
   <v>      -0.31401520       0.28697536       0.12404999 </v>
   <v>       0.06708138      -0.29689949       0.21122385 </v>
   <v>      -0.18445125       0.20355231       0.21103222 </v>
   <v>       0.31301461      -0.46816906       0.12409659 </v>
   <v>       0.31515500       0.20404823       0.21116639 </v>
   <v>      -0.43712031       0.03167562       0.12421484 </v>
   <v>      -0.18813424      -0.47013404       0.12380787 </v>
   <v>       0.42995457      -0.38414204       0.16655581 </v>
   <v>      -0.44330896      -0.13622729       0.16655392 </v>
   <v>      -0.18421603      -0.29668806       0.21126897 </v>
   <v>      -0.31033039      -0.04514732       0.21138112 </v>
   <v>       0.31480967      -0.29739432       0.21205969 </v>
   <v>       0.44148775      -0.04451962       0.21185884 </v>
   <v>       0.19010472       0.45342120       0.21106681 </v>
   <v>      -0.31792708      -0.38653247       0.16658779 </v>
   <v>      -0.06034898       0.45373004       0.21164570 </v>
   <v>      -0.44243457       0.36440154       0.16653313 </v>
   <v>       0.05868584       0.03754305       0.25570975 </v>
   <v>       0.18343351      -0.21247474       0.25548247 </v>
   <v>       0.30984879       0.03747264       0.25553952 </v>
   <v>      -0.06671574      -0.21240652       0.25562845 </v>
   <v>      -0.43390133       0.20328419       0.21112522 </v>
   <v>      -0.43692904      -0.46899650       0.12417398 </v>
   <v>       0.18362572       0.28780656       0.25580687 </v>
   <v>      -0.19001649       0.03852035       0.25598827 </v>
   <v>      -0.06637471       0.28745875       0.25582411 </v>
   <v>      -0.31041758       0.45446766       0.21181051 </v>
   <v>       0.43973037       0.45401558       0.21133706 </v>
   <v>      -0.43320043      -0.29656884       0.21189807 </v>
   <v>       0.43303788      -0.21226472       0.25560022 </v>
   <v>       0.05946581      -0.46247316       0.25568528 </v>
   <v>      -0.31623980      -0.21267384       0.25576133 </v>
   <v>       0.43354163       0.28801880       0.25575522 </v>
   <v>      -0.31624356       0.28747128       0.25580799 </v>
   <v>       0.30905759      -0.46185934       0.25540641 </v>
   <v>      -0.43961232       0.03755754       0.25558344 </v>
   <v>      -0.19155004      -0.46265686       0.25587305 </v>
   <v>       0.06951242      -0.12609895       0.30013497 </v>
   <v>      -0.05541522       0.12272863       0.29999188 </v>
   <v>       0.19449507       0.12378828       0.30011953 </v>
   <v>      -0.17944892      -0.12614203       0.30026677 </v>
   <v>       0.31884029      -0.12663558       0.30006795 </v>
   <v>       0.06887680       0.37466571       0.30010322 </v>
   <v>      -0.44180283      -0.46190663       0.25529431 </v>
   <v>      -0.05560597      -0.37647851       0.29990753 </v>
   <v>      -0.30509352       0.12322542       0.30021509 </v>
   <v>       0.19411771      -0.37635142       0.30036902 </v>
   <v>      -0.18055210       0.37424246       0.30007485 </v>
   <v>       0.31980072       0.37237360       0.30013752 </v>
   <v>       0.44428745       0.12405755       0.30042870 </v>
   <v>      -0.30584048      -0.37553635       0.30013253 </v>
   <v>      -0.42992167      -0.12654284       0.30026477 </v>
   <v>       0.44486997      -0.37573879       0.30028950 </v>
   <v>      -0.43098822       0.37303328       0.30009981 </v>
   <v>       0.18389789      -0.04729202       0.34506070 </v>
   <v>      -0.06578060      -0.04847331       0.34490122 </v>
   <v>       0.05926482       0.20318571       0.34508289 </v>
   <v>       0.05874360      -0.29793524       0.34488718 </v>
   <v>       0.30888708       0.20257791       0.34471194 </v>
   <v>      -0.19078469       0.20260890       0.34507076 </v>
   <v>       0.30924618      -0.29819972       0.34480258 </v>
   <v>       0.43368903      -0.04709498       0.34500712 </v>
   <v>      -0.19136827      -0.29735565       0.34495085 </v>
   <v>      -0.31671732      -0.04777066       0.34472564 </v>
   <v>      -0.06621019       0.45225365       0.34484080 </v>
   <v>       0.18402137       0.45265863       0.34501163 </v>
   <v>      -0.44064023       0.20300026       0.34477532 </v>
   <v>       0.43419816       0.45287542       0.34506509 </v>
   <v>       0.06586955       0.03886614      -0.12434044 </v>
   <v>      -0.31595512       0.45243794       0.34509789 </v>
   <v>      -0.44086627      -0.29742463       0.34499571 </v>
   <v>       0.18767966      -0.20269418      -0.12401009 </v>
   <v>      -0.06278984      -0.20461166      -0.12457206 </v>
   <v>       0.31503687       0.04104023      -0.12410376 </v>
   <v>      -0.18708413       0.04075133      -0.12437586 </v>
   <v>       0.18845112       0.29660010      -0.12395848 </v>
   <v>      -0.06486378       0.29752982      -0.12442553 </v>
   <v>       0.43699669      -0.20246700      -0.12393637 </v>
   <v>       0.06346869      -0.45920805      -0.12416656 </v>
   <v>      -0.31535237      -0.20242162      -0.12421176 </v>
   <v>       0.06645311       0.03832408       0.38915063 </v>
   <v>       0.43645755       0.29827932      -0.12376030 </v>
   <v>      -0.31457374       0.29916126      -0.12401114 </v>
   <v>       0.31335434      -0.45947729      -0.12395517 </v>
   <v>      -0.18746574      -0.45975962      -0.12416613 </v>
   <v>      -0.05846952      -0.21256485       0.38903794 </v>
   <v>       0.19266283      -0.21235283       0.38894424 </v>
   <v>      -0.43696813       0.04035046      -0.12398610 </v>
   <v>      -0.18228884       0.03954524       0.38922423 </v>
   <v>       0.31610897       0.03682972       0.38889110 </v>
   <v>      -0.05896262       0.28653717       0.38891486 </v>
   <v>       0.19106695       0.28741679       0.38900236 </v>
   <v>      -0.30848092      -0.21203333       0.38907330 </v>
   <v>       0.06709270      -0.46124828       0.38919684 </v>
   <v>      -0.30905169       0.28729287       0.38907497 </v>
   <v>       0.44141157      -0.21230817       0.38916513 </v>
   <v>       0.44178612       0.28795321       0.38918613 </v>
   <v>      -0.43726913      -0.45879283      -0.12405153 </v>
   <v>      -0.18378985      -0.46230366       0.38908128 </v>
   <v>       0.31602044      -0.46175891       0.38900318 </v>
   <v>      -0.43346361       0.03766127       0.38908553 </v>
   <v>      -0.05743533      -0.03505380      -0.16621210 </v>
   <v>       0.19152136      -0.03636382      -0.16649871 </v>
   <v>       0.06715659       0.21508730      -0.16611328 </v>
   <v>       0.06646404      -0.28346348      -0.16613056 </v>
   <v>      -0.18161451       0.21520648      -0.16641450 </v>
   <v>       0.31686438       0.21297429      -0.16662469 </v>
   <v>      -0.43360671      -0.46213009       0.38904894 </v>
   <v>      -0.18287596      -0.28480012      -0.16675717 </v>
   <v>      -0.30807023      -0.03765568      -0.16660856 </v>
   <v>       0.31800310      -0.28616488      -0.16684071 </v>
   <v>       0.44289892      -0.03637828      -0.16665286 </v>
   <v>      -0.05779086       0.46426010      -0.16628232 </v>
   <v>       0.19188960       0.46385550      -0.16658919 </v>
   <v>      -0.43378898       0.21391757      -0.16685228 </v>
   <v>       0.06202189      -0.12903003       0.43456262 </v>
   <v>       0.18732653       0.11981333       0.43443236 </v>
   <v>      -0.30819356       0.46254167      -0.16668477 </v>
   <v>      -0.06299473       0.11942023       0.43465873 </v>
   <v>       0.44211607       0.46299636      -0.16667386 </v>
   <v>      -0.43365162      -0.28681906      -0.16680552 </v>
   <v>      -0.18808229      -0.12955642       0.43434063 </v>
   <v>       0.31201946      -0.12960165       0.43446026 </v>
   <v>       0.06291899       0.37079650       0.43444033 </v>
   <v>       0.18712930      -0.38061681       0.43446478 </v>
   <v>      -0.06227854      -0.38051121       0.43457950 </v>
   <v>      -0.31233043       0.11944216       0.43437042 </v>
   <v>       0.43732151       0.12041236       0.43442670 </v>
   <v>      -0.18803258       0.37076402       0.43437522 </v>
   <v>       0.31253847       0.37048019       0.43446029 </v>
   <v>       0.43708577      -0.37911550       0.43447631 </v>
   <v>      -0.31219278      -0.38033672       0.43462530 </v>
   <v>      -0.43732897      -0.12970273       0.43450060 </v>
   <v>      -0.43792159       0.37031869       0.43442922 </v>
   <v>       0.05920628      -0.12581715      -0.21156237 </v>
   <v>       0.18378020       0.12368447      -0.21150148 </v>
   <v>      -0.06582455       0.12430017      -0.21142995 </v>
   <v>       0.31072718      -0.12746843      -0.21175830 </v>
   <v>      -0.19120456      -0.12655685      -0.21161897 </v>
   <v>       0.05895086       0.37457922      -0.21158425 </v>
   <v>       0.18445028      -0.37721303      -0.21151034 </v>
   <v>       0.43410366       0.12292679      -0.21120922 </v>
   <v>      -0.06691925      -0.37541849      -0.21173956 </v>
   <v>       0.30910921       0.37406849      -0.21138082 </v>
   <v>      -0.31734017       0.12301487      -0.21160754 </v>
   <v>      -0.19106929       0.37494483      -0.21159111 </v>
   <v>       0.43286131      -0.37679540      -0.21114663 </v>
   <v>      -0.44037506      -0.12657516      -0.21149762 </v>
   <v>      -0.31673490      -0.37749819      -0.21161280 </v>
   <v>      -0.06254793      -0.04517280       0.47875172 </v>
   <v>       0.18756228      -0.04471331       0.47882363 </v>
   <v>       0.06272068       0.20533314       0.47875263 </v>
   <v>      -0.44088190       0.37326134      -0.21136075 </v>
   <v>       0.06248851      -0.29435317       0.47863186 </v>
   <v>       0.31251071       0.20534424       0.47878428 </v>
   <v>      -0.18771860       0.20541456       0.47877151 </v>
   <v>       0.31214528      -0.29465057       0.47873697 </v>
   <v>      -0.18739872      -0.29473265       0.47874925 </v>
   <v>       0.43718074      -0.04462349       0.47874618 </v>
   <v>      -0.31253110      -0.04440353       0.47874079 </v>
   <v>       0.18730130       0.45531338       0.47873048 </v>
   <v>      -0.06250029       0.45512857       0.47874463 </v>
   <v>      -0.43793581       0.20518341       0.47871989 </v>
   <v>       0.43747791       0.45582309       0.47862380 </v>
   <v>      -0.31300263       0.45526307       0.47865686 </v>
   <v>      -0.43777183      -0.29431830       0.47870110 </v>
   <v>       0.06548199       0.04045721      -0.25596869 </v>
   <v>      -0.05981855      -0.20898011      -0.25552081 </v>
   <v>       0.18987853      -0.20830739      -0.25563684 </v>
   <v>      -0.18465552       0.04144012      -0.25567495 </v>
   <v>      -0.06064309       0.29081189      -0.25561543 </v>
   <v>       0.31516490       0.04161143      -0.25581934 </v>
   <v>       0.19051790       0.29127493      -0.25570450 </v>
   <v>       0.06513235      -0.45895518      -0.25581148 </v>
   <v>      -0.30996348      -0.20839867      -0.25579616 </v>
   <v>       0.43957789      -0.20804718      -0.25562619 </v>
   <v>      -0.30983565       0.29154613      -0.25592164 </v>
   <v>       0.43944527       0.29201752      -0.25577255 </v>
   <v>      -0.18446769      -0.45963095      -0.25592278 </v>
   <v>       0.31495562      -0.45866674      -0.25582989 </v>
   <v>      -0.43471124       0.04170156      -0.25578520 </v>
   <v>       0.06196312      -0.12921612      -0.47842497 </v>
   <v>       0.18697838       0.12067461      -0.47843666 </v>
   <v>      -0.06343910       0.12103496      -0.47838325 </v>
   <v>       0.31184323      -0.12895344      -0.47846775 </v>
   <v>      -0.18843119      -0.12914478      -0.47836990 </v>
   <v>       0.06155187       0.37137637      -0.47849865 </v>
   <v>      -0.43477519      -0.45889487      -0.25602966 </v>
   <v>      -0.06307275      -0.37897918      -0.47847691 </v>
   <v>       0.18700955      -0.37918303      -0.47841554 </v>
   <v>      -0.31325279       0.12073805      -0.47851119 </v>
   <v>       0.43674601       0.12089426      -0.47841201 </v>
   <v>       0.31183149       0.37103374      -0.47846814 </v>
   <v>      -0.18815932       0.37133508      -0.47849090 </v>
   <v>      -0.31355629      -0.37904318      -0.47862756 </v>
   <v>       0.43676727      -0.37891315      -0.47851312 </v>
   <v>      -0.43790753      -0.12881360      -0.47848779 </v>
   <v>      -0.43833598       0.37108575      -0.47851638 </v>
   <v>       0.18505738      -0.04203894      -0.30030543 </v>
   <v>      -0.06496401      -0.04168415      -0.30032427 </v>
   <v>       0.06036488       0.20842466      -0.30035280 </v>
   <v>       0.06044012      -0.29215203      -0.30030066 </v>
   <v>       0.31048450       0.20789698      -0.30013027 </v>
   <v>      -0.18918396       0.20805130      -0.30024807 </v>
   <v>       0.31059025      -0.29248536      -0.30030244 </v>
   <v>      -0.18959891      -0.29158232      -0.30031872 </v>
   <v>       0.43525651      -0.04206745      -0.30038660 </v>
   <v>      -0.31490297      -0.04170011      -0.30027859 </v>
   <v>       0.18515881       0.45814905      -0.30035438 </v>
   <v>      -0.06468711       0.45857644      -0.30034485 </v>
   <v>      -0.43948851       0.20801804      -0.30026739 </v>
   <v>       0.43528899       0.45804382      -0.30036293 </v>
   <v>      -0.31523660       0.45827786      -0.30032279 </v>
   <v>      -0.43950777      -0.29228152      -0.30032508 </v>
   <v>       0.18653528      -0.04341921      -0.43442141 </v>
   <v>      -0.06365227      -0.04345071      -0.43439443 </v>
   <v>       0.06240755       0.20678199      -0.43455897 </v>
   <v>       0.06211259      -0.29400106      -0.43432402 </v>
   <v>      -0.18845897       0.20657686      -0.43448689 </v>
   <v>       0.31153689       0.20626543      -0.43436891 </v>
   <v>       0.31143785      -0.29327585      -0.43445222 </v>
   <v>       0.43688783      -0.04309824      -0.43450197 </v>
   <v>      -0.18868707      -0.29472339      -0.43431529 </v>
   <v>      -0.31246817      -0.04341854      -0.43433829 </v>
   <v>       0.18687983       0.45636506      -0.43442217 </v>
   <v>      -0.06333895       0.45623921      -0.43428706 </v>
   <v>      -0.43821042       0.20623550      -0.43439306 </v>
   <v>      -0.31348798       0.45652859      -0.43450698 </v>
   <v>       0.43705991       0.45648819      -0.43437549 </v>
   <v>      -0.43761151      -0.29349122      -0.43439181 </v>
   <v>       0.06613871      -0.12484402      -0.34485130 </v>
   <v>      -0.05883781       0.12499645      -0.34484068 </v>
   <v>       0.19129157       0.12524822      -0.34488494 </v>
   <v>      -0.18382416      -0.12514017      -0.34501583 </v>
   <v>       0.31647357      -0.12504524      -0.34484586 </v>
   <v>       0.06639465       0.37499306      -0.34503910 </v>
   <v>       0.19138926      -0.37453626      -0.34482934 </v>
   <v>      -0.05880987      -0.37466049      -0.34504614 </v>
   <v>      -0.30882325       0.12525733      -0.34486813 </v>
   <v>      -0.18372076       0.37432149      -0.34492569 </v>
   <v>       0.44167653       0.12489467      -0.34511693 </v>
   <v>       0.31641807       0.37509590      -0.34506011 </v>
   <v>      -0.30915419      -0.37486612      -0.34478430 </v>
   <v>      -0.43406811      -0.12510270      -0.34492612 </v>
   <v>       0.44094892      -0.37494458      -0.34498109 </v>
   <v>      -0.43387290       0.37480570      -0.34503705 </v>
   <v>       0.05891376       0.03861597      -0.38891009 </v>
   <v>       0.18353825      -0.21208111      -0.38910844 </v>
   <v>      -0.06605208      -0.21221187      -0.38906622 </v>
   <v>       0.30892913       0.03836386      -0.38889031 </v>
   <v>      -0.19076908       0.03843535      -0.38899652 </v>
   <v>       0.18415556       0.28829341      -0.38893803 </v>
   <v>      -0.06600919       0.28831029      -0.38897344 </v>
   <v>       0.43397726      -0.21160923      -0.38898948 </v>
   <v>       0.05897961      -0.46163800      -0.38893616 </v>
   <v>      -0.31617413      -0.21213988      -0.38906727 </v>
   <v>       0.43399884       0.28846216      -0.38901254 </v>
   <v>      -0.31575100       0.28853592      -0.38892962 </v>
   <v>       0.30896114      -0.46151272      -0.38896135 </v>
   <v>      -0.19085913      -0.46169600      -0.38895408 </v>
   <v>      -0.44063111       0.03854484      -0.38890838 </v>
   <v>      -0.44098293      -0.46137583      -0.38890718 </v>
  </varray>
 </structure>
 <varray name="primitive_index" >
  <v type="int" >        1 </v>
  <v type="int" >      125 </v>
  <v type="int" >       83 </v>
  <v type="int" >       60 </v>
  <v type="int" >       44 </v>
  <v type="int" >      256 </v>
  <v type="int" >      202 </v>
  <v type="int" >       26 </v>
  <v type="int" >      111 </v>
  <v type="int" >      155 </v>
  <v type="int" >      277 </v>
  <v type="int" >       51 </v>
  <v type="int" >      102 </v>
  <v type="int" >      182 </v>
  <v type="int" >      212 </v>
  <v type="int" >      108 </v>
  <v type="int" >       20 </v>
  <v type="int" >      170 </v>
  <v type="int" >       50 </v>
  <v type="int" >      146 </v>
  <v type="int" >      163 </v>
  <v type="int" >      104 </v>
  <v type="int" >      176 </v>
  <v type="int" >      284 </v>
  <v type="int" >      117 </v>
  <v type="int" >      166 </v>
  <v type="int" >      145 </v>
  <v type="int" >      250 </v>
  <v type="int" >      167 </v>
  <v type="int" >       91 </v>
  <v type="int" >      249 </v>
  <v type="int" >      114 </v>
  <v type="int" >      205 </v>
  <v type="int" >      174 </v>
  <v type="int" >      192 </v>
  <v type="int" >      213 </v>
  <v type="int" >       92 </v>
  <v type="int" >      276 </v>
  <v type="int" >      229 </v>
  <v type="int" >      189 </v>
  <v type="int" >       97 </v>
  <v type="int" >      175 </v>
  <v type="int" >       30 </v>
  <v type="int" >      185 </v>
  <v type="int" >      200 </v>
  <v type="int" >      179 </v>
  <v type="int" >       52 </v>
  <v type="int" >      103 </v>
  <v type="int" >       32 </v>
  <v type="int" >      112 </v>
  <v type="int" >       24 </v>
  <v type="int" >      127 </v>
  <v type="int" >      261 </v>
  <v type="int" >      139 </v>
  <v type="int" >      288 </v>
  <v type="int" >      137 </v>
  <v type="int" >      168 </v>
  <v type="int" >      118 </v>
  <v type="int" >      265 </v>
  <v type="int" >       58 </v>
  <v type="int" >      275 </v>
  <v type="int" >      221 </v>
  <v type="int" >       81 </v>
  <v type="int" >      214 </v>
  <v type="int" >      135 </v>
  <v type="int" >      215 </v>
  <v type="int" >       72 </v>
  <v type="int" >       98 </v>
  <v type="int" >      226 </v>
  <v type="int" >       28 </v>
  <v type="int" >      178 </v>
  <v type="int" >      109 </v>
  <v type="int" >      263 </v>
  <v type="int" >      220 </v>
  <v type="int" >      242 </v>
  <v type="int" >      159 </v>
  <v type="int" >      130 </v>
  <v type="int" >      210 </v>
  <v type="int" >      101 </v>
  <v type="int" >      171 </v>
  <v type="int" >      258 </v>
  <v type="int" >      194 </v>
  <v type="int" >       47 </v>
  <v type="int" >      216 </v>
  <v type="int" >       86 </v>
  <v type="int" >      207 </v>
  <v type="int" >      208 </v>
  <v type="int" >      172 </v>
  <v type="int" >       73 </v>
  <v type="int" >       25 </v>
  <v type="int" >       12 </v>
  <v type="int" >      116 </v>
  <v type="int" >      219 </v>
  <v type="int" >      206 </v>
  <v type="int" >      282 </v>
  <v type="int" >       48 </v>
  <v type="int" >      164 </v>
  <v type="int" >      268 </v>
  <v type="int" >      281 </v>
  <v type="int" >      245 </v>
  <v type="int" >       14 </v>
  <v type="int" >      120 </v>
  <v type="int" >      280 </v>
  <v type="int" >      150 </v>
  <v type="int" >      266 </v>
  <v type="int" >       29 </v>
  <v type="int" >      124 </v>
  <v type="int" >      255 </v>
  <v type="int" >      191 </v>
  <v type="int" >       18 </v>
  <v type="int" >      231 </v>
  <v type="int" >      190 </v>
  <v type="int" >      287 </v>
  <v type="int" >      161 </v>
  <v type="int" >      279 </v>
  <v type="int" >      165 </v>
  <v type="int" >       13 </v>
  <v type="int" >      248 </v>
  <v type="int" >       45 </v>
  <v type="int" >      273 </v>
  <v type="int" >       84 </v>
  <v type="int" >      264 </v>
  <v type="int" >        4 </v>
  <v type="int" >       64 </v>
  <v type="int" >      123 </v>
  <v type="int" >       67 </v>
  <v type="int" >       16 </v>
  <v type="int" >       17 </v>
  <v type="int" >        7 </v>
  <v type="int" >      259 </v>
  <v type="int" >      134 </v>
  <v type="int" >        6 </v>
  <v type="int" >       39 </v>
  <v type="int" >      222 </v>
  <v type="int" >      253 </v>
  <v type="int" >       88 </v>
  <v type="int" >        5 </v>
  <v type="int" >      110 </v>
  <v type="int" >       36 </v>
  <v type="int" >      181 </v>
  <v type="int" >      143 </v>
  <v type="int" >      285 </v>
  <v type="int" >      160 </v>
  <v type="int" >       82 </v>
  <v type="int" >      158 </v>
  <v type="int" >       74 </v>
  <v type="int" >      241 </v>
  <v type="int" >      235 </v>
  <v type="int" >       23 </v>
  <v type="int" >      218 </v>
  <v type="int" >      238 </v>
  <v type="int" >      131 </v>
  <v type="int" >      257 </v>
  <v type="int" >      201 </v>
  <v type="int" >       80 </v>
  <v type="int" >      113 </v>
  <v type="int" >      278 </v>
  <v type="int" >      232 </v>
  <v type="int" >       69 </v>
  <v type="int" >      251 </v>
  <v type="int" >      197 </v>
  <v type="int" >        3 </v>
  <v type="int" >      149 </v>
  <v type="int" >      224 </v>
  <v type="int" >       55 </v>
  <v type="int" >      254 </v>
  <v type="int" >      272 </v>
  <v type="int" >       49 </v>
  <v type="int" >      132 </v>
  <v type="int" >      138 </v>
  <v type="int" >      188 </v>
  <v type="int" >       57 </v>
  <v type="int" >      184 </v>
  <v type="int" >       33 </v>
  <v type="int" >       66 </v>
  <v type="int" >      236 </v>
  <v type="int" >       94 </v>
  <v type="int" >      223 </v>
  <v type="int" >      106 </v>
  <v type="int" >      157 </v>
  <v type="int" >      230 </v>
  <v type="int" >       21 </v>
  <v type="int" >       99 </v>
  <v type="int" >      234 </v>
  <v type="int" >      105 </v>
  <v type="int" >       75 </v>
  <v type="int" >      244 </v>
  <v type="int" >      269 </v>
  <v type="int" >      237 </v>
  <v type="int" >      156 </v>
  <v type="int" >      199 </v>
  <v type="int" >      169 </v>
  <v type="int" >        9 </v>
  <v type="int" >       46 </v>
  <v type="int" >      262 </v>
  <v type="int" >      151 </v>
  <v type="int" >      187 </v>
  <v type="int" >      239 </v>
  <v type="int" >       11 </v>
  <v type="int" >      211 </v>
  <v type="int" >       43 </v>
  <v type="int" >       31 </v>
  <v type="int" >       19 </v>
  <v type="int" >       71 </v>
  <v type="int" >       87 </v>
  <v type="int" >      243 </v>
  <v type="int" >      267 </v>
  <v type="int" >       27 </v>
  <v type="int" >      140 </v>
  <v type="int" >      286 </v>
  <v type="int" >      144 </v>
  <v type="int" >       10 </v>
  <v type="int" >      107 </v>
  <v type="int" >      270 </v>
  <v type="int" >      203 </v>
  <v type="int" >       68 </v>
  <v type="int" >       34 </v>
  <v type="int" >      119 </v>
  <v type="int" >      183 </v>
  <v type="int" >      177 </v>
  <v type="int" >      195 </v>
  <v type="int" >      252 </v>
  <v type="int" >       77 </v>
  <v type="int" >      247 </v>
  <v type="int" >      173 </v>
  <v type="int" >      225 </v>
  <v type="int" >       37 </v>
  <v type="int" >      274 </v>
  <v type="int" >       63 </v>
  <v type="int" >      233 </v>
  <v type="int" >      154 </v>
  <v type="int" >      141 </v>
  <v type="int" >       38 </v>
  <v type="int" >       54 </v>
  <v type="int" >      246 </v>
  <v type="int" >      152 </v>
  <v type="int" >       53 </v>
  <v type="int" >      193 </v>
  <v type="int" >       76 </v>
  <v type="int" >      133 </v>
  <v type="int" >      162 </v>
  <v type="int" >      129 </v>
  <v type="int" >       62 </v>
  <v type="int" >       65 </v>
  <v type="int" >      271 </v>
  <v type="int" >       93 </v>
  <v type="int" >       90 </v>
  <v type="int" >       56 </v>
  <v type="int" >      283 </v>
  <v type="int" >       95 </v>
  <v type="int" >       59 </v>
  <v type="int" >       42 </v>
  <v type="int" >        8 </v>
  <v type="int" >      228 </v>
  <v type="int" >       70 </v>
  <v type="int" >      186 </v>
  <v type="int" >      196 </v>
  <v type="int" >      122 </v>
  <v type="int" >      121 </v>
  <v type="int" >       79 </v>
  <v type="int" >        2 </v>
  <v type="int" >      198 </v>
  <v type="int" >      153 </v>
  <v type="int" >      240 </v>
  <v type="int" >      209 </v>
  <v type="int" >       35 </v>
  <v type="int" >      204 </v>
  <v type="int" >       85 </v>
  <v type="int" >      227 </v>
  <v type="int" >       89 </v>
  <v type="int" >       40 </v>
  <v type="int" >       78 </v>
  <v type="int" >      142 </v>
  <v type="int" >       15 </v>
  <v type="int" >      136 </v>
  <v type="int" >      148 </v>
  <v type="int" >      217 </v>
  <v type="int" >       61 </v>
  <v type="int" >      100 </v>
  <v type="int" >       96 </v>
  <v type="int" >      126 </v>
  <v type="int" >      180 </v>
  <v type="int" >      115 </v>
  <v type="int" >      147 </v>
  <v type="int" >       41 </v>
  <v type="int" >       22 </v>
  <v type="int" >      260 </v>
  <v type="int" >      128 </v>
 </varray>
 <kpoints>
  <generation param="Gamma">
   <v type="int" name="divisions">       4        4        1 </v>
   <v name="usershift">      0.00000000       0.00000000       0.00000000 </v>
   <v name="genvec1">      0.25000000       0.00000000       0.00000000 </v>
   <v name="genvec2">      0.00000000       0.25000000       0.00000000 </v>
   <v name="genvec3">      0.00000000       0.00000000       1.00000000 </v>
   <v name="shift">      0.00000000       0.00000000       0.00000000 </v>
  </generation>
  <varray name="kpointlist" >
   <v>       0.00000000       0.00000000       0.00000000 </v>
   <v>       0.25000000       0.00000000       0.00000000 </v>
   <v>       0.50000000       0.00000000       0.00000000 </v>
   <v>       0.00000000       0.25000000       0.00000000 </v>
   <v>       0.25000000       0.25000000       0.00000000 </v>
   <v>       0.50000000       0.25000000       0.00000000 </v>
   <v>      -0.25000000       0.25000000       0.00000000 </v>
   <v>       0.00000000       0.50000000       0.00000000 </v>
   <v>       0.25000000       0.50000000       0.00000000 </v>
   <v>       0.50000000       0.50000000       0.00000000 </v>
  </varray>
  <varray name="weights" >
   <v>       0.06250000 </v>
   <v>       0.12500000 </v>
   <v>       0.06250000 </v>
   <v>       0.12500000 </v>
   <v>       0.12500000 </v>
   <v>       0.12500000 </v>
   <v>       0.12500000 </v>
   <v>       0.06250000 </v>
   <v>       0.12500000 </v>
   <v>       0.06250000 </v>
  </varray>
 </kpoints>
 <parameters>
  <separator name="general" >
   <i type="string" name="SYSTEM">unknown system</i>
   <i type="logical" name="LCOMPAT"> F  </i>
  </separator>
  <separator name="electronic" >
   <i type="string" name="PREC">accura</i>
   <i name="ENMAX">    450.00000000</i>
   <i name="ENAUG">    838.43500000</i>
   <i name="EDIFF">      0.00000100</i>
   <i type="int" name="IALGO">    68</i>
   <i type="int" name="IWAVPR">    11</i>
   <i type="int" name="NBANDS">  1386</i>
   <i name="NELECT">   2290.00000000</i>
   <i type="int" name="TURBO">     0</i>
   <i type="int" name="IRESTART">     0</i>
   <i type="int" name="NREBOOT">     0</i>
   <i type="int" name="NMIN">     0</i>
   <i name="EREF">      0.00000000</i>
   <separator name="electronic smearing" >
    <i type="int" name="ISMEAR">     0</i>
    <i name="SIGMA">      0.15000000</i>
    <i name="KSPACING">      0.50000000</i>
    <i type="logical" name="KGAMMA"> T  </i>
   </separator>
   <separator name="electronic projectors" >
    <i type="logical" name="LREAL"> T  </i>
    <v name="ROPT">     -0.00025000     -0.00025000</v>
    <i type="int" name="LMAXPAW">  -100</i>
    <i type="int" name="LMAXMIX">     2</i>
    <i type="logical" name="NLSPLINE"> F  </i>
   </separator>
   <separator name="electronic startup" >
    <i type="int" name="ISTART">     0</i>
    <i type="int" name="ICHARG">     2</i>
    <i type="int" name="INIWAV">     1</i>
   </separator>
   <separator name="electronic spin" >
    <i type="int" name="ISPIN">     1</i>
    <i type="logical" name="LNONCOLLINEAR"> F  </i>
    <v name="MAGMOM">      1.00000000      1.00000000      1.00000000      1.00000000      1.00000000      1.00000000      1.00000000      1.00000000      1.00000000      1.00000000      1.00000000      1.00000000      1.00000000      1.00000000      1.00000000      1.00000000      1.00000000      1.00000000      1.00000000      1.00000000
      1.00000000      1.00000000      1.00000000      1.00000000      1.00000000      1.00000000      1.00000000      1.00000000      1.00000000      1.00000000      1.00000000      1.00000000      1.00000000      1.00000000      1.00000000      1.00000000      1.00000000      1.00000000      1.00000000      1.00000000
      1.00000000      1.00000000      1.00000000      1.00000000      1.00000000      1.00000000      1.00000000      1.00000000      1.00000000      1.00000000      1.00000000      1.00000000      1.00000000      1.00000000      1.00000000      1.00000000      1.00000000      1.00000000      1.00000000      1.00000000
      1.00000000      1.00000000      1.00000000      1.00000000      1.00000000      1.00000000      1.00000000      1.00000000      1.00000000      1.00000000      1.00000000      1.00000000      1.00000000      1.00000000      1.00000000      1.00000000      1.00000000      1.00000000      1.00000000      1.00000000
      1.00000000      1.00000000      1.00000000      1.00000000      1.00000000      1.00000000      1.00000000      1.00000000      1.00000000      1.00000000      1.00000000      1.00000000      1.00000000      1.00000000      1.00000000      1.00000000      1.00000000      1.00000000      1.00000000      1.00000000
      1.00000000      1.00000000      1.00000000      1.00000000      1.00000000      1.00000000      1.00000000      1.00000000      1.00000000      1.00000000      1.00000000      1.00000000      1.00000000      1.00000000      1.00000000      1.00000000      1.00000000      1.00000000      1.00000000      1.00000000
      1.00000000      1.00000000      1.00000000      1.00000000      1.00000000      1.00000000      1.00000000      1.00000000      1.00000000      1.00000000      1.00000000      1.00000000      1.00000000      1.00000000      1.00000000      1.00000000      1.00000000      1.00000000      1.00000000      1.00000000
      1.00000000      1.00000000      1.00000000      1.00000000      1.00000000      1.00000000      1.00000000      1.00000000      1.00000000      1.00000000      1.00000000      1.00000000      1.00000000      1.00000000      1.00000000      1.00000000      1.00000000      1.00000000      1.00000000      1.00000000
      1.00000000      1.00000000      1.00000000      1.00000000      1.00000000      1.00000000      1.00000000      1.00000000      1.00000000      1.00000000      1.00000000      1.00000000      1.00000000      1.00000000      1.00000000      1.00000000      1.00000000      1.00000000      1.00000000      1.00000000
      1.00000000      1.00000000      1.00000000      1.00000000      1.00000000      1.00000000      1.00000000      1.00000000      1.00000000      1.00000000      1.00000000      1.00000000      1.00000000      1.00000000      1.00000000      1.00000000      1.00000000      1.00000000      1.00000000      1.00000000
      1.00000000      1.00000000      1.00000000      1.00000000      1.00000000      1.00000000      1.00000000      1.00000000      1.00000000      1.00000000      1.00000000      1.00000000      1.00000000      1.00000000      1.00000000      1.00000000      1.00000000      1.00000000      1.00000000      1.00000000
      1.00000000      1.00000000      1.00000000      1.00000000      1.00000000      1.00000000      1.00000000      1.00000000      1.00000000      1.00000000      1.00000000      1.00000000      1.00000000      1.00000000      1.00000000      1.00000000      1.00000000      1.00000000      1.00000000      1.00000000
      1.00000000      1.00000000      1.00000000      1.00000000      1.00000000      1.00000000      1.00000000      1.00000000      1.00000000      1.00000000      1.00000000      1.00000000      1.00000000      1.00000000      1.00000000      1.00000000      1.00000000      1.00000000      1.00000000      1.00000000
      1.00000000      1.00000000      1.00000000      1.00000000      1.00000000      1.00000000      1.00000000      1.00000000      1.00000000      1.00000000      1.00000000      1.00000000      1.00000000      1.00000000      1.00000000      1.00000000      1.00000000      1.00000000      1.00000000      1.00000000
      1.00000000      1.00000000      1.00000000      1.00000000      1.00000000      1.00000000      1.00000000      1.00000000</v>
    <i name="NUPDOWN">     -1.00000000</i>
    <i type="logical" name="LSORBIT"> F  </i>
    <v name="SAXIS">      0.00000000      0.00000000      1.00000000</v>
    <i type="logical" name="LSPIRAL"> F  </i>
    <v name="QSPIRAL">      0.00000000      0.00000000      0.00000000</v>
    <i type="logical" name="LZEROZ"> F  </i>
   </separator>
   <separator name="electronic exchange-correlation" >
    <i type="logical" name="LASPH"> F  </i>
    <i type="logical" name="LMETAGGA"> F  </i>
   </separator>
   <separator name="electronic convergence" >
    <i type="int" name="NELM">   100</i>
    <i type="int" name="NELMDL">     0</i>
    <i type="int" name="NELMIN">     4</i>
    <i name="ENINI">    450.00000000</i>
    <separator name="electronic convergence detail" >
     <i type="logical" name="LDIAG"> T  </i>
     <i type="logical" name="LSUBROT"> F  </i>
     <i name="WEIMIN">      0.00100000</i>
     <i name="EBREAK">      0.00000000</i>
     <i name="DEPER">      0.30000000</i>
     <i type="int" name="NRMM">     4</i>
     <i name="TIME">      0.40000000</i>
    </separator>
   </separator>
   <separator name="electronic mixer" >
    <i name="AMIX">      0.40000000</i>
    <i name="BMIX">      1.00000000</i>
    <i name="AMIN">      0.10000000</i>
    <i name="AMIX_MAG">      1.60000000</i>
    <i name="BMIX_MAG">      1.00000000</i>
    <separator name="electronic mixer details" >
     <i type="int" name="IMIX">     4</i>
     <i type="logical" name="MIXFIRST"> F  </i>
     <i type="int" name="MAXMIX">   -45</i>
     <i name="WC">    100.00000000</i>
     <i type="int" name="INIMIX">     1</i>
     <i type="int" name="MIXPRE">     1</i>
     <i type="int" name="MREMOVE">     5</i>
    </separator>
   </separator>
   <separator name="electronic dipolcorrection" >
    <i type="logical" name="LDIPOL"> F  </i>
    <i type="logical" name="LMONO"> F  </i>
    <i type="int" name="IDIPOL">     0</i>
    <i name="EPSILON">      1.00000000</i>
    <v name="DIPOL">   -100.00000000   -100.00000000   -100.00000000</v>
    <i name="EFIELD">      0.00000000</i>
   </separator>
  </separator>
  <separator name="grids" >
   <i type="int" name="NGX">    70</i>
   <i type="int" name="NGY">    60</i>
   <i type="int" name="NGZ">   320</i>
   <i type="int" name="NGXF">   140</i>
   <i type="int" name="NGYF">   120</i>
   <i type="int" name="NGZF">   640</i>
   <i type="logical" name="ADDGRID"> F  </i>
  </separator>
  <separator name="ionic" >
   <i type="int" name="NSW">     5</i>
   <i type="int" name="IBRION">     2</i>
   <i type="int" name="MDALGO">     0</i>
   <i type="int" name="ISIF">     2</i>
   <i name="PSTRESS">      0.00000000</i>
   <i name="EDIFFG">      0.00001000</i>
   <i type="int" name="NFREE">     1</i>
   <i name="POTIM">      0.25000000</i>
   <i name="SMASS">     -3.00000000</i>
   <i name="SCALEE">      1.00000000</i>
  </separator>
  <separator name="ionic md" >
   <i name="TEBEG">      0.00010000</i>
   <i name="TEEND">      0.00010000</i>
   <i type="int" name="NBLOCK">     1</i>
   <i type="int" name="KBLOCK">     5</i>
   <i type="int" name="NPACO">   256</i>
   <i name="APACO">     16.00000000</i>
  </separator>
  <separator name="symmetry" >
   <i type="int" name="ISYM">     2</i>
   <i name="SYMPREC">      0.00001000</i>
  </separator>
  <separator name="dos" >
   <i type="int" name="LORBIT">     0</i>
   <v name="RWIGS">     -1.00000000     -1.00000000</v>
   <i type="int" name="NEDOS">   301</i>
   <i name="EMIN">     10.00000000</i>
   <i name="EMAX">    -10.00000000</i>
   <i name="EFERMI">      0.00000000</i>
  </separator>
  <separator name="writing" >
   <i type="int" name="NWRITE">     2</i>
   <i type="logical" name="LWAVE"> F  </i>
   <i type="logical" name="LDOWNSAMPLE"> F  </i>
   <i type="logical" name="LCHARG"> F  </i>
   <i type="logical" name="LPARD"> F  </i>
   <i type="logical" name="LVTOT"> F  </i>
   <i type="logical" name="LVHAR"> F  </i>
   <i type="logical" name="LELF"> F  </i>
   <i type="logical" name="LOPTICS"> F  </i>
   <v name="STM">      0.00000000      0.00000000      0.00000000      0.00000000      0.00000000      0.00000000      0.00000000</v>
  </separator>
  <separator name="performance" >
   <i type="int" name="NPAR">    14</i>
   <i type="int" name="NSIM">     4</i>
   <i type="int" name="NBLK">    -1</i>
   <i type="logical" name="LPLANE"> T  </i>
   <i type="logical" name="LSCALAPACK"> T  </i>
   <i type="logical" name="LSCAAWARE"> T  </i>
   <i type="logical" name="LSCALU"> F  </i>
   <i type="logical" name="LASYNC"> F  </i>
   <i type="logical" name="LORBITALREAL"> F  </i>
  </separator>
  <separator name="miscellaneous" >
   <i type="int" name="IDIOT">     3</i>
   <i type="int" name="ISPECIAL">     0</i>
   <i type="logical" name="LMUSIC"> F  </i>
   <v name="POMASS">     55.84700000     54.93800000</v>
   <v name="DARWINR">      0.00000000      0.00000000</v>
   <v name="DARWINV">      1.00000000      1.00000000</v>
   <i type="logical" name="LCORR"> T  </i>
  </separator>
  <i type="logical" name="GGA_COMPAT"> T  </i>
  <i type="logical" name="LBERRY"> F  </i>
  <i type="int" name="ICORELEVEL">     0</i>
  <i type="logical" name="LDAU"> F  </i>
  <i type="int" name="I_CONSTRAINED_M">     0</i>
  <separator name="electronic exchange-correlation" >
   <i type="string" name="GGA">--</i>
   <i type="int" name="VOSKOWN">     0</i>
   <i type="logical" name="LHFCALC"> F  </i>
   <i type="string" name="PRECFOCK"></i>
   <i type="logical" name="LSYMGRAD"> F  </i>
   <i type="logical" name="LHFONE"> F  </i>
   <i type="logical" name="LRHFCALC"> F  </i>
   <i type="logical" name="LTHOMAS"> F  </i>
   <i type="logical" name="LMODELHF"> F  </i>
   <i name="ENCUT4O">     -1.00000000</i>
   <i type="int" name="EXXOEP">     0</i>
   <i type="int" name="FOURORBIT">     0</i>
   <i name="AEXX">      0.00000000</i>
   <i name="HFALPHA">      0.00000000</i>
   <i name="MCALPHA">      0.00000000</i>
   <i name="ALDAX">      1.00000000</i>
   <i name="AGGAX">      1.00000000</i>
   <i name="ALDAC">      1.00000000</i>
   <i name="AGGAC">      1.00000000</i>
   <i type="int" name="NKREDX">     1</i>
   <i type="int" name="NKREDY">     1</i>
   <i type="int" name="NKREDZ">     1</i>
   <i type="logical" name="SHIFTRED"> F  </i>
   <i type="logical" name="ODDONLY"> F  </i>
   <i type="logical" name="EVENONLY"> F  </i>
   <i type="int" name="LMAXFOCK">     0</i>
   <i type="int" name="NMAXFOCKAE">     0</i>
   <i type="logical" name="LFOCKAEDFT"> F  </i>
   <i name="HFSCREEN">      0.00000000</i>
   <i name="HFSCREENC">      0.00000000</i>
   <i type="int" name="NBANDSGWLOW">     0</i>
  </separator>
  <separator name="vdW DFT" >
   <i type="logical" name="LUSE_VDW"> F  </i>
   <i name="Zab_VDW">     -0.84910000</i>
   <i name="PARAM1">      0.12340000</i>
   <i name="PARAM2">      1.00000000</i>
   <i name="PARAM3">      0.00000000</i>
  </separator>
  <separator name="model GW" >
   <i type="int" name="MODEL_GW">     0</i>
   <i name="MODEL_EPS0">      7.68123389</i>
   <i name="MODEL_ALPHA">      1.00000000</i>
  </separator>
  <separator name="linear response parameters" >
   <i type="logical" name="LEPSILON"> F  </i>
   <i type="logical" name="LRPA"> F  </i>
   <i type="logical" name="LNABLA"> F  </i>
   <i type="logical" name="LVEL"> F  </i>
   <i type="int" name="KINTER">     0</i>
   <i name="CSHIFT">      0.10000000</i>
   <i name="OMEGAMAX">     -1.00000000</i>
   <i name="DEG_THRESHOLD">      0.00200000</i>
   <i name="RTIME">     -0.10000000</i>
   <i name="WPLASMAI">      0.00000000</i>
   <v name="DFIELD">      0.00000000      0.00000000      0.00000000</v>
   <v name="WPLASMA">      0.00000000      0.00000000      0.00000000      0.00000000      0.00000000      0.00000000      0.00000000      0.00000000      0.00000000</v>
  </separator>
  <separator name="orbital magnetization" >
   <i type="logical" name="NUCIND"> F  </i>
   <v name="MAGPOS">      0.00000000      0.00000000      0.00000000</v>
   <i type="logical" name="LNICSALL"> T  </i>
   <i type="logical" name="ORBITALMAG"> F  </i>
   <i type="logical" name="LMAGBLOCH"> F  </i>
   <i type="logical" name="LCHIMAG"> F  </i>
   <i type="logical" name="LGAUGE"> T  </i>
   <i type="int" name="MAGATOM">     0</i>
   <v name="MAGDIPOL">      0.00000000      0.00000000      0.00000000</v>
   <v name="AVECCONST">      0.00000000      0.00000000      0.00000000</v>
  </separator>
  <separator name="response functions" >
   <i type="logical" name="LADDER"> F  </i>
   <i type="logical" name="LRPAFORCE"> F  </i>
   <i type="logical" name="LFXC"> F  </i>
   <i type="logical" name="LHARTREE"> T  </i>
   <i type="int" name="IBSE">     0</i>
   <v type="int" name="KPOINT">    -1     0     0     0</v>
   <i type="logical" name="LTCTE"> F  </i>
   <i type="logical" name="LTETE"> F  </i>
   <i type="logical" name="LTRIPLET"> F  </i>
   <i type="logical" name="LFXCEPS"> F  </i>
   <i type="logical" name="LFXHEG"> F  </i>
   <i type="int" name="NATURALO">     2</i>
   <i type="logical" name="L2ORDER"> F  </i>
   <i type="logical" name="LMP2LT"> F  </i>
   <i type="logical" name="LUSEW"> F  </i>
   <i name="ENCUTGW">     -2.00000000</i>
   <i name="ENCUTGWSOFT">     -2.00000000</i>
   <i name="ENCUTLF">     -1.00000000</i>
   <i type="int" name="LMAXMP2">    -1</i>
   <i name="SCISSOR">      0.00000000</i>
   <i type="int" name="NOMEGA">     0</i>
   <i type="int" name="NOMEGAR">     0</i>
   <i type="int" name="NBANDSGW">    -1</i>
   <i type="int" name="NBANDSO">    -1</i>
   <i type="int" name="NBANDSV">    -1</i>
   <i type="int" name="NELM">   100</i>
   <i type="int" name="NELMHF">     1</i>
   <i type="int" name="DIM">     3</i>
   <i type="int" name="ANTIRES">     0</i>
   <i name="OMEGAMAX">    -30.00000000</i>
   <i name="OMEGAMIN">    -30.00000000</i>
   <i name="OMEGATL">   -200.00000000</i>
   <i type="int" name="OMEGAGRID">   140</i>
   <i name="CSHIFT">     -0.10000000</i>
   <i type="logical" name="SELFENERGY"> F  </i>
   <i type="logical" name="LSPECTRAL"> F  </i>
   <i type="logical" name="LSPECTRALGW"> F  </i>
   <i type="logical" name="LSINGLES"> F  </i>
   <i type="logical" name="LFERMIGW"> F  </i>
   <i type="logical" name="ODDONLYGW"> F  </i>
   <i type="logical" name="EVENONLYGW"> F  </i>
   <i type="int" name="NKREDLFX">     1</i>
   <i type="int" name="NKREDLFY">     1</i>
   <i type="int" name="NKREDLFZ">     1</i>
   <i type="int" name="MAXMEM">  2800</i>
   <i type="int" name="TELESCOPE">     0</i>
   <i type="int" name="TAUPAR">     1</i>
   <i type="int" name="OMEGAPAR">    -1</i>
   <i name="LAMBDA">      1.00000000</i>
  </separator>
  <separator name="External order field" >
   <i name="OFIELD_KAPPA">      0.00000000</i>
   <v name="OFIELD_K">      0.00000000      0.00000000      0.00000000</v>
   <i name="OFIELD_Q6_NEAR">      0.00000000</i>
   <i name="OFIELD_Q6_FAR">      0.00000000</i>
   <i name="OFIELD_A">      0.00000000</i>
  </separator>
 </parameters>
 <atominfo>
  <atoms>     288 </atoms>
  <types>       2 </types>
  <array name="atoms" >
   <dimension dim="1">ion</dimension>
   <field type="string">element</field>
   <field type="int">atomtype</field>
   <set>
    <rc><c>Fe</c><c>   1</c></rc>
    <rc><c>Fe</c><c>   1</c></rc>
    <rc><c>Fe</c><c>   1</c></rc>
    <rc><c>Fe</c><c>   1</c></rc>
    <rc><c>Fe</c><c>   1</c></rc>
    <rc><c>Fe</c><c>   1</c></rc>
    <rc><c>Fe</c><c>   1</c></rc>
    <rc><c>Fe</c><c>   1</c></rc>
    <rc><c>Fe</c><c>   1</c></rc>
    <rc><c>Fe</c><c>   1</c></rc>
    <rc><c>Fe</c><c>   1</c></rc>
    <rc><c>Fe</c><c>   1</c></rc>
    <rc><c>Fe</c><c>   1</c></rc>
    <rc><c>Fe</c><c>   1</c></rc>
    <rc><c>Fe</c><c>   1</c></rc>
    <rc><c>Fe</c><c>   1</c></rc>
    <rc><c>Fe</c><c>   1</c></rc>
    <rc><c>Fe</c><c>   1</c></rc>
    <rc><c>Fe</c><c>   1</c></rc>
    <rc><c>Fe</c><c>   1</c></rc>
    <rc><c>Fe</c><c>   1</c></rc>
    <rc><c>Fe</c><c>   1</c></rc>
    <rc><c>Fe</c><c>   1</c></rc>
    <rc><c>Fe</c><c>   1</c></rc>
    <rc><c>Fe</c><c>   1</c></rc>
    <rc><c>Fe</c><c>   1</c></rc>
    <rc><c>Fe</c><c>   1</c></rc>
    <rc><c>Fe</c><c>   1</c></rc>
    <rc><c>Fe</c><c>   1</c></rc>
    <rc><c>Fe</c><c>   1</c></rc>
    <rc><c>Fe</c><c>   1</c></rc>
    <rc><c>Fe</c><c>   1</c></rc>
    <rc><c>Fe</c><c>   1</c></rc>
    <rc><c>Fe</c><c>   1</c></rc>
    <rc><c>Fe</c><c>   1</c></rc>
    <rc><c>Fe</c><c>   1</c></rc>
    <rc><c>Fe</c><c>   1</c></rc>
    <rc><c>Fe</c><c>   1</c></rc>
    <rc><c>Fe</c><c>   1</c></rc>
    <rc><c>Fe</c><c>   1</c></rc>
    <rc><c>Fe</c><c>   1</c></rc>
    <rc><c>Fe</c><c>   1</c></rc>
    <rc><c>Fe</c><c>   1</c></rc>
    <rc><c>Fe</c><c>   1</c></rc>
    <rc><c>Fe</c><c>   1</c></rc>
    <rc><c>Fe</c><c>   1</c></rc>
    <rc><c>Fe</c><c>   1</c></rc>
    <rc><c>Fe</c><c>   1</c></rc>
    <rc><c>Fe</c><c>   1</c></rc>
    <rc><c>Fe</c><c>   1</c></rc>
    <rc><c>Fe</c><c>   1</c></rc>
    <rc><c>Fe</c><c>   1</c></rc>
    <rc><c>Fe</c><c>   1</c></rc>
    <rc><c>Fe</c><c>   1</c></rc>
    <rc><c>Fe</c><c>   1</c></rc>
    <rc><c>Fe</c><c>   1</c></rc>
    <rc><c>Fe</c><c>   1</c></rc>
    <rc><c>Fe</c><c>   1</c></rc>
    <rc><c>Fe</c><c>   1</c></rc>
    <rc><c>Fe</c><c>   1</c></rc>
    <rc><c>Fe</c><c>   1</c></rc>
    <rc><c>Fe</c><c>   1</c></rc>
    <rc><c>Fe</c><c>   1</c></rc>
    <rc><c>Fe</c><c>   1</c></rc>
    <rc><c>Fe</c><c>   1</c></rc>
    <rc><c>Fe</c><c>   1</c></rc>
    <rc><c>Fe</c><c>   1</c></rc>
    <rc><c>Fe</c><c>   1</c></rc>
    <rc><c>Fe</c><c>   1</c></rc>
    <rc><c>Fe</c><c>   1</c></rc>
    <rc><c>Fe</c><c>   1</c></rc>
    <rc><c>Fe</c><c>   1</c></rc>
    <rc><c>Fe</c><c>   1</c></rc>
    <rc><c>Fe</c><c>   1</c></rc>
    <rc><c>Fe</c><c>   1</c></rc>
    <rc><c>Fe</c><c>   1</c></rc>
    <rc><c>Fe</c><c>   1</c></rc>
    <rc><c>Fe</c><c>   1</c></rc>
    <rc><c>Fe</c><c>   1</c></rc>
    <rc><c>Fe</c><c>   1</c></rc>
    <rc><c>Fe</c><c>   1</c></rc>
    <rc><c>Fe</c><c>   1</c></rc>
    <rc><c>Fe</c><c>   1</c></rc>
    <rc><c>Fe</c><c>   1</c></rc>
    <rc><c>Fe</c><c>   1</c></rc>
    <rc><c>Fe</c><c>   1</c></rc>
    <rc><c>Fe</c><c>   1</c></rc>
    <rc><c>Fe</c><c>   1</c></rc>
    <rc><c>Fe</c><c>   1</c></rc>
    <rc><c>Fe</c><c>   1</c></rc>
    <rc><c>Fe</c><c>   1</c></rc>
    <rc><c>Fe</c><c>   1</c></rc>
    <rc><c>Fe</c><c>   1</c></rc>
    <rc><c>Fe</c><c>   1</c></rc>
    <rc><c>Fe</c><c>   1</c></rc>
    <rc><c>Fe</c><c>   1</c></rc>
    <rc><c>Fe</c><c>   1</c></rc>
    <rc><c>Fe</c><c>   1</c></rc>
    <rc><c>Fe</c><c>   1</c></rc>
    <rc><c>Fe</c><c>   1</c></rc>
    <rc><c>Fe</c><c>   1</c></rc>
    <rc><c>Fe</c><c>   1</c></rc>
    <rc><c>Fe</c><c>   1</c></rc>
    <rc><c>Fe</c><c>   1</c></rc>
    <rc><c>Fe</c><c>   1</c></rc>
    <rc><c>Fe</c><c>   1</c></rc>
    <rc><c>Fe</c><c>   1</c></rc>
    <rc><c>Fe</c><c>   1</c></rc>
    <rc><c>Fe</c><c>   1</c></rc>
    <rc><c>Fe</c><c>   1</c></rc>
    <rc><c>Fe</c><c>   1</c></rc>
    <rc><c>Fe</c><c>   1</c></rc>
    <rc><c>Fe</c><c>   1</c></rc>
    <rc><c>Fe</c><c>   1</c></rc>
    <rc><c>Fe</c><c>   1</c></rc>
    <rc><c>Fe</c><c>   1</c></rc>
    <rc><c>Fe</c><c>   1</c></rc>
    <rc><c>Fe</c><c>   1</c></rc>
    <rc><c>Fe</c><c>   1</c></rc>
    <rc><c>Fe</c><c>   1</c></rc>
    <rc><c>Fe</c><c>   1</c></rc>
    <rc><c>Fe</c><c>   1</c></rc>
    <rc><c>Fe</c><c>   1</c></rc>
    <rc><c>Fe</c><c>   1</c></rc>
    <rc><c>Fe</c><c>   1</c></rc>
    <rc><c>Fe</c><c>   1</c></rc>
    <rc><c>Fe</c><c>   1</c></rc>
    <rc><c>Fe</c><c>   1</c></rc>
    <rc><c>Fe</c><c>   1</c></rc>
    <rc><c>Fe</c><c>   1</c></rc>
    <rc><c>Fe</c><c>   1</c></rc>
    <rc><c>Fe</c><c>   1</c></rc>
    <rc><c>Fe</c><c>   1</c></rc>
    <rc><c>Fe</c><c>   1</c></rc>
    <rc><c>Fe</c><c>   1</c></rc>
    <rc><c>Fe</c><c>   1</c></rc>
    <rc><c>Fe</c><c>   1</c></rc>
    <rc><c>Fe</c><c>   1</c></rc>
    <rc><c>Fe</c><c>   1</c></rc>
    <rc><c>Fe</c><c>   1</c></rc>
    <rc><c>Fe</c><c>   1</c></rc>
    <rc><c>Fe</c><c>   1</c></rc>
    <rc><c>Fe</c><c>   1</c></rc>
    <rc><c>Fe</c><c>   1</c></rc>
    <rc><c>Fe</c><c>   1</c></rc>
    <rc><c>Fe</c><c>   1</c></rc>
    <rc><c>Fe</c><c>   1</c></rc>
    <rc><c>Fe</c><c>   1</c></rc>
    <rc><c>Fe</c><c>   1</c></rc>
    <rc><c>Fe</c><c>   1</c></rc>
    <rc><c>Fe</c><c>   1</c></rc>
    <rc><c>Fe</c><c>   1</c></rc>
    <rc><c>Fe</c><c>   1</c></rc>
    <rc><c>Fe</c><c>   1</c></rc>
    <rc><c>Fe</c><c>   1</c></rc>
    <rc><c>Fe</c><c>   1</c></rc>
    <rc><c>Fe</c><c>   1</c></rc>
    <rc><c>Fe</c><c>   1</c></rc>
    <rc><c>Fe</c><c>   1</c></rc>
    <rc><c>Fe</c><c>   1</c></rc>
    <rc><c>Fe</c><c>   1</c></rc>
    <rc><c>Fe</c><c>   1</c></rc>
    <rc><c>Fe</c><c>   1</c></rc>
    <rc><c>Fe</c><c>   1</c></rc>
    <rc><c>Fe</c><c>   1</c></rc>
    <rc><c>Fe</c><c>   1</c></rc>
    <rc><c>Fe</c><c>   1</c></rc>
    <rc><c>Fe</c><c>   1</c></rc>
    <rc><c>Fe</c><c>   1</c></rc>
    <rc><c>Fe</c><c>   1</c></rc>
    <rc><c>Fe</c><c>   1</c></rc>
    <rc><c>Fe</c><c>   1</c></rc>
    <rc><c>Fe</c><c>   1</c></rc>
    <rc><c>Fe</c><c>   1</c></rc>
    <rc><c>Fe</c><c>   1</c></rc>
    <rc><c>Fe</c><c>   1</c></rc>
    <rc><c>Fe</c><c>   1</c></rc>
    <rc><c>Fe</c><c>   1</c></rc>
    <rc><c>Fe</c><c>   1</c></rc>
    <rc><c>Fe</c><c>   1</c></rc>
    <rc><c>Fe</c><c>   1</c></rc>
    <rc><c>Fe</c><c>   1</c></rc>
    <rc><c>Fe</c><c>   1</c></rc>
    <rc><c>Fe</c><c>   1</c></rc>
    <rc><c>Fe</c><c>   1</c></rc>
    <rc><c>Fe</c><c>   1</c></rc>
    <rc><c>Fe</c><c>   1</c></rc>
    <rc><c>Fe</c><c>   1</c></rc>
    <rc><c>Fe</c><c>   1</c></rc>
    <rc><c>Fe</c><c>   1</c></rc>
    <rc><c>Fe</c><c>   1</c></rc>
    <rc><c>Fe</c><c>   1</c></rc>
    <rc><c>Fe</c><c>   1</c></rc>
    <rc><c>Fe</c><c>   1</c></rc>
    <rc><c>Fe</c><c>   1</c></rc>
    <rc><c>Fe</c><c>   1</c></rc>
    <rc><c>Fe</c><c>   1</c></rc>
    <rc><c>Fe</c><c>   1</c></rc>
    <rc><c>Fe</c><c>   1</c></rc>
    <rc><c>Fe</c><c>   1</c></rc>
    <rc><c>Fe</c><c>   1</c></rc>
    <rc><c>Fe</c><c>   1</c></rc>
    <rc><c>Fe</c><c>   1</c></rc>
    <rc><c>Fe</c><c>   1</c></rc>
    <rc><c>Fe</c><c>   1</c></rc>
    <rc><c>Fe</c><c>   1</c></rc>
    <rc><c>Fe</c><c>   1</c></rc>
    <rc><c>Fe</c><c>   1</c></rc>
    <rc><c>Fe</c><c>   1</c></rc>
    <rc><c>Fe</c><c>   1</c></rc>
    <rc><c>Fe</c><c>   1</c></rc>
    <rc><c>Fe</c><c>   1</c></rc>
    <rc><c>Fe</c><c>   1</c></rc>
    <rc><c>Fe</c><c>   1</c></rc>
    <rc><c>Fe</c><c>   1</c></rc>
    <rc><c>Fe</c><c>   1</c></rc>
    <rc><c>Fe</c><c>   1</c></rc>
    <rc><c>Fe</c><c>   1</c></rc>
    <rc><c>Fe</c><c>   1</c></rc>
    <rc><c>Fe</c><c>   1</c></rc>
    <rc><c>Fe</c><c>   1</c></rc>
    <rc><c>Fe</c><c>   1</c></rc>
    <rc><c>Fe</c><c>   1</c></rc>
    <rc><c>Fe</c><c>   1</c></rc>
    <rc><c>Fe</c><c>   1</c></rc>
    <rc><c>Fe</c><c>   1</c></rc>
    <rc><c>Fe</c><c>   1</c></rc>
    <rc><c>Fe</c><c>   1</c></rc>
    <rc><c>Fe</c><c>   1</c></rc>
    <rc><c>Fe</c><c>   1</c></rc>
    <rc><c>Fe</c><c>   1</c></rc>
    <rc><c>Fe</c><c>   1</c></rc>
    <rc><c>Fe</c><c>   1</c></rc>
    <rc><c>Fe</c><c>   1</c></rc>
    <rc><c>Fe</c><c>   1</c></rc>
    <rc><c>Fe</c><c>   1</c></rc>
    <rc><c>Fe</c><c>   1</c></rc>
    <rc><c>Fe</c><c>   1</c></rc>
    <rc><c>Fe</c><c>   1</c></rc>
    <rc><c>Fe</c><c>   1</c></rc>
    <rc><c>Fe</c><c>   1</c></rc>
    <rc><c>Fe</c><c>   1</c></rc>
    <rc><c>Fe</c><c>   1</c></rc>
    <rc><c>Fe</c><c>   1</c></rc>
    <rc><c>Fe</c><c>   1</c></rc>
    <rc><c>Fe</c><c>   1</c></rc>
    <rc><c>Fe</c><c>   1</c></rc>
    <rc><c>Fe</c><c>   1</c></rc>
    <rc><c>Fe</c><c>   1</c></rc>
    <rc><c>Fe</c><c>   1</c></rc>
    <rc><c>Fe</c><c>   1</c></rc>
    <rc><c>Fe</c><c>   1</c></rc>
    <rc><c>Fe</c><c>   1</c></rc>
    <rc><c>Fe</c><c>   1</c></rc>
    <rc><c>Fe</c><c>   1</c></rc>
    <rc><c>Fe</c><c>   1</c></rc>
    <rc><c>Fe</c><c>   1</c></rc>
    <rc><c>Fe</c><c>   1</c></rc>
    <rc><c>Fe</c><c>   1</c></rc>
    <rc><c>Fe</c><c>   1</c></rc>
    <rc><c>Fe</c><c>   1</c></rc>
    <rc><c>Fe</c><c>   1</c></rc>
    <rc><c>Fe</c><c>   1</c></rc>
    <rc><c>Fe</c><c>   1</c></rc>
    <rc><c>Fe</c><c>   1</c></rc>
    <rc><c>Fe</c><c>   1</c></rc>
    <rc><c>Fe</c><c>   1</c></rc>
    <rc><c>Fe</c><c>   1</c></rc>
    <rc><c>Fe</c><c>   1</c></rc>
    <rc><c>Fe</c><c>   1</c></rc>
    <rc><c>Fe</c><c>   1</c></rc>
    <rc><c>Fe</c><c>   1</c></rc>
    <rc><c>Fe</c><c>   1</c></rc>
    <rc><c>Fe</c><c>   1</c></rc>
    <rc><c>Mn</c><c>   2</c></rc>
    <rc><c>Mn</c><c>   2</c></rc>
    <rc><c>Mn</c><c>   2</c></rc>
    <rc><c>Mn</c><c>   2</c></rc>
    <rc><c>Mn</c><c>   2</c></rc>
    <rc><c>Mn</c><c>   2</c></rc>
    <rc><c>Mn</c><c>   2</c></rc>
    <rc><c>Mn</c><c>   2</c></rc>
    <rc><c>Mn</c><c>   2</c></rc>
    <rc><c>Mn</c><c>   2</c></rc>
    <rc><c>Mn</c><c>   2</c></rc>
    <rc><c>Mn</c><c>   2</c></rc>
    <rc><c>Mn</c><c>   2</c></rc>
    <rc><c>Mn</c><c>   2</c></rc>
   </set>
  </array>
  <array name="atomtypes" >
   <dimension dim="1">type</dimension>
   <field type="int">atomspertype</field>
   <field type="string">element</field>
   <field>mass</field>
   <field>valence</field>
   <field type="string">pseudopotential</field>
   <set>
    <rc><c> 274</c><c>Fe</c><c>     55.84700000</c><c>      8.00000000</c><c>  PAW_PBE Fe_GW 31Mar2010               </c></rc>
    <rc><c>  14</c><c>Mn</c><c>     54.93800000</c><c>      7.00000000</c><c>  PAW_PBE Mn_GW 31Mar2010               </c></rc>
   </set>
  </array>
 </atominfo>
 <structure name="initialpos" >
  <crystal>
   <varray name="basis" >
    <v>       9.72667804       0.00000000       0.00000000 </v>
    <v>       0.00000000       8.42355028       0.00000000 </v>
    <v>       0.00000000       0.00000000      45.00000000 </v>
   </varray>
   <i name="volume">   3686.99226691 </i>
   <varray name="rec_basis" >
    <v>       0.10281002       0.00000000       0.00000000 </v>
    <v>       0.00000000       0.11871479       0.00000000 </v>
    <v>       0.00000000       0.00000000       0.02222222 </v>
   </varray>
  </crystal>
  <varray name="positions" >
   <v>       0.06263762       0.02961883       0.12397747 </v>
   <v>       0.31647357       0.87495476       0.65515414 </v>
   <v>       0.18378020       0.12368447       0.78849852 </v>
   <v>       0.44178612       0.28795321       0.38918613 </v>
   <v>       0.31800310       0.71383512       0.83315929 </v>
   <v>       0.81838549       0.21520648       0.83358550 </v>
   <v>       0.19152136       0.96363618       0.83350129 </v>
   <v>       0.56178958       0.20623550       0.56560694 </v>
   <v>       0.06548199       0.04045721       0.74403131 </v>
   <v>       0.81156881       0.87085522       0.52163010 </v>
   <v>       0.19051790       0.29127493       0.74429550 </v>
   <v>       0.93378981       0.45225365       0.34484080 </v>
   <v>       0.94103738       0.28653717       0.38891486 </v>
   <v>       0.81291587       0.04075133       0.87562414 </v>
   <v>       0.18353825       0.78791889       0.61089156 </v>
   <v>       0.56653639       0.03766127       0.38908553 </v>
   <v>       0.94256467       0.96494620       0.83378790 </v>
   <v>       0.31335434       0.54052271       0.87604483 </v>
   <v>       0.69016435       0.29154613       0.74407836 </v>
   <v>       0.18228315       0.61392456       0.16651394 </v>
   <v>       0.81228140       0.20541456       0.47877151 </v>
   <v>       0.80914087       0.53830400       0.61104592 </v>
   <v>       0.31201946       0.87039835       0.43446026 </v>
   <v>       0.80998351       0.03852035       0.25598827 </v>
   <v>       0.68328268       0.95222934       0.34472564 </v>
   <v>       0.93042198       0.11532628       0.16679860 </v>
   <v>       0.06196312       0.87078388       0.52157503 </v>
   <v>       0.55819717       0.53809337       0.25529431 </v>
   <v>       0.68464763       0.79757838       0.87578824 </v>
   <v>       0.55756543       0.36440154       0.16653313 </v>
   <v>       0.43957789       0.79195282       0.74437381 </v>
   <v>       0.56307096       0.53100350       0.12417398 </v>
   <v>       0.55962494       0.87342484       0.78850238 </v>
   <v>       0.68674721       0.12073805       0.52148881 </v>
   <v>       0.81627924       0.37432149       0.65507431 </v>
   <v>       0.94220914       0.46426010       0.83371768 </v>
   <v>       0.06036488       0.20842466       0.69964720 </v>
   <v>       0.43525651       0.95793255       0.69961340 </v>
   <v>       0.31686438       0.21297429       0.83337531 </v>
   <v>       0.44094892       0.62505542       0.65501891 </v>
   <v>       0.30896114       0.53848728       0.61103865 </v>
   <v>       0.93666105       0.45623921       0.56571294 </v>
   <v>       0.69003652       0.79160133       0.74420384 </v>
   <v>       0.93445944       0.78785961       0.12433962 </v>
   <v>       0.69151908       0.78796667       0.38907330 </v>
   <v>       0.94018145       0.79101989       0.74447919 </v>
   <v>       0.05926482       0.20318571       0.34508289 </v>
   <v>       0.68404488       0.45243794       0.34509789 </v>
   <v>       0.43410366       0.12292679       0.78879078 </v>
   <v>       0.06509665       0.20368121       0.21107751 </v>
   <v>       0.05559121       0.36534577       0.16662360 </v>
   <v>       0.93328426       0.78759348       0.25562845 </v>
   <v>       0.56051149       0.20801804       0.69973261 </v>
   <v>       0.68509703       0.95829989       0.69972141 </v>
   <v>       0.80879544       0.87344315       0.78838103 </v>
   <v>       0.43688783       0.95690176       0.56549803 </v>
   <v>       0.80893071       0.37494483       0.78840889 </v>
   <v>       0.68375644       0.28747128       0.25580799 </v>
   <v>       0.18687983       0.45636506       0.56557783 </v>
   <v>       0.05658606       0.86484130       0.16659133 </v>
   <v>       0.18415556       0.28829341       0.61106197 </v>
   <v>       0.06240755       0.20678199       0.56544103 </v>
   <v>       0.31048450       0.20789698       0.69986973 </v>
   <v>       0.56273087       0.54120717       0.87594847 </v>
   <v>       0.06211259       0.70599894       0.56567598 </v>
   <v>       0.68326510       0.62250181       0.78838720 </v>
   <v>       0.31602044       0.53824109       0.38900318 </v>
   <v>       0.18700955       0.62081697       0.52158446 </v>
   <v>       0.56267103       0.87029727       0.43450060 </v>
   <v>       0.43705991       0.45648819       0.56562451 </v>
   <v>       0.43944527       0.29201752       0.74422745 </v>
   <v>       0.82055108       0.87385797       0.30026677 </v>
   <v>       0.80863173       0.70264435       0.34495085 </v>
   <v>       0.44211607       0.46299636       0.83332614 </v>
   <v>       0.68746890       0.95559647       0.47874079 </v>
   <v>       0.68476340       0.45827786       0.69967721 </v>
   <v>       0.56209247       0.87118640       0.52151221 </v>
   <v>       0.56612710       0.37480570       0.65496295 </v>
   <v>       0.81617584       0.87485983       0.65498417 </v>
   <v>       0.81196742       0.37076402       0.43437522 </v>
   <v>       0.80844996       0.53734314       0.25587305 </v>
   <v>       0.69180644       0.46254167       0.83331523 </v>
   <v>       0.18592665       0.78737103       0.12388681 </v>
   <v>       0.69094831       0.28729287       0.38907497 </v>
   <v>       0.31641807       0.37509590       0.65493989 </v>
   <v>       0.30888708       0.20257791       0.34471194 </v>
   <v>       0.81553231       0.54036905       0.74407722 </v>
   <v>       0.69192977       0.96234432       0.83339144 </v>
   <v>       0.56593189       0.87489730       0.65507388 </v>
   <v>       0.31143785       0.70672415       0.56554778 </v>
   <v>       0.31301461       0.53183094       0.12409659 </v>
   <v>       0.68966961       0.95485268       0.21138112 </v>
   <v>       0.31153689       0.20626543       0.56563109 </v>
   <v>       0.18756228       0.95528669       0.47882363 </v>
   <v>       0.68753183       0.95658146       0.56566171 </v>
   <v>       0.43397726       0.78839077       0.61101052 </v>
   <v>       0.68207292       0.61346753       0.16658779 </v>
   <v>       0.31884029       0.87336442       0.30006795 </v>
   <v>       0.31214528       0.70534943       0.47873697 </v>
   <v>       0.93399081       0.28831029       0.61102656 </v>
   <v>       0.44486997       0.62426121       0.30028950 </v>
   <v>       0.80705233       0.86355863       0.16673022 </v>
   <v>       0.56609867       0.20328419       0.21112522 </v>
   <v>       0.93202522       0.61291237       0.16664383 </v>
   <v>       0.43718074       0.95537651       0.47874618 </v>
   <v>       0.55911810       0.37326134       0.78863925 </v>
   <v>       0.06155187       0.37137637       0.52150135 </v>
   <v>       0.30675092       0.36357867       0.16672858 </v>
   <v>       0.69490648       0.12322542       0.30021509 </v>
   <v>       0.44289892       0.96362172       0.83334714 </v>
   <v>       0.18560074       0.28647089       0.12420450 </v>
   <v>       0.18362572       0.28780656       0.25580687 </v>
   <v>       0.31253847       0.37048019       0.43446029 </v>
   <v>       0.56287969       0.03167562       0.12421484 </v>
   <v>       0.43399884       0.28846216       0.61098746 </v>
   <v>       0.18402137       0.45265863       0.34501163 </v>
   <v>       0.43535428       0.28689382       0.12419844 </v>
   <v>       0.68376020       0.78732616       0.25576133 </v>
   <v>       0.43674601       0.12089426       0.52158799 </v>
   <v>       0.18845112       0.29660010       0.87604152 </v>
   <v>       0.19129157       0.12524822       0.65511506 </v>
   <v>       0.94116219       0.12499645       0.65515932 </v>
   <v>       0.81621015       0.53769634       0.38908128 </v>
   <v>       0.06645311       0.03832408       0.38915063 </v>
   <v>       0.18295960       0.11231996       0.16639777 </v>
   <v>       0.05897961       0.53836200       0.61106384 </v>
   <v>       0.93362529       0.28745875       0.25582411 </v>
   <v>       0.55901707       0.53862417       0.61109282 </v>
   <v>       0.93634773       0.95654929       0.56560557 </v>
   <v>       0.69415952       0.62446365       0.30013253 </v>
   <v>       0.93772146       0.61948879       0.43457950 </v>
   <v>       0.93308075       0.62458151       0.78826044 </v>
   <v>       0.56049223       0.70771848       0.69967492 </v>
   <v>       0.06646404       0.71653652       0.83386944 </v>
   <v>       0.94458478       0.12272863       0.29999188 </v>
   <v>       0.93394792       0.78778813       0.61093378 </v>
   <v>       0.43303788       0.78773528       0.25560022 </v>
   <v>       0.30910921       0.37406849       0.78861918 </v>
   <v>       0.43973037       0.45401558       0.21133706 </v>
   <v>       0.18697838       0.12067461       0.52156334 </v>
   <v>       0.81040109       0.70841768       0.69968128 </v>
   <v>       0.05891376       0.03861597       0.61108991 </v>
   <v>       0.56621102       0.21391757       0.83314772 </v>
   <v>       0.31184323       0.87104656       0.52153225 </v>
   <v>       0.68598480       0.28697536       0.12404999 </v>
   <v>       0.19043310       0.95506555       0.21170146 </v>
   <v>       0.68424900       0.28853592       0.61107038 </v>
   <v>       0.30892913       0.03836386       0.61110969 </v>
   <v>       0.93417545       0.12430017       0.78857005 </v>
   <v>       0.43699669       0.79753300       0.87606363 </v>
   <v>       0.81534448       0.04144012       0.74432505 </v>
   <v>       0.93531289       0.45857644       0.69965515 </v>
   <v>       0.19138926       0.62546374       0.65517066 </v>
   <v>       0.31059025       0.70751464       0.69969756 </v>
   <v>       0.93511599       0.28703415       0.12407850 </v>
   <v>       0.43747791       0.45582309       0.47862380 </v>
   <v>       0.06248851       0.70564683       0.47863186 </v>
   <v>       0.93700527       0.11942023       0.43465873 </v>
   <v>       0.44428745       0.12405755       0.30042870 </v>
   <v>       0.18732653       0.11981333       0.43443236 </v>
   <v>       0.56303187       0.04035046       0.87601390 </v>
   <v>       0.18653528       0.95658079       0.56557859 </v>
   <v>       0.68560926       0.78731595       0.12420193 </v>
   <v>       0.55913373       0.70257537       0.34499571 </v>
   <v>       0.31610897       0.03682972       0.38889110 </v>
   <v>       0.68211894       0.11413033       0.16677397 </v>
   <v>       0.81554875       0.20355231       0.21103222 </v>
   <v>       0.05946581       0.53752684       0.25568528 </v>
   <v>       0.56222817       0.70568170       0.47870110 </v>
   <v>       0.43479764       0.78571501       0.12396654 </v>
   <v>       0.56901178       0.37303328       0.30009981 </v>
   <v>       0.43368903       0.95290502       0.34500712 </v>
   <v>       0.18505738       0.95796106       0.69969457 </v>
   <v>       0.42995457       0.61585796       0.16655581 </v>
   <v>       0.93965102       0.45373004       0.21164570 </v>
   <v>       0.06176071       0.53012099       0.12411238 </v>
   <v>       0.81184068       0.37133508       0.52150910 </v>
   <v>       0.94439403       0.62352149       0.29990753 </v>
   <v>       0.30984879       0.03747264       0.25553952 </v>
   <v>       0.68382587       0.78786012       0.61093273 </v>
   <v>       0.19188960       0.46385550       0.83341081 </v>
   <v>       0.43229930       0.11319393       0.16647160 </v>
   <v>       0.31183149       0.37103374       0.52153186 </v>
   <v>       0.43286131       0.62320460       0.78885337 </v>
   <v>       0.05868584       0.03754305       0.25570975 </v>
   <v>       0.56238849       0.70650878       0.56560819 </v>
   <v>       0.93935691       0.29081189       0.74438457 </v>
   <v>       0.68265983       0.12301487       0.78839246 </v>
   <v>       0.19010472       0.45342120       0.21106681 </v>
   <v>       0.94153048       0.78743515       0.38903794 </v>
   <v>       0.68542626       0.29916126       0.87598886 </v>
   <v>       0.55669104       0.86377271       0.16655392 </v>
   <v>       0.43528899       0.45804382       0.69963707 </v>
   <v>       0.93421940       0.95152669       0.34490122 </v>
   <v>       0.68644371       0.62095682       0.52137244 </v>
   <v>       0.06613871       0.87515598       0.65514870 </v>
   <v>       0.05920628       0.87418285       0.78843763 </v>
   <v>       0.06639465       0.37499306       0.65496090 </v>
   <v>       0.68699737       0.45526307       0.47865686 </v>
   <v>       0.18343351       0.78752526       0.25548247 </v>
   <v>       0.43732151       0.12041236       0.43442670 </v>
   <v>       0.81352926       0.03033822       0.12400187 </v>
   <v>       0.93692725       0.62102082       0.52152309 </v>
   <v>       0.44167653       0.12489467       0.65488307 </v>
   <v>       0.81186576       0.52986596       0.12380787 </v>
   <v>       0.43419816       0.45287542       0.34506509 </v>
   <v>       0.80921531       0.20260890       0.34507076 </v>
   <v>       0.30924618       0.70180028       0.34480258 </v>
   <v>       0.69117675       0.12525733       0.65513187 </v>
   <v>       0.57007833       0.87345716       0.30026477 </v>
   <v>       0.06513235       0.54104482       0.74418852 </v>
   <v>       0.94090345       0.95393600       0.21115085 </v>
   <v>       0.81578397       0.70331194       0.21126897 </v>
   <v>       0.06951242       0.87390105       0.30013497 </v>
   <v>       0.19449507       0.12378828       0.30011953 </v>
   <v>       0.05874360       0.70206476       0.34488718 </v>
   <v>       0.80923092       0.03843535       0.61100348 </v>
   <v>       0.06291899       0.37079650       0.43444033 </v>
   <v>       0.55935977       0.20300026       0.34477532 </v>
   <v>       0.81944790       0.37424246       0.30007485 </v>
   <v>       0.56038768       0.03755754       0.25558344 </v>
   <v>       0.56639329       0.53786991       0.38904894 </v>
   <v>       0.06272068       0.20533314       0.47875263 </v>
   <v>       0.31072718       0.87253157       0.78824170 </v>
   <v>       0.93503599       0.95831585       0.69967573 </v>
   <v>       0.06887680       0.37466571       0.30010322 </v>
   <v>       0.69084581       0.62513388       0.65521570 </v>
   <v>       0.68651202       0.45652859       0.56549302 </v>
   <v>       0.44148775       0.95548038       0.21185884 </v>
   <v>       0.31251071       0.20534424       0.47878428 </v>
   <v>       0.81253426       0.54024038       0.87583387 </v>
   <v>       0.68780722       0.61966328       0.43462530 </v>
   <v>       0.81081604       0.20805130       0.69975193 </v>
   <v>       0.81260128       0.70526735       0.47874925 </v>
   <v>       0.81191771       0.87044358       0.43434063 </v>
   <v>       0.93745207       0.95482720       0.47875172 </v>
   <v>       0.56206419       0.20518341       0.47871989 </v>
   <v>       0.18712930       0.61938319       0.43446478 </v>
   <v>       0.31516490       0.04161143       0.74418066 </v>
   <v>       0.94119013       0.62533951       0.65495386 </v>
   <v>       0.56634838       0.71318094       0.83319448 </v>
   <v>       0.31980072       0.37237360       0.30013752 </v>
   <v>       0.31495562       0.54133326       0.74417011 </v>
   <v>       0.18730130       0.45531338       0.47873048 </v>
   <v>       0.31503687       0.04104023       0.87589624 </v>
   <v>       0.18515881       0.45814905       0.69964562 </v>
   <v>       0.56166402       0.37108575       0.52148362 </v>
   <v>       0.19106695       0.28741679       0.38900236 </v>
   <v>       0.31515500       0.20404823       0.21116639 </v>
   <v>       0.06708138       0.70310051       0.21122385 </v>
   <v>       0.56207841       0.37031869       0.43442922 </v>
   <v>       0.43676727       0.62108685       0.52148688 </v>
   <v>       0.81712404       0.71519988       0.83324283 </v>
   <v>       0.05895086       0.37457922       0.78841575 </v>
   <v>       0.43645755       0.29827932       0.87623970 </v>
   <v>       0.31163468       0.03075526       0.12409258 </v>
   <v>       0.68766957       0.11944216       0.43437042 </v>
   <v>       0.18389789       0.95270798       0.34506070 </v>
   <v>       0.06715659       0.21508730       0.83388672 </v>
   <v>       0.55936889       0.03854484       0.61109162 </v>
   <v>       0.68958242       0.45446766       0.21181051 </v>
   <v>       0.18987853       0.79169261       0.74436316 </v>
   <v>       0.19411771       0.62364858       0.30036902 </v>
   <v>       0.44141157       0.78769183       0.38916513 </v>
   <v>       0.43354163       0.28801880       0.25575522 </v>
   <v>       0.06346869       0.54079195       0.87583344 </v>
   <v>       0.56528876       0.04170156       0.74421480 </v>
   <v>       0.18767966       0.79730582       0.87598991 </v>
   <v>       0.93749971       0.45512857       0.47874463 </v>
   <v>       0.56522481       0.54110513       0.74397034 </v>
   <v>       0.81154103       0.20657686       0.56551311 </v>
   <v>       0.18445028       0.62278697       0.78848966 </v>
   <v>       0.06709270       0.53875172       0.38919684 </v>
   <v>       0.06044012       0.70784797       0.69969934 </v>
   <v>       0.30905759       0.53814066       0.25540641 </v>
   <v>       0.31480967       0.70260568       0.21205969 </v>
   <v>       0.30583202       0.86446676       0.16551455 </v>
   <v>       0.43708577       0.62088450       0.43447631 </v>
   <v>       0.81771116       0.03954524       0.38922423 </v>
   <v>       0.93513622       0.29752982       0.87557447 </v>
   <v>       0.93721016       0.79538834       0.87542794 </v>
   <v>       0.06586955       0.03886614       0.87565956 </v>
   <v>       0.81131293       0.70527661       0.56568471 </v>
   <v>       0.80628765       0.36467084       0.16597286 </v>
   <v>       0.06202189       0.87096997       0.43456262 </v>
   <v>       0.93656090       0.12103496       0.52161675 </v>
   <v>       0.19266283       0.78764717       0.38894424 </v>
   <v>       0.56679957       0.70343116       0.21189807 </v>
  </varray>
 </structure>
 <calculation>
  <scstep>
   <time name="dav">   54.36   54.37</time>
   <time name="total">   54.50   54.56</time>
   <energy>
    <i name="alphaZ">  16293.21160653 </i>
    <i name="ewald"> 725133.46717889 </i>
    <i name="hartreedc">-915648.11980542 </i>
    <i name="XCdc">  -6512.66351157 </i>
    <i name="pawpsdc"> 162273.92519768 </i>
    <i name="pawaedc">-159623.75899949 </i>
    <i name="eentropy">     -1.06823018 </i>
    <i name="bandstr">  38488.25661213 </i>
    <i name="atom"> 168671.76673737 </i>
    <i name="e_fr_energy">  29075.01678593 </i>
    <i name="e_wo_entrp">  29076.08501611 </i>
    <i name="e_0_energy">  29075.55090102 </i>
   </energy>
  </scstep>
  <scstep>
   <time name="dav">   54.02   54.03</time>
   <time name="total">   54.03   54.03</time>
   <energy>
    <i name="e_fr_energy">   1187.41219366 </i>
    <i name="e_wo_entrp">   1188.90246176 </i>
    <i name="e_0_energy">   1188.15732771 </i>
   </energy>
  </scstep>
  <scstep>
   <time name="dav">   70.79   70.83</time>
   <time name="total">   70.80   70.84</time>
   <energy>
    <i name="e_fr_energy">  -1950.64364876 </i>
    <i name="e_wo_entrp">  -1947.08703496 </i>
    <i name="e_0_energy">  -1948.86534186 </i>
   </energy>
  </scstep>
  <scstep>
   <time name="dav">   88.88   88.92</time>
   <time name="total">   88.89   88.93</time>
   <energy>
    <i name="e_fr_energy">  -2619.93535877 </i>
    <i name="e_wo_entrp">  -2616.40417998 </i>
    <i name="e_0_energy">  -2618.16976937 </i>
   </energy>
  </scstep>
  <scstep>
   <time name="dav">   85.09   85.13</time>
   <time name="total">   87.12   87.16</time>
   <energy>
    <i name="e_fr_energy">  -2739.20368254 </i>
    <i name="e_wo_entrp">  -2735.54860107 </i>
    <i name="e_0_energy">  -2737.37614181 </i>
   </energy>
  </scstep>
  <scstep>
   <time name="diag">    8.29    8.29</time>
   <time name="diis">   37.51   37.52</time>
   <time name="orth">    2.32    2.32</time>
   <time name="total">   50.27   50.30</time>
   <energy>
    <i name="e_fr_energy">  -5787.02014882 </i>
    <i name="e_wo_entrp">  -5783.95845387 </i>
    <i name="e_0_energy">  -5785.48930135 </i>
   </energy>
  </scstep>
  <scstep>
   <time name="diag">    8.27    8.27</time>
   <time name="diis">   25.62   25.63</time>
   <time name="orth">    2.32    2.32</time>
   <time name="total">   38.39   38.42</time>
[...]
       <r>     5.8989     0.0000  2772.0000 </r>
       <r>     5.9418     0.0000  2772.0000 </r>
       <r>     5.9848     0.0000  2772.0000 </r>
       <r>     6.0278     0.0000  2772.0000 </r>
       <r>     6.0707     0.0000  2772.0000 </r>
       <r>     6.1137     0.0000  2772.0000 </r>
       <r>     6.1567     0.0000  2772.0000 </r>
       <r>     6.1996     0.0000  2772.0000 </r>
       <r>     6.2426     0.0000  2772.0000 </r>
       <r>     6.2856     0.0000  2772.0000 </r>
       <r>     6.3285     0.0000  2772.0000 </r>
       <r>     6.3715     0.0000  2772.0000 </r>
       <r>     6.4145     0.0000  2772.0000 </r>
       <r>     6.4574     0.0000  2772.0000 </r>
       <r>     6.5004     0.0000  2772.0000 </r>
       <r>     6.5434     0.0000  2772.0000 </r>
       <r>     6.5863     0.0000  2772.0000 </r>
       <r>     6.6293     0.0000  2772.0000 </r>
       <r>     6.6723     0.0000  2772.0000 </r>
       <r>     6.7152     0.0000  2772.0000 </r>
       <r>     6.7582     0.0000  2772.0000 </r>
       <r>     6.8012     0.0000  2772.0000 </r>
       <r>     6.8441     0.0000  2772.0000 </r>
      </set>
     </set>
    </array>
   </total>
  </dos>
 </calculation>
 <structure name="finalpos" >
  <crystal>
   <varray name="basis" >
    <v>       9.72667804       0.00000000       0.00000000 </v>
    <v>       0.00000000       8.42355028       0.00000000 </v>
    <v>       0.00000000       0.00000000      45.00000000 </v>
   </varray>
   <i name="volume">   3686.99226691 </i>
   <varray name="rec_basis" >
    <v>       0.10281002       0.00000000       0.00000000 </v>
    <v>       0.00000000       0.11871479       0.00000000 </v>
    <v>       0.00000000       0.00000000       0.02222222 </v>
   </varray>
  </crystal>
  <varray name="positions" >
   <v>       0.06239854       0.02968900       0.12395262 </v>
   <v>       0.31510128       0.87398618       0.65493598 </v>
   <v>       0.18567176       0.12398235       0.78924067 </v>
   <v>       0.44393760       0.28884261       0.38968136 </v>
   <v>       0.31825723       0.71465140       0.83359901 </v>
   <v>       0.81774397       0.21434262       0.83390138 </v>
   <v>       0.19173333       0.96442434       0.83369752 </v>
   <v>       0.56203646       0.20599268       0.56551216 </v>
   <v>       0.06678306       0.04037274       0.74312656 </v>
   <v>       0.81141328       0.87091002       0.52213353 </v>
   <v>       0.19133578       0.29152493       0.74338873 </v>
   <v>       0.93238377       0.45454776       0.34434344 </v>
   <v>       0.93901865       0.28967559       0.38955672 </v>
   <v>       0.81447102       0.04115925       0.87590012 </v>
   <v>       0.18293466       0.78715442       0.61075896 </v>
   <v>       0.56742999       0.03831289       0.38963710 </v>
   <v>       0.94225264       0.96571309       0.83425855 </v>
   <v>       0.31343471       0.54193764       0.87632138 </v>
   <v>       0.68937311       0.29241123       0.74351804 </v>
   <v>       0.18261087       0.61413049       0.16637970 </v>
   <v>       0.81171674       0.20643978       0.47977284 </v>
   <v>       0.81219920       0.53825403       0.61062952 </v>
   <v>       0.31313727       0.87043790       0.43549591 </v>
   <v>       0.81058937       0.03865836       0.25537288 </v>
   <v>       0.68336886       0.95125219       0.34428687 </v>
   <v>       0.92962280       0.11621418       0.16689400 </v>
   <v>       0.06207361       0.87091442       0.52231948 </v>
   <v>       0.55964055       0.53771270       0.25471199 </v>
   <v>       0.68604917       0.79640265       0.87605163 </v>
   <v>       0.55907237       0.36572397       0.16674755 </v>
   <v>       0.43886648       0.79184039       0.74339856 </v>
   <v>       0.56276738       0.53186663       0.12418558 </v>
   <v>       0.55928657       0.87506280       0.78929554 </v>
   <v>       0.68667671       0.12147891       0.52185054 </v>
   <v>       0.81763319       0.37483007       0.65469852 </v>
   <v>       0.94146557       0.46345739       0.83390046 </v>
   <v>       0.06126576       0.20911530       0.69873920 </v>
   <v>       0.43410854       0.95736926       0.69896654 </v>
   <v>       0.31750415       0.21227190       0.83321878 </v>
   <v>       0.43905837       0.62531379       0.65498137 </v>
   <v>       0.30667204       0.53870955       0.61093945 </v>
   <v>       0.93685433       0.45602733       0.56585363 </v>
   <v>       0.69001632       0.79083113       0.74343389 </v>
   <v>       0.93423602       0.78667065       0.12415758 </v>
   <v>       0.69132649       0.78582600       0.38943521 </v>
   <v>       0.94085429       0.79003786       0.74351764 </v>
   <v>       0.05846986       0.20502057       0.34445503 </v>
   <v>       0.68446112       0.45391799       0.34493779 </v>
   <v>       0.43366652       0.12374132       0.78956563 </v>
   <v>       0.06351974       0.20449210       0.21105722 </v>
   <v>       0.05457598       0.36590013       0.16677553 </v>
   <v>       0.93295861       0.78628104       0.25507355 </v>
   <v>       0.55964388       0.20837747       0.69907937 </v>
   <v>       0.68472862       0.95782986       0.69893757 </v>
   <v>       0.80855219       0.87424196       0.78917949 </v>
   <v>       0.43652065       0.95689014       0.56540411 </v>
   <v>       0.80822935       0.37427250       0.78912545 </v>
   <v>       0.68535822       0.28878896       0.25515575 </v>
   <v>       0.18594577       0.45614050       0.56558526 </v>
   <v>       0.05651329       0.86450489       0.16658435 </v>
   <v>       0.18316119       0.28912478       0.61085090 </v>
   <v>       0.06187231       0.20698939       0.56542608 </v>
   <v>       0.30996594       0.20820626       0.69925319 </v>
   <v>       0.56291793       0.54231072       0.87620455 </v>
   <v>       0.06155372       0.70570284       0.56580772 </v>
   <v>       0.68321023       0.62209101       0.78905735 </v>
   <v>       0.31795657       0.53744383       0.38946241 </v>
   <v>       0.18652727       0.61987984       0.52225845 </v>
   <v>       0.56293045       0.87034026       0.43541008 </v>
   <v>       0.43625280       0.45612649       0.56542764 </v>
   <v>       0.43861774       0.29169982       0.74359656 </v>
   <v>       0.81951971       0.87266257       0.29945792 </v>
   <v>       0.80795594       0.70095790       0.34450423 </v>
   <v>       0.44245616       0.46234664       0.83349402 </v>
   <v>       0.68666481       0.95594789       0.47967506 </v>
   <v>       0.68499783       0.45850863       0.69892695 </v>
   <v>       0.56173386       0.87168810       0.52190837 </v>
   <v>       0.56575257       0.37455197       0.65487897 </v>
   <v>       0.81705023       0.87459447       0.65465298 </v>
   <v>       0.81110986       0.37134749       0.43519791 </v>
   <v>       0.80901052       0.53711318       0.25516353 </v>
   <v>       0.69116472       0.46203242       0.83353544 </v>
   <v>       0.18642288       0.78631335       0.12372638 </v>
   <v>       0.68981769       0.28977355       0.38966371 </v>
   <v>       0.31473934       0.37601021       0.65473064 </v>
   <v>       0.31069756       0.20472758       0.34433422 </v>
   <v>       0.81600819       0.54047912       0.74319288 </v>
   <v>       0.69225196       0.96324907       0.83350560 </v>
   <v>       0.56532205       0.87443951       0.65484747 </v>
   <v>       0.31076259       0.70692450       0.56553678 </v>
   <v>       0.31319809       0.53343311       0.12390245 </v>
   <v>       0.69045112       0.95500991       0.21122371 </v>
   <v>       0.31072402       0.20589080       0.56551066 </v>
   <v>       0.18793837       0.95630060       0.47975340 </v>
   <v>       0.68799828       0.95641939       0.56570447 </v>
   <v>       0.43311416       0.78938428       0.61075353 </v>
   <v>       0.68302533       0.61201986       0.16671444 </v>
   <v>       0.31950360       0.87185808       0.29923123 </v>
   <v>       0.31276445       0.70499987       0.47952918 </v>
   <v>       0.93432203       0.28926406       0.61062850 </v>
   <v>       0.44499240       0.62332561       0.29953587 </v>
   <v>       0.80703566       0.86289176       0.16684961 </v>
   <v>       0.56740700       0.20419069       0.21086228 </v>
   <v>       0.93076996       0.61217454       0.16676623 </v>
   <v>       0.43815497       0.95665090       0.47974890 </v>
   <v>       0.55847360       0.37126888       0.78937266 </v>
   <v>       0.06139885       0.37122386       0.52201584 </v>
   <v>       0.30723655       0.36506465       0.16678325 </v>
   <v>       0.69460685       0.12315463       0.29945878 </v>
   <v>       0.44259824       0.96452825       0.83311851 </v>
   <v>       0.18561164       0.28654184       0.12409789 </v>
   <v>       0.18271471       0.28982122       0.25529746 </v>
   <v>       0.31367300       0.37064953       0.43556202 </v>
   <v>       0.56287128       0.03185470       0.12418798 </v>
   <v>       0.43314761       0.28773968       0.61071313 </v>
   <v>       0.18371941       0.45353938       0.34423026 </v>
   <v>       0.43549348       0.28737422       0.12412368 </v>
   <v>       0.68510614       0.78618829       0.25530873 </v>
   <v>       0.43672157       0.12121764       0.52186951 </v>
   <v>       0.18725005       0.29537393       0.87633173 </v>
   <v>       0.19043985       0.12550767       0.65487201 </v>
   <v>       0.94203366       0.12571074       0.65475977 </v>
   <v>       0.81408250       0.53768322       0.38941920 </v>
   <v>       0.06605766       0.03801453       0.38970028 </v>
   <v>       0.18299070       0.11196217       0.16641677 </v>
   <v>       0.05839039       0.53812277       0.61090741 </v>
   <v>       0.93312420       0.28886083       0.25510328 </v>
   <v>       0.55898452       0.53868192       0.61092208 </v>
   <v>       0.93644067       0.95676952       0.56573126 </v>
   <v>       0.69472982       0.62445221       0.29945431 </v>
   <v>       0.93620033       0.61831398       0.43547081 </v>
   <v>       0.93301472       0.62420021       0.78879304 </v>
   <v>       0.55953076       0.70737130       0.69894109 </v>
   <v>       0.06669636       0.71746431       0.83421688 </v>
   <v>       0.94284657       0.12384313       0.29897016 </v>
   <v>       0.93422018       0.78693328       0.61050098 </v>
   <v>       0.43374644       0.78646425       0.25518926 </v>
   <v>       0.31006400       0.37174729       0.78925045 </v>
   <v>       0.44075333       0.45432340       0.21115617 </v>
   <v>       0.18699344       0.12159962       0.52214364 </v>
   <v>       0.81145478       0.70787229       0.69902866 </v>
   <v>       0.05840816       0.03870057       0.61077893 </v>
   <v>       0.56570198       0.21346827       0.83302882 </v>
   <v>       0.31228688       0.87182152       0.52220487 </v>
   <v>       0.68638552       0.28706285       0.12402618 </v>
   <v>       0.18991750       0.95451490       0.21145240 </v>
   <v>       0.68642829       0.28771320       0.61061183 </v>
   <v>       0.30840741       0.03811913       0.61076664 </v>
   <v>       0.93406146       0.12454470       0.78942134 </v>
   <v>       0.43665604       0.79535536       0.87624349 </v>
   <v>       0.81529390       0.04063275       0.74364517 </v>
   <v>       0.93678959       0.45913800       0.69881101 </v>
   <v>       0.19059180       0.62495513       0.65487429 </v>
   <v>       0.30978427       0.70728148       0.69890814 </v>
   <v>       0.93445696       0.28664321       0.12397736 </v>
   <v>       0.43824928       0.45448021       0.47957940 </v>
   <v>       0.06172628       0.70467839       0.47959682 </v>
   <v>       0.93583176       0.12071955       0.43584961 </v>
   <v>       0.44577386       0.12443458       0.29968556 </v>
   <v>       0.18798170       0.12041272       0.43569961 </v>
   <v>       0.56427314       0.04118391       0.87617502 </v>
   <v>       0.18623645       0.95689625       0.56554287 </v>
   <v>       0.68603769       0.78583699       0.12409853 </v>
   <v>       0.56097595       0.70115086       0.34463223 </v>
   <v>       0.31811481       0.03775840       0.38961020 </v>
   <v>       0.68324862       0.11536411       0.16698308 </v>
   <v>       0.81512633       0.20486710       0.21094941 </v>
   <v>       0.05864533       0.53744720       0.25515880 </v>
   <v>       0.56303288       0.70543631       0.47957355 </v>
   <v>       0.43402531       0.78443754       0.12385054 </v>
   <v>       0.56930062       0.37327745       0.29950767 </v>
   <v>       0.43561419       0.95269680       0.34446735 </v>
   <v>       0.18548672       0.95727192       0.69890000 </v>
   <v>       0.43064562       0.61520786       0.16637375 </v>
   <v>       0.93810858       0.45394891       0.21163478 </v>
   <v>       0.06168525       0.53117466       0.12411352 </v>
   <v>       0.81200191       0.37118254       0.52190654 </v>
   <v>       0.94365263       0.62302168       0.29919071 </v>
   <v>       0.30986975       0.03756653       0.25505728 </v>
   <v>       0.68572006       0.78888585       0.61044254 </v>
   <v>       0.19295196       0.46292710       0.83359994 </v>
   <v>       0.43266187       0.11294524       0.16655472 </v>
   <v>       0.31162893       0.37055505       0.52188182 </v>
   <v>       0.43323004       0.62247981       0.78947152 </v>
   <v>       0.05723693       0.03753292       0.25503875 </v>
   <v>       0.56283368       0.70748559       0.56541850 </v>
   <v>       0.94017135       0.29201731       0.74353128 </v>
   <v>       0.68161217       0.12391544       0.78934658 </v>
   <v>       0.18924758       0.45375479       0.21108487 </v>
   <v>       0.93957371       0.78510177       0.38939851 </v>
   <v>       0.68657822       0.29872799       0.87619868 </v>
   <v>       0.55684967       0.86325811       0.16668432 </v>
   <v>       0.43428584       0.45845508       0.69894765 </v>
   <v>       0.93240534       0.95025634       0.34428836 </v>
   <v>       0.68663297       0.62037175       0.52172931 </v>
   <v>       0.06661716       0.87422079       0.65483745 </v>
   <v>       0.05944904       0.87486569       0.78908806 </v>
   <v>       0.06639789       0.37598014       0.65454868 </v>
   <v>       0.68710986       0.45479673       0.47961247 </v>
   <v>       0.18262930       0.78588799       0.25500828 </v>
   <v>       0.43854175       0.12087072       0.43543901 </v>
   <v>       0.81362669       0.03070393       0.12395287 </v>
   <v>       0.93694409       0.62000419       0.52204634 </v>
   <v>       0.44054268       0.12488369       0.65467008 </v>
   <v>       0.81157254       0.53056714       0.12386873 </v>
   <v>       0.43554692       0.45263281       0.34468227 </v>
   <v>       0.80764808       0.20380082       0.34449319 </v>
   <v>       0.30953616       0.70037535       0.34417124 </v>
   <v>       0.69169310       0.12558034       0.65480390 </v>
   <v>       0.57109687       0.87325633       0.29953686 </v>
   <v>       0.06534716       0.54137038       0.74303307 </v>
   <v>       0.93956921       0.95394940       0.21115516 </v>
   <v>       0.81571815       0.70182190       0.21117106 </v>
   <v>       0.06800336       0.87166534       0.29917595 </v>
   <v>       0.19442393       0.12508233       0.29919046 </v>
   <v>       0.05758985       0.70013292       0.34421966 </v>
   <v>       0.81043896       0.03877190       0.61042091 </v>
   <v>       0.06198020       0.37107104       0.43565294 </v>
   <v>       0.55995476       0.20388441       0.34445647 </v>
   <v>       0.81938715       0.37513132       0.29926796 </v>
   <v>       0.56177226       0.03780047       0.25527478 </v>
   <v>       0.56834794       0.53730080       0.38955102 </v>
   <v>       0.06252234       0.20647974       0.47991059 </v>
   <v>       0.31094748       0.87489998       0.78898508 </v>
   <v>       0.93651815       0.95800405       0.69883417 </v>
   <v>       0.06800128       0.37654487       0.29921347 </v>
   <v>       0.69168215       0.62505528       0.65501296 </v>
   <v>       0.68804486       0.45620130       0.56531900 </v>
   <v>       0.44202065       0.95516687       0.21142444 </v>
   <v>       0.31329545       0.20573081       0.47992309 </v>
   <v>       0.81250911       0.54108759       0.87623978 </v>
   <v>       0.68751407       0.61876438       0.43520662 </v>
   <v>       0.81164370       0.20874985       0.69883243 </v>
   <v>       0.81187841       0.70425656       0.47971977 </v>
   <v>       0.81064720       0.86987689       0.43531939 </v>
   <v>       0.93693135       0.95515723       0.47973716 </v>
   <v>       0.56205276       0.20538826       0.47975213 </v>
   <v>       0.18734232       0.61901964       0.43547186 </v>
   <v>       0.31537054       0.04232759       0.74343507 </v>
   <v>       0.94250409       0.62446232       0.65453550 </v>
   <v>       0.56613969       0.71339174       0.83358278 </v>
   <v>       0.31973781       0.37375051       0.29938010 </v>
   <v>       0.31458874       0.54064122       0.74307795 </v>
   <v>       0.18705417       0.45389512       0.47980194 </v>
   <v>       0.31329634       0.04137881       0.87604117 </v>
   <v>       0.18501193       0.45884905       0.69883456 </v>
   <v>       0.56192959       0.37073738       0.52168580 </v>
   <v>       0.19203016       0.28880574       0.38953720 </v>
   <v>       0.31509649       0.20461258       0.21095084 </v>
   <v>       0.06553900       0.70193316       0.21126540 </v>
   <v>       0.56279288       0.37068247       0.43517336 </v>
   <v>       0.43717095       0.62068229       0.52195314 </v>
   <v>       0.81664245       0.71582294       0.83371091 </v>
   <v>       0.05933811       0.37391740       0.78904913 </v>
   <v>       0.43657891       0.29848218       0.87633643 </v>
   <v>       0.31137779       0.03013249       0.12380383 </v>
   <v>       0.68706626       0.12035325       0.43532784 </v>
   <v>       0.18397213       0.95160839       0.34458582 </v>
   <v>       0.06749035       0.21379213       0.83426249 </v>
   <v>       0.55975266       0.03843181       0.61064365 </v>
   <v>       0.69059369       0.45424894       0.21159685 </v>
   <v>       0.18991630       0.79149210       0.74324067 </v>
   <v>       0.19339600       0.62228428       0.29946160 </v>
   <v>       0.44369675       0.78668897       0.38974714 </v>
   <v>       0.43414493       0.28935819       0.25542601 </v>
   <v>       0.06298877       0.54132258       0.87638401 </v>
   <v>       0.56351576       0.04226368       0.74359450 </v>
   <v>       0.18706619       0.79714645       0.87632454 </v>
   <v>       0.93687095       0.45451271       0.47979161 </v>
   <v>       0.56453018       0.54063586       0.74312534 </v>
   <v>       0.81242411       0.20666090       0.56556711 </v>
   <v>       0.18466347       0.62285092       0.78900795 </v>
   <v>       0.06545269       0.53854224       0.38953591 </v>
   <v>       0.06150906       0.70724827       0.69890531 </v>
   <v>       0.30843849       0.53791754       0.25492414 </v>
   <v>       0.31487184       0.70195977       0.21190992 </v>
   <v>       0.30619073       0.86387672       0.16540437 </v>
   <v>       0.43901910       0.62016061       0.43547532 </v>
   <v>       0.81448914       0.03881777       0.38980419 </v>
   <v>       0.93532616       0.29534085       0.87611676 </v>
   <v>       0.93697301       0.79645613       0.87599797 </v>
   <v>       0.06442604       0.03940194       0.87605500 </v>
   <v>       0.81204254       0.70515393       0.56579834 </v>
   <v>       0.80588766       0.36565323       0.16631513 </v>
   <v>       0.06197379       0.87011758       0.43579496 </v>
   <v>       0.93668263       0.12229434       0.52223184 </v>
   <v>       0.19270110       0.78633340       0.38958420 </v>
   <v>       0.56750723       0.70248369       0.21173274 </v>
  </varray>
 </structure>
</modeling>
