unknown system                          
           1
     9.726678    0.000000    0.000000
     0.000000    8.423550    0.000000
     0.000000    0.000000   45.000000
   Fe   Mn
 274  14
Direct configuration=     1
   0.06263762  0.02961883  0.12397747
   0.31647357  0.87495476  0.65515414
   0.18378020  0.12368447  0.78849852
   0.44178612  0.28795321  0.38918613
   0.31800310  0.71383512  0.83315929
   0.81838549  0.21520648  0.83358550
   0.19152136  0.96363618  0.83350129
   0.56178958  0.20623550  0.56560694
   0.06548199  0.04045721  0.74403131
   0.81156881  0.87085522  0.52163010
   0.19051790  0.29127493  0.74429550
   0.93378981  0.45225365  0.34484080
   0.94103738  0.28653717  0.38891486
   0.81291587  0.04075133  0.87562414
   0.18353825  0.78791889  0.61089156
   0.56653639  0.03766127  0.38908553
   0.94256467  0.96494620  0.83378790
   0.31335434  0.54052271  0.87604483
   0.69016435  0.29154613  0.74407836
   0.18228315  0.61392456  0.16651394
   0.81228140  0.20541456  0.47877151
   0.80914087  0.53830400  0.61104592
   0.31201946  0.87039835  0.43446026
   0.80998351  0.03852035  0.25598827
   0.68328268  0.95222934  0.34472564
   0.93042198  0.11532628  0.16679860
   0.06196312  0.87078388  0.52157503
   0.55819717  0.53809337  0.25529431
   0.68464763  0.79757838  0.87578824
   0.55756543  0.36440154  0.16653313
   0.43957789  0.79195282  0.74437381
   0.56307096  0.53100350  0.12417398
   0.55962494  0.87342484  0.78850238
   0.68674721  0.12073805  0.52148881
   0.81627924  0.37432149  0.65507431
   0.94220914  0.46426010  0.83371768
   0.06036488  0.20842466  0.69964720
   0.43525651  0.95793255  0.69961340
   0.31686438  0.21297429  0.83337531
   0.44094892  0.62505542  0.65501891
   0.30896114  0.53848728  0.61103865
   0.93666105  0.45623921  0.56571294
   0.69003652  0.79160133  0.74420384
   0.93445944  0.78785961  0.12433962
   0.69151908  0.78796667  0.38907330
   0.94018145  0.79101989  0.74447919
   0.05926482  0.20318571  0.34508289
   0.68404488  0.45243794  0.34509789
   0.43410366  0.12292679  0.78879078
   0.06509665  0.20368121  0.21107751
   0.05559121  0.36534577  0.16662360
   0.93328426  0.78759348  0.25562845
   0.56051149  0.20801804  0.69973261
   0.68509703  0.95829989  0.69972141
   0.80879544  0.87344315  0.78838103
   0.43688783  0.95690176  0.56549803
   0.80893071  0.37494483  0.78840889
   0.68375644  0.28747128  0.25580799
   0.18687983  0.45636506  0.56557783
   0.05658606  0.86484130  0.16659133
   0.18415556  0.28829341  0.61106197
   0.06240755  0.20678199  0.56544103
   0.31048450  0.20789698  0.69986973
   0.56273087  0.54120717  0.87594847
   0.06211259  0.70599894  0.56567598
   0.68326510  0.62250181  0.78838720
   0.31602044  0.53824109  0.38900318
   0.18700955  0.62081697  0.52158446
   0.56267103  0.87029727  0.43450060
   0.43705991  0.45648819  0.56562451
   0.43944527  0.29201752  0.74422745
   0.82055108  0.87385797  0.30026677
   0.80863173  0.70264435  0.34495085
   0.44211607  0.46299636  0.83332614
   0.68746890  0.95559647  0.47874079
   0.68476340  0.45827786  0.69967721
   0.56209247  0.87118640  0.52151221
   0.56612710  0.37480570  0.65496295
   0.81617584  0.87485983  0.65498417
   0.81196742  0.37076402  0.43437522
   0.80844996  0.53734314  0.25587305
   0.69180644  0.46254167  0.83331523
   0.18592665  0.78737103  0.12388681
   0.69094831  0.28729287  0.38907497
   0.31641807  0.37509590  0.65493989
   0.30888708  0.20257791  0.34471194
   0.81553231  0.54036905  0.74407722
   0.69192977  0.96234432  0.83339144
   0.56593189  0.87489730  0.65507388
   0.31143785  0.70672415  0.56554778
   0.31301461  0.53183094  0.12409659
   0.68966961  0.95485268  0.21138112
   0.31153689  0.20626543  0.56563109
   0.18756228  0.95528669  0.47882363
   0.68753183  0.95658146  0.56566171
   0.43397726  0.78839077  0.61101052
   0.68207292  0.61346753  0.16658779
   0.31884029  0.87336442  0.30006795
   0.31214528  0.70534943  0.47873697
   0.93399081  0.28831029  0.61102656
   0.44486997  0.62426121  0.30028950
   0.80705233  0.86355863  0.16673022
   0.56609867  0.20328419  0.21112522
   0.93202522  0.61291237  0.16664383
   0.43718074  0.95537651  0.47874618
   0.55911810  0.37326134  0.78863925
   0.06155187  0.37137637  0.52150135
   0.30675092  0.36357867  0.16672858
   0.69490648  0.12322542  0.30021509
   0.44289892  0.96362172  0.83334714
   0.18560074  0.28647089  0.12420450
   0.18362572  0.28780656  0.25580687
   0.31253847  0.37048019  0.43446029
   0.56287969  0.03167562  0.12421484
   0.43399884  0.28846216  0.61098746
   0.18402137  0.45265863  0.34501163
   0.43535428  0.28689382  0.12419844
   0.68376020  0.78732616  0.25576133
   0.43674601  0.12089426  0.52158799
   0.18845112  0.29660010  0.87604152
   0.19129157  0.12524822  0.65511506
   0.94116219  0.12499645  0.65515932
   0.81621015  0.53769634  0.38908128
   0.06645311  0.03832408  0.38915063
   0.18295960  0.11231996  0.16639777
   0.05897961  0.53836200  0.61106384
   0.93362529  0.28745875  0.25582411
   0.55901707  0.53862417  0.61109282
   0.93634773  0.95654929  0.56560557
   0.69415952  0.62446365  0.30013253
   0.93772146  0.61948879  0.43457950
   0.93308075  0.62458151  0.78826044
   0.56049223  0.70771848  0.69967492
   0.06646404  0.71653652  0.83386944
   0.94458478  0.12272863  0.29999188
   0.93394792  0.78778813  0.61093378
   0.43303788  0.78773528  0.25560022
   0.30910921  0.37406849  0.78861918
   0.43973037  0.45401558  0.21133706
   0.18697838  0.12067461  0.52156334
   0.81040109  0.70841768  0.69968128
   0.05891376  0.03861597  0.61108991
   0.56621102  0.21391757  0.83314772
   0.31184323  0.87104656  0.52153225
   0.68598480  0.28697536  0.12404999
   0.19043310  0.95506555  0.21170146
   0.68424900  0.28853592  0.61107038
   0.30892913  0.03836386  0.61110969
   0.93417545  0.12430017  0.78857005
   0.43699669  0.79753300  0.87606363
   0.81534448  0.04144012  0.74432505
   0.93531289  0.45857644  0.69965515
   0.19138926  0.62546374  0.65517066
   0.31059025  0.70751464  0.69969756
   0.93511599  0.28703415  0.12407850
   0.43747791  0.45582309  0.47862380
   0.06248851  0.70564683  0.47863186
   0.93700527  0.11942023  0.43465873
   0.44428745  0.12405755  0.30042870
   0.18732653  0.11981333  0.43443236
   0.56303187  0.04035046  0.87601390
   0.18653528  0.95658079  0.56557859
   0.68560926  0.78731595  0.12420193
   0.55913373  0.70257537  0.34499571
   0.31610897  0.03682972  0.38889110
   0.68211894  0.11413033  0.16677397
   0.81554875  0.20355231  0.21103222
   0.05946581  0.53752684  0.25568528
   0.56222817  0.70568170  0.47870110
   0.43479764  0.78571501  0.12396654
   0.56901178  0.37303328  0.30009981
   0.43368903  0.95290502  0.34500712
   0.18505738  0.95796106  0.69969457
   0.42995457  0.61585796  0.16655581
   0.93965102  0.45373004  0.21164570
   0.06176071  0.53012099  0.12411238
   0.81184068  0.37133508  0.52150910
   0.94439403  0.62352149  0.29990753
   0.30984879  0.03747264  0.25553952
   0.68382587  0.78786012  0.61093273
   0.19188960  0.46385550  0.83341081
   0.43229930  0.11319393  0.16647160
   0.31183149  0.37103374  0.52153186
   0.43286131  0.62320460  0.78885337
   0.05868584  0.03754305  0.25570975
   0.56238849  0.70650878  0.56560819
   0.93935691  0.29081189  0.74438457
   0.68265983  0.12301487  0.78839246
   0.19010472  0.45342120  0.21106681
   0.94153048  0.78743515  0.38903794
   0.68542626  0.29916126  0.87598886
   0.55669104  0.86377271  0.16655392
   0.43528899  0.45804382  0.69963707
   0.93421940  0.95152669  0.34490122
   0.68644371  0.62095682  0.52137244
   0.06613871  0.87515598  0.65514870
   0.05920628  0.87418285  0.78843763
   0.06639465  0.37499306  0.65496090
   0.68699737  0.45526307  0.47865686
   0.18343351  0.78752526  0.25548247
   0.43732151  0.12041236  0.43442670
   0.81352926  0.03033822  0.12400187
   0.93692725  0.62102082  0.52152309
   0.44167653  0.12489467  0.65488307
   0.81186576  0.52986596  0.12380787
   0.43419816  0.45287542  0.34506509
   0.80921531  0.20260890  0.34507076
   0.30924618  0.70180028  0.34480258
   0.69117675  0.12525733  0.65513187
   0.57007833  0.87345716  0.30026477
   0.06513235  0.54104482  0.74418852
   0.94090345  0.95393600  0.21115085
   0.81578397  0.70331194  0.21126897
   0.06951242  0.87390105  0.30013497
   0.19449507  0.12378828  0.30011953
   0.05874360  0.70206476  0.34488718
   0.80923092  0.03843535  0.61100348
   0.06291899  0.37079650  0.43444033
   0.55935977  0.20300026  0.34477532
   0.81944790  0.37424246  0.30007485
   0.56038768  0.03755754  0.25558344
   0.56639329  0.53786991  0.38904894
   0.06272068  0.20533314  0.47875263
   0.31072718  0.87253157  0.78824170
   0.93503599  0.95831585  0.69967573
   0.06887680  0.37466571  0.30010322
   0.69084581  0.62513388  0.65521570
   0.68651202  0.45652859  0.56549302
   0.44148775  0.95548038  0.21185884
   0.31251071  0.20534424  0.47878428
   0.81253426  0.54024038  0.87583387
   0.68780722  0.61966328  0.43462530
   0.81081604  0.20805130  0.69975193
   0.81260128  0.70526735  0.47874925
   0.81191771  0.87044358  0.43434063
   0.93745207  0.95482720  0.47875172
   0.56206419  0.20518341  0.47871989
   0.18712930  0.61938319  0.43446478
   0.31516490  0.04161143  0.74418066
   0.94119013  0.62533951  0.65495386
   0.56634838  0.71318094  0.83319448
   0.31980072  0.37237360  0.30013752
   0.31495562  0.54133326  0.74417011
   0.18730130  0.45531338  0.47873048
   0.31503687  0.04104023  0.87589624
   0.18515881  0.45814905  0.69964562
   0.56166402  0.37108575  0.52148362
   0.19106695  0.28741679  0.38900236
   0.31515500  0.20404823  0.21116639
   0.06708138  0.70310051  0.21122385
   0.56207841  0.37031869  0.43442922
   0.43676727  0.62108685  0.52148688
   0.81712404  0.71519988  0.83324283
   0.05895086  0.37457922  0.78841575
   0.43645755  0.29827932  0.87623970
   0.31163468  0.03075526  0.12409258
   0.68766957  0.11944216  0.43437042
   0.18389789  0.95270798  0.34506070
   0.06715659  0.21508730  0.83388672
   0.55936889  0.03854484  0.61109162
   0.68958242  0.45446766  0.21181051
   0.18987853  0.79169261  0.74436316
   0.19411771  0.62364858  0.30036902
   0.44141157  0.78769183  0.38916513
   0.43354163  0.28801880  0.25575522
   0.06346869  0.54079195  0.87583344
   0.56528876  0.04170156  0.74421480
   0.18767966  0.79730582  0.87598991
   0.93749971  0.45512857  0.47874463
   0.56522481  0.54110513  0.74397034
   0.81154103  0.20657686  0.56551311
   0.18445028  0.62278697  0.78848966
   0.06709270  0.53875172  0.38919684
   0.06044012  0.70784797  0.69969934
   0.30905759  0.53814066  0.25540641
   0.31480967  0.70260568  0.21205969
   0.30583202  0.86446676  0.16551455
   0.43708577  0.62088450  0.43447631
   0.81771116  0.03954524  0.38922423
   0.93513622  0.29752982  0.87557447
   0.93721016  0.79538834  0.87542794
   0.06586955  0.03886614  0.87565956
   0.81131293  0.70527661  0.56568471
   0.80628765  0.36467084  0.16597286
   0.06202189  0.87096997  0.43456262
   0.93656090  0.12103496  0.52161675
   0.19266283  0.78764717  0.38894424
   0.56679957  0.70343116  0.21189807
Direct configuration=     2
   0.06199953  0.02980611  0.12391115
   0.31281096  0.87236966  0.65457187
   0.18882871  0.12447950  0.79047930
   0.44752837  0.29032699  0.39050789
   0.31868138  0.71601374  0.83433288
   0.81667329  0.21290085  0.83442859
   0.19208710  0.96573977  0.83402502
   0.56244850  0.20558743  0.56535397
   0.06895451  0.04023176  0.74161657
   0.81115369  0.87100148  0.52297375
   0.19270080  0.29194218  0.74187537
   0.93003712  0.45837657  0.34351335
   0.93564944  0.29491355  0.39062796
   0.81706654  0.04184007  0.87636074
   0.18192728  0.78587854  0.61053766
   0.56892137  0.03940043  0.39055766
   0.94173188  0.96699302  0.83504405
   0.31356884  0.54429912  0.87678293
   0.68805253  0.29385507  0.74258288
   0.18315785  0.61447417  0.16615564
   0.81077433  0.20815084  0.48144404
   0.81730347  0.53817064  0.60993456
   0.31500288  0.87050389  0.43722438
   0.81160054  0.03888869  0.25434580
   0.68351268  0.94962136  0.34355457
   0.92828900  0.11769607  0.16705321
   0.06225803  0.87113229  0.52356195
   0.56204952  0.53707736  0.25374012
   0.68838831  0.79444038  0.87649123
   0.56158742  0.36793107  0.16710539
   0.43767916  0.79165275  0.74177090
   0.56226071  0.53330716  0.12420494
   0.55872183  0.87779651  0.79061930
   0.68655905  0.12271539  0.52245426
   0.81989291  0.37567889  0.65407135
   0.94022457  0.46211769  0.83420551
   0.06276932  0.21026797  0.69722376
   0.43219260  0.95642914  0.69788694
   0.31857190  0.21109963  0.83295753
   0.43590309  0.62574501  0.65491872
   0.30285159  0.53908050  0.61077389
   0.93717691  0.45567373  0.56608844
   0.68998260  0.78954567  0.74214886
   0.93386312  0.78468631  0.12385375
   0.69100508  0.78225327  0.39003924
   0.94197725  0.78839889  0.74191283
   0.05714310  0.20808291  0.34340715
   0.68515581  0.45638814  0.34467061
   0.43293693  0.12510076  0.79085882
   0.06088793  0.20584545  0.21102335
   0.05288158  0.36682532  0.16702909
   0.93241512  0.78409061  0.25414745
   0.55819587  0.20897735  0.69798912
   0.68411375  0.95704539  0.69762936
   0.80814623  0.87557515  0.79051210
   0.43590782  0.95687076  0.56524738
   0.80705878  0.37315040  0.79032137
   0.68803154  0.29098813  0.25406719
   0.18438686  0.45576573  0.56559766
   0.05639182  0.86394343  0.16657270
   0.18150161  0.29051233  0.61049862
   0.06097902  0.20733553  0.56540113
   0.30910048  0.20872245  0.69822422
   0.56323014  0.54415252  0.87663195
   0.06062099  0.70520866  0.56602759
   0.68311866  0.62140539  0.79017580
   0.32118793  0.53611322  0.39022884
   0.18572235  0.61831579  0.52338333
   0.56336341  0.87041201  0.43692799
   0.43490575  0.45552283  0.56509906
   0.43723661  0.29116960  0.74254363
   0.81779838  0.87066746  0.29810796
   0.80682806  0.69814326  0.34375881
   0.44302377  0.46126229  0.83377422
   0.68532281  0.95653440  0.48123435
   0.68538908  0.45889377  0.69767478
   0.56113536  0.87252542  0.52256956
   0.56512749  0.37412851  0.65473882
   0.81850957  0.87415159  0.65410023
   0.80967861  0.37232130  0.43657095
   0.80994610  0.53672939  0.25397935
   0.69009370  0.46118250  0.83390296
   0.18725107  0.78454812  0.12345863
   0.68793073  0.29391375  0.39064629
   0.31193758  0.37753618  0.65438142
   0.31371919  0.20831532  0.34370381
   0.81680242  0.54066284  0.74171693
   0.69278968  0.96475908  0.83369611
   0.56430425  0.87367546  0.65446960
   0.30963559  0.70725886  0.56551842
   0.31350430  0.53610711  0.12357844
   0.69175544  0.95527232  0.21096100
   0.30936737  0.20526555  0.56530968
   0.18856605  0.95799279  0.48130517
   0.68877675  0.95614890  0.56577583
   0.43167365  0.79104241  0.61032461
   0.68461487  0.60960375  0.16692582
   0.32061064  0.86934402  0.29783477
   0.31379782  0.70441646  0.48085134
   0.93487482  0.29085589  0.60996414
   0.44519674  0.62176411  0.29827807
   0.80700783  0.86177877  0.16704887
   0.56959056  0.20570362  0.21042343
   0.92867496  0.61094313  0.16697050
   0.43978094  0.95877783  0.48142241
   0.55739795  0.36794353  0.79059670
   0.06114345  0.37096931  0.52287450
   0.30804706  0.36754471  0.16687451
   0.69410677  0.12303647  0.29819651
   0.44209641  0.96604123  0.83273694
   0.18562983  0.28666025  0.12391997
   0.18119426  0.29318364  0.25444726
   0.31556650  0.37093215  0.43740077
   0.56285724  0.03215357  0.12414315
   0.43172692  0.28653388  0.61025529
   0.18321545  0.45500932  0.34292617
   0.43572580  0.28817600  0.12399892
   0.68735248  0.78428921  0.25455336
   0.43668079  0.12175737  0.52233937
   0.18524550  0.29332750  0.87681609
   0.18901835  0.12594068  0.65446637
   0.94348812  0.12690286  0.65409292
   0.81053151  0.53766134  0.38998319
   0.06539768  0.03749791  0.39061764
   0.18304260  0.11136503  0.16644848
   0.05740700  0.53772352  0.61064635
   0.93228791  0.29120087  0.25390023
   0.55893018  0.53877829  0.61063713
   0.93659580  0.95713709  0.56594105
   0.69568164  0.62443312  0.29832238
   0.93366159  0.61635324  0.43695838
   0.93290451  0.62356383  0.78968194
   0.55792610  0.70679185  0.69771634
   0.06708411  0.71901276  0.83479675
   0.93994554  0.12570319  0.29726494
   0.93467457  0.78550655  0.60977865
   0.43492900  0.78434292  0.25450338
   0.31165751  0.36787327  0.79030404
   0.44246063  0.45483713  0.21085428
   0.18701859  0.12314343  0.52311213
   0.81321336  0.70696204  0.69793946
   0.05756432  0.03884177  0.61025991
   0.56485241  0.21271842  0.83283038
   0.31302732  0.87311491  0.52332747
   0.68705429  0.28720888  0.12398644
   0.18905698  0.95359589  0.21103673
   0.69006549  0.28634010  0.60984653
   0.30753667  0.03771068  0.61019410
   0.93387121  0.12495281  0.79084214
   0.43608751  0.79172093  0.87654368
   0.81520949  0.03928527  0.74251048
   0.93925417  0.46007523  0.69740218
   0.18926086  0.62410628  0.65437964
   0.30843910  0.70689234  0.69759062
   0.93335706  0.28599075  0.12380857
   0.43953668  0.45223897  0.48117427
   0.06045414  0.70306208  0.48120731
   0.93387322  0.12288807  0.43783717
   0.44825463  0.12506382  0.29844528
   0.18907517  0.12141309  0.43781463
   0.56634479  0.04257492  0.87644394
   0.18573772  0.95742276  0.56548324
   0.68675271  0.78336864  0.12392597
   0.56405057  0.69877338  0.34402559
   0.32146251  0.03930834  0.39081035
   0.68513403  0.11742326  0.16733208
   0.81442132  0.20706146  0.21081119
   0.05727595  0.53731427  0.25428012
   0.56437592  0.70502675  0.48102963
   0.43273631  0.78230548  0.12365695
   0.56978269  0.37368495  0.29851940
   0.43882723  0.95234928  0.34356649
   0.18620329  0.95612176  0.69757388
   0.43179897  0.61412287  0.16606988
   0.93553429  0.45431420  0.21161655
   0.06155931  0.53293319  0.12411542
   0.81227100  0.37092794  0.52256987
   0.94241527  0.62218750  0.29799436
   0.30990473  0.03772325  0.25425244
   0.68888142  0.79059776  0.60962442
   0.19472502  0.46137762  0.83391561
   0.43326700  0.11253019  0.16669344
   0.31129087  0.36975612  0.52246589
   0.43384545  0.62127015  0.79050320
   0.05481875  0.03751602  0.25391887
   0.56357671  0.70911587  0.56510191
   0.94153062  0.29402912  0.74210718
   0.67986366  0.12541846  0.79093898
   0.18781703  0.45431154  0.21111499
   0.93630789  0.78120741  0.39000029
   0.68850082  0.29800488  0.87654887
   0.55711442  0.86239924  0.16690194
   0.43261162  0.45914147  0.69779702
   0.92937772  0.94813617  0.34326551
   0.68694883  0.61939529  0.52232492
   0.06741569  0.87265999  0.65431797
   0.05985420  0.87600533  0.79017362
   0.06640328  0.37762755  0.65386070
   0.68729760  0.45401841  0.48120735
   0.18128709  0.78315541  0.25421687
   0.44057828  0.12163571  0.43712853
   0.81378929  0.03131428  0.12387110
   0.93697219  0.61830746  0.52291962
   0.43865032  0.12486538  0.65431461
   0.81108318  0.53173738  0.12397031
   0.43779796  0.45222791  0.34404335
   0.80503240  0.20579012  0.34352922
   0.31002012  0.69799718  0.34311754
   0.69255486  0.12611944  0.65425653
   0.57279679  0.87292115  0.29832200
   0.06570569  0.54191373  0.74110466
   0.93734239  0.95397177  0.21116236
   0.81560829  0.69933507  0.21100765
   0.06548477  0.86793399  0.29757537
   0.19430519  0.12724208  0.29763987
   0.05566426  0.69690873  0.34310560
   0.81245514  0.03933358  0.60944860
   0.06041338  0.37152923  0.43767675
   0.56094778  0.20536003  0.34392431
   0.81928577  0.37661482  0.29792128
   0.56408308  0.03820591  0.25475965
   0.57161018  0.53635098  0.39038898
   0.06219132  0.20839339  0.48184321
   0.31131515  0.87885280  0.79022578
   0.93899185  0.95748365  0.69742964
   0.06654004  0.37968116  0.29772850
   0.69307798  0.62492411  0.65467458
   0.69060312  0.45565506  0.56502857
   0.44291005  0.95464361  0.21069943
   0.31460518  0.20637599  0.48182372
   0.81246715  0.54250157  0.87691722
   0.68702482  0.61726414  0.43617683
   0.81302505  0.20991573  0.69729782
   0.81067197  0.70256957  0.48133955
   0.80852675  0.86893110  0.43695292
   0.93606228  0.95570803  0.48138183
   0.56203369  0.20573015  0.48147490
   0.18769786  0.61841288  0.43715265
   0.31571375  0.04352284  0.74219068
   0.94469705  0.62299831  0.65383727
   0.56579139  0.71374357  0.83423084
   0.31963281  0.37604853  0.29811599
   0.31397643  0.53948621  0.74125517
   0.18664170  0.45152808  0.48159018
   0.31039143  0.04194387  0.87628305
   0.18476681  0.46001733  0.69748091
   0.56237282  0.37015597  0.52202324
   0.19363773  0.29112388  0.39042983
   0.31499883  0.20555448  0.21059110
   0.06296482  0.69998488  0.21133474
   0.56398531  0.37128960  0.43641532
   0.43784468  0.62000709  0.52273133
   0.81583869  0.71686280  0.83449211
   0.05998442  0.37281284  0.79010622
   0.43678145  0.29882076  0.87649786
   0.31094903  0.02909310  0.12332190
   0.68605936  0.12187384  0.43692575
   0.18409605  0.94977320  0.34379327
   0.06804739  0.21163051  0.83488962
   0.56039317  0.03824316  0.60989601
   0.69228148  0.45388390  0.21124026
   0.18997934  0.79115746  0.74136727
   0.19219149  0.62000729  0.29794714
   0.44751067  0.78501522  0.39071850
   0.43515183  0.29159359  0.25487657
   0.06218780  0.54220819  0.87730289
   0.56055666  0.04320185  0.74255923
   0.18604231  0.79688048  0.87688302
   0.93582155  0.45348487  0.48153899
   0.56337086  0.53985265  0.74171505
   0.81389794  0.20680115  0.56565724
   0.18501929  0.62295766  0.78987296
   0.06271555  0.53819263  0.39010180
   0.06329310  0.70624739  0.69758011
   0.30740523  0.53754516  0.25411924
   0.31497560  0.70088177  0.21165994
   0.30678940  0.86289197  0.16522048
   0.44224578  0.61895245  0.43714265
   0.80911167  0.03760363  0.39077212
   0.93564316  0.29168751  0.87702183
   0.93657722  0.79823825  0.87694932
   0.06201685  0.04029618  0.87671497
   0.81326024  0.70494918  0.56598798
   0.80522008  0.36729281  0.16688636
   0.06189353  0.86869497  0.43785170
   0.93688579  0.12439622  0.52325842
   0.19276498  0.78414074  0.39065227
   0.56868830  0.70090239  0.21145682
Direct configuration=     3
   0.06209384  0.02977842  0.12392095
   0.31335233  0.87275176  0.65465794
   0.18808250  0.12436199  0.79018652
   0.44667961  0.28997612  0.39031252
   0.31858112  0.71569172  0.83415941
   0.81692637  0.21324164  0.83430397
   0.19200348  0.96542884  0.83394761
   0.56235110  0.20568322  0.56539136
   0.06844124  0.04026509  0.74197349
   0.81121505  0.87097986  0.52277515
   0.19237815  0.29184355  0.74223308
   0.93059180  0.45747155  0.34370956
   0.93644583  0.29367544  0.39037475
   0.81645303  0.04167914  0.87625186
   0.18216540  0.78618012  0.61058997
   0.56856885  0.03914337  0.39034007
   0.94185497  0.96669048  0.83485838
   0.31353713  0.54374094  0.87667383
   0.68836468  0.29351379  0.74280393
   0.18302856  0.61439294  0.16620860
   0.81099709  0.20774639  0.48104902
   0.81609696  0.53819035  0.61009883
   0.31456190  0.87048829  0.43681582
   0.81136153  0.03883425  0.25458857
   0.68347869  0.95000684  0.34372766
   0.92860427  0.11734579  0.16701558
   0.06221444  0.87108079  0.52326827
   0.56148011  0.53722754  0.25396984
   0.68783540  0.79490421  0.87638732
   0.56099293  0.36740938  0.16702081
   0.43795981  0.79169710  0.74215564
   0.56238047  0.53296666  0.12420036
   0.55885531  0.87715034  0.79030640
   0.68658686  0.12242312  0.52231156
   0.81935878  0.37547825  0.65421960
   0.94051791  0.46243436  0.83413341
   0.06241392  0.20999551  0.69758196
   0.43264547  0.95665136  0.69814213
   0.31831952  0.21137673  0.83301928
   0.43664891  0.62564309  0.65493353
   0.30375463  0.53899282  0.61081302
   0.93710066  0.45575731  0.56603294
   0.68999057  0.78984952  0.74245260
   0.93395127  0.78515535  0.12392557
   0.69108105  0.78309776  0.38989646
   0.94171181  0.78878629  0.74229216
   0.05745671  0.20735906  0.34365484
   0.68499161  0.45580427  0.34473376
   0.43310939  0.12477943  0.79055315
   0.06151002  0.20552556  0.21103136
   0.05328209  0.36660663  0.16696915
   0.93254359  0.78460836  0.25436636
   0.55853814  0.20883556  0.69824683
   0.68425909  0.95723081  0.69793858
   0.80824219  0.87526002  0.79019711
   0.43605268  0.95687534  0.56528443
   0.80733547  0.37341563  0.79003869
   0.68739964  0.29046831  0.25432449
   0.18475534  0.45585432  0.56559473
   0.05642053  0.86407615  0.16657546
   0.18189388  0.29018435  0.61058189
   0.06119017  0.20725371  0.56540703
   0.30930505  0.20860044  0.69846744
   0.56315635  0.54371717  0.87653092
   0.06084146  0.70532547  0.56597562
   0.68314030  0.62156745  0.78991143
   0.32042413  0.53642774  0.39004768
   0.18591261  0.61868549  0.52311744
   0.56326107  0.87039505  0.43656920
   0.43522415  0.45566552  0.56517673
   0.43756307  0.29129493  0.74279251
   0.81820526  0.87113905  0.29842705
   0.80709466  0.69880856  0.34393501
   0.44288960  0.46151860  0.83370799
   0.68564002  0.95639577  0.48086578
   0.68529660  0.45880273  0.69797076
   0.56127683  0.87232750  0.52241327
   0.56527525  0.37422860  0.65477195
   0.81816463  0.87425627  0.65423089
   0.81001691  0.37209112  0.43624641
   0.80972495  0.53682011  0.25425926
   0.69034686  0.46138340  0.83381609
   0.18705531  0.78496537  0.12352192
   0.68837675  0.29293513  0.39041404
   0.31259984  0.37717548  0.65446397
   0.31300496  0.20746728  0.34385282
   0.81661468  0.54061941  0.74206580
   0.69266258  0.96440216  0.83365108
   0.56454483  0.87385606  0.65455892
   0.30990198  0.70717983  0.56552276
   0.31343192  0.53547505  0.12365502
   0.69144714  0.95521030  0.21102309
   0.30968804  0.20541334  0.56535719
   0.18841768  0.95759280  0.48093837
   0.68859274  0.95621283  0.56575896
   0.43201414  0.79065047  0.61042600
   0.68423915  0.61017485  0.16687586
   0.32034897  0.86993827  0.29816485
   0.31355356  0.70455436  0.48053882
   0.93474416  0.29047963  0.61012118
   0.44514844  0.62213320  0.29857537
   0.80701441  0.86204185  0.16700177
   0.56907443  0.20534601  0.21052717
   0.92917016  0.61123420  0.16692222
   0.43939660  0.95827508  0.48102684
   0.55765220  0.36872955  0.79030737
   0.06120382  0.37102948  0.52267153
   0.30785548  0.36695850  0.16685294
   0.69422498  0.12306440  0.29849488
   0.44221503  0.96568360  0.83282713
   0.18562553  0.28663226  0.12396203
   0.18155365  0.29238886  0.25464822
   0.31511893  0.37086535  0.43696614
   0.56286056  0.03208292  0.12415374
   0.43206273  0.28681890  0.61036351
   0.18333457  0.45466187  0.34323442
   0.43567089  0.28798648  0.12402841
   0.68682151  0.78473810  0.25473191
   0.43669043  0.12162979  0.52222831
   0.18571932  0.29381122  0.87670160
   0.18935435  0.12583833  0.65456225
   0.94314433  0.12662107  0.65425054
   0.81137087  0.53766651  0.38984988
   0.06555368  0.03762003  0.39040080
   0.18303033  0.11150617  0.16644098
   0.05763945  0.53781789  0.61070806
   0.93248558  0.29064775  0.25418459
   0.55894303  0.53875551  0.61070449
   0.93655913  0.95705021  0.56589146
   0.69545666  0.62443764  0.29858994
   0.93426167  0.61681670  0.43660676
   0.93293056  0.62371426  0.78947183
   0.55830540  0.70692882  0.69800583
   0.06699245  0.71864675  0.83465968
   0.94063126  0.12526352  0.29766801
   0.93456717  0.78584379  0.60994939
   0.43464948  0.78484434  0.25466550
   0.31128085  0.36878898  0.79005500
   0.44205707  0.45471570  0.21092564
   0.18701265  0.12277852  0.52288321
   0.81279768  0.70717720  0.69819692
   0.05776378  0.03880839  0.61038260
   0.56505322  0.21289566  0.83287729
   0.31285230  0.87280919  0.52306212
   0.68689621  0.28717436  0.12399583
   0.18926039  0.95381312  0.21113498
   0.68920576  0.28666467  0.61002743
   0.30774249  0.03780723  0.61032943
   0.93391618  0.12485634  0.79050630
   0.43622189  0.79258001  0.87647272
   0.81522945  0.03960377  0.74277869
   0.93867161  0.45985369  0.69773518
   0.18957546  0.62430693  0.65449656
   0.30875706  0.70698433  0.69790205
   0.93361704  0.28614497  0.12384847
   0.43923238  0.45276874  0.48079729
   0.06075484  0.70344413  0.48082663
   0.93433616  0.12237549  0.43736737
   0.44766825  0.12491509  0.29873844
   0.18881671  0.12117663  0.43731470
   0.56585511  0.04224613  0.87638038
   0.18585561  0.95729831  0.56549733
   0.68658370  0.78395209  0.12396676
   0.56332381  0.69933535  0.34416898
   0.32067121  0.03894198  0.39052667
   0.68468837  0.11693653  0.16724958
   0.81458797  0.20654277  0.21084386
   0.05759963  0.53734569  0.25448782
   0.56405846  0.70512356  0.48068546
   0.43304099  0.78280944  0.12370271
   0.56966874  0.37358863  0.29875300
   0.43806776  0.95243142  0.34377943
   0.18603391  0.95639363  0.69788733
   0.43152635  0.61437933  0.16614171
   0.93614278  0.45422785  0.21162086
   0.06158908  0.53251752  0.12411497
   0.81220739  0.37098812  0.52241308
   0.94270775  0.62238468  0.29827714
   0.30989646  0.03768621  0.25444268
   0.68813416  0.79019311  0.60981780
   0.19430592  0.46174388  0.83384100
   0.43312397  0.11262829  0.16666065
   0.31137078  0.36994496  0.52232783
   0.43369998  0.62155608  0.79025934
   0.05539034  0.03752002  0.25418358
   0.56340108  0.70873052  0.56517674
   0.94120933  0.29355358  0.74244380
   0.68027696  0.12506319  0.79056259
   0.18815517  0.45417994  0.21110787
   0.93707984  0.78212793  0.38985804
   0.68804637  0.29817580  0.87646609
   0.55705184  0.86260225  0.16685050
   0.43300736  0.45897923  0.69806899
   0.93009337  0.94863732  0.34350729
   0.68687417  0.61962610  0.52218414
   0.06722694  0.87302892  0.65444076
   0.05975843  0.87573595  0.78991702
   0.06640201  0.37723815  0.65402332
   0.68725322  0.45420238  0.48083037
   0.18160435  0.78380132  0.25440393
   0.44009690  0.12145489  0.43672918
   0.81375086  0.03117001  0.12389043
   0.93696555  0.61870852  0.52271320
   0.43909762  0.12486971  0.65439863
   0.81119885  0.53146077  0.12394630
   0.43726587  0.45232362  0.34419437