unknown system                          
           1
     9.726678    0.000000    0.000000
     0.000000    8.423550    0.000000
     0.000000    0.000000   45.000000
   Fe   Mn
 274  14
Direct configuration=     1
   0.06299751  0.03472561  0.12558572
   0.31321792  0.87139853  0.65388215
   0.18746991  0.11714592  0.78714161
   0.43761688  0.29130299  0.38980938
   0.31428333  0.70670629  0.83133027
   0.81383411  0.20947115  0.83251726
   0.18856072  0.95823566  0.83209718
   0.56311535  0.20722182  0.56498630
   0.06135319  0.03540400  0.74246092
   0.81262325  0.87099939  0.52109457
   0.18938902  0.28643879  0.74239636
   0.93698519  0.45628724  0.34630957
   0.93669196  0.29048897  0.38994026
   0.81225682  0.03516164  0.87423618
   0.18639998  0.78692019  0.60995028
   0.56222036  0.04110683  0.38998376
   0.93893646  0.95879342  0.83267179
   0.31391512  0.53515469  0.87451585
   0.68712210  0.28740226  0.74226190
   0.18867037  0.61983069  0.16799079
   0.81146849  0.20644368  0.47887363
   0.81351573  0.53653547  0.60999467
   0.31223348  0.87397633  0.43481314
   0.81260404  0.04041425  0.25770441
   0.68733752  0.95578508  0.34611581
   0.93627709  0.12036944  0.16867283
   0.06299363  0.87093780  0.52123562
   0.56137155  0.54077900  0.25746043
   0.68607936  0.79113267  0.87442463
   0.56355575  0.37055306  0.16806211
   0.43741598  0.78743046  0.74273687
   0.81251628  0.70680273  0.56494385
   0.56284670  0.86800247  0.78700788
   0.68666171  0.12083488  0.52113707
   0.81378483  0.37056200  0.65398114
   0.93780432  0.45812052  0.83229562
   0.06223847  0.20504862  0.69838300
   0.43698329  0.95480145  0.69823285
   0.31308491  0.20526240  0.83187051
   0.43780711  0.62171510  0.65389081
   0.31159056  0.53652702  0.60996352
   0.93724538  0.45763641  0.56509006
   0.68788214  0.78746897  0.74273005
   0.93691767  0.79111080  0.12575012
   0.68742547  0.79020178  0.38978950
   0.93775166  0.78716539  0.74293036
   0.06312840  0.20650069  0.34625662
   0.81138365  0.04113210  0.39010172
   0.43750027  0.11707493  0.78714637
   0.06204081  0.20735380  0.21292450
   0.06139807  0.37048427  0.16813499
   0.93593130  0.79107881  0.25739720
   0.56295537  0.20505709  0.69843991
   0.68682950  0.95540413  0.69828980
   0.43676186  0.79088653  0.12544247
   0.43734436  0.95686678  0.56475681
   0.81276670  0.36831230  0.78701042
   0.68555235  0.29118808  0.25760934
   0.18806473  0.45715421  0.56493817
   0.06339548  0.87057604  0.16825943
   0.18860681  0.28778278  0.61011111
   0.56381093  0.70676136  0.34638838
   0.31204701  0.20525473  0.69845051
   0.56168467  0.53506761  0.87444352
   0.06268510  0.70692438  0.56494522
   0.68823084  0.61743600  0.78695911
   0.31135202  0.54104570  0.38974514
   0.18781880  0.62098040  0.52110159
   0.56319568  0.87422964  0.43506242
   0.43695781  0.45728460  0.56490083
   0.43745535  0.28886269  0.74255140
   0.81234013  0.87743313  0.30174007
   0.81216156  0.70687431  0.34648633
   0.43813806  0.45562498  0.83150333
   0.68768787  0.95600265  0.47870445
   0.68715044  0.45572491  0.69832509
   0.56319377  0.87118376  0.52118221
   0.56318102  0.37083025  0.65375263
   0.81220717  0.86995945  0.65369686
   0.81274663  0.37408337  0.43461478
   0.81294299  0.54035799  0.25751400
   0.68920299  0.45513657  0.83178977
   0.18855852  0.79053479  0.12544771
   0.68723166  0.29088512  0.38972959
   0.31228118  0.37047278  0.65359730
   0.31284533  0.20665762  0.34615436
   0.81266434  0.53677623  0.74283881
   0.68777508  0.95622616  0.83193346
   0.56210568  0.87148003  0.65372375
   0.31250338  0.70739993  0.56504760
   0.31183875  0.53572728  0.12547609
   0.68728947  0.95816923  0.21307317
   0.31227281  0.20689841  0.56511620
   0.18664245  0.95646533  0.47883144
   0.68793435  0.95722157  0.56499131
   0.43682928  0.78661368  0.60990459
   0.68739552  0.61838826  0.16818208
   0.31264509  0.87543728  0.30148974
   0.31278395  0.70580343  0.47879033
   0.93624310  0.28756819  0.61010995
   0.43818052  0.62616276  0.30182940
   0.81230504  0.86956031  0.16852672
   0.56307088  0.20748056  0.21285873
   0.93722649  0.61849063  0.16824985
   0.93868528  0.78961443  0.87448277
   0.56197995  0.36751589  0.78694619
   0.06204593  0.37146630  0.52117421
   0.31238154  0.36925954  0.16845683
   0.68809774  0.12557562  0.30180417
   0.43964283  0.95602876  0.83151188
   0.18720044  0.29080102  0.12567250
   0.18705316  0.29107383  0.25781481
   0.31222488  0.37382808  0.43488252
   0.56336562  0.03473392  0.12554396
   0.43646637  0.28693397  0.60993680
   0.18715650  0.45801420  0.34659828
   0.43768980  0.29104243  0.12568246
   0.68781587  0.79152622  0.25741826
   0.43746129  0.12121043  0.52110393
   0.18827277  0.29122476  0.87451677
   0.18734934  0.12185736  0.65382345
   0.93786787  0.12176362  0.65384399
   0.31244771  0.20800145  0.21298916
   0.06256215  0.04005908  0.38983047
   0.18764249  0.11744132  0.16759771
   0.06240434  0.53562986  0.61021052
   0.93862709  0.29093599  0.25756718
   0.56302310  0.53631926  0.60999227
   0.93735001  0.95783865  0.56495223
   0.68708553  0.62532835  0.30176465
   0.93698040  0.62444659  0.43510998
   0.93695486  0.61727893  0.78653428
   0.56169376  0.70428657  0.69821094
   0.06271500  0.70987485  0.83241573
   0.93769353  0.12545788  0.30179571
   0.93763512  0.78611958  0.61013124
   0.43651588  0.79151690  0.25737750
   0.31254427  0.36789349  0.78692962
   0.43750141  0.45806804  0.21287796
   0.18830959  0.12071809  0.52115780
   0.81213750  0.70507428  0.69840297
   0.06155484  0.03630553  0.60999146
   0.56222109  0.20591152  0.83156597
   0.31132639  0.87107765  0.52109997
   0.68825357  0.29096877  0.12547731
   0.18729461  0.95841633  0.21325940
   0.68604594  0.28717251  0.60998511
   0.31211150  0.03635147  0.61028340
   0.93751113  0.11689686  0.78708878
   0.43749846  0.79069273  0.87424843
   0.81269012  0.03645138  0.74276969
   0.93686192  0.45610095  0.69844028
   0.18761784  0.62210554  0.65380069
   0.31291597  0.70464851  0.69835215
   0.93677796  0.29070900  0.12554802
   0.43710857  0.45582715  0.47879548
   0.06250678  0.70574327  0.47864374
   0.93655721  0.12471023  0.43530810
   0.43687999  0.12535082  0.30184390
   0.18780092  0.12398720  0.43481857
   0.56173918  0.03457459  0.87450217
   0.18728966  0.95761404  0.56499240
   0.68874417  0.79139603  0.12570959
   0.56341211  0.53427914  0.12557529
   0.31223834  0.04021668  0.38990625
   0.68846802  0.12040877  0.16863676
   0.81254478  0.20823786  0.21277772
   0.06385762  0.54081768  0.25752720
   0.56225187  0.70582559  0.47867353
   0.06300290  0.20692016  0.56477684
   0.56223274  0.37649215  0.30167073
   0.43714910  0.95666084  0.34625767
   0.18776967  0.95595857  0.69836883
   0.43600163  0.61994275  0.16795238
   0.93762388  0.45831190  0.21328945
   0.06148706  0.53408014  0.12558240
   0.81341779  0.37175986  0.52117341
   0.93732882  0.62523438  0.30146008
   0.31372724  0.04090706  0.25732273
   0.68863110  0.78662456  0.60998721
   0.18817135  0.45677836  0.83198612
   0.43731653  0.11741464  0.16768180
   0.31204397  0.37087835  0.52114558
   0.43733459  0.61680315  0.78718968
   0.06136615  0.04118438  0.25752797
   0.56236159  0.70759292  0.56512944
   0.93704990  0.28519568  0.74250423
   0.68557365  0.11671647  0.78673101
   0.18788319  0.45805087  0.21292200
   0.93743936  0.79113077  0.38984474
   0.68624822  0.29322158  0.87449581
   0.56261414  0.87036179  0.16809065
   0.43765700  0.45593210  0.69848786
   0.93867851  0.95616138  0.34620525
   0.68675247  0.62155242  0.52111490
   0.06289526  0.87066872  0.65373960
   0.06226649  0.86826570  0.78698281
   0.06206728  0.36979552  0.65386180
   0.68778819  0.45580537  0.47882261
   0.18831446  0.79147864  0.25737057
   0.43716705  0.12409999  0.43486355
   0.81349470  0.03429699  0.12548809
   0.93733924  0.62135717  0.52118519
   0.06283099  0.87355851  0.43467531
   0.81235194  0.53418273  0.12542873
   0.43766287  0.45690913  0.34642649
   0.81264281  0.20729726  0.34641789
   0.31288540  0.70644190  0.34630223
   0.68704597  0.12096428  0.65366155
   0.56296755  0.87554041  0.30184985
   0.06415447  0.53586933  0.74258379
   0.93816994  0.95831609  0.21301934
   0.81250643  0.70803235  0.21289211
   0.06198640  0.87522089  0.30188609
   0.18765215  0.12622626  0.30185211
   0.06268683  0.70699931  0.34636617
   0.81218706  0.03637357  0.60988321
   0.06232636  0.37363388  0.43470571
   0.56250071  0.20708737  0.34635882
   0.81258336  0.37644355  0.30176277
   0.56359517  0.04140533  0.25737033
   0.56255440  0.54058052  0.38987181
   0.06279587  0.20631091  0.47875301
   0.31256337  0.86735005  0.78685008
   0.93764526  0.95587240  0.69836043
   0.06248529  0.37625940  0.30152542
   0.68730277  0.62174090  0.65385421
   0.68746338  0.45726846  0.56489988
   0.43814095  0.95881382  0.21333598
   0.31249751  0.20603303  0.47877172
   0.43760634  0.12039823  0.65350493
   0.68741820  0.62370302  0.43472177
   0.81260522  0.20486109  0.69838085
   0.81221219  0.70602188  0.47871099
   0.81166133  0.87426468  0.43496067
   0.93756775  0.95560334  0.47884947
   0.56243081  0.20578975  0.47877668
   0.18650488  0.62441890  0.43500068
   0.31172091  0.03699209  0.74229444
   0.93723470  0.62211814  0.65371714
   0.56276659  0.70643539  0.83163479
   0.31254648  0.37373847  0.30178576
   0.56245541  0.70789884  0.21287267
   0.18731585  0.45562567  0.47877506
   0.31402628  0.03561579  0.87432089
   0.18670111  0.45620524  0.69841521
   0.81114266  0.53379167  0.87456559
   0.18739715  0.29086480  0.38993242
   0.43706198  0.62427764  0.43493930
   0.06256818  0.70785220  0.21295083
   0.56198807  0.37469770  0.43528166
   0.43823088  0.62199124  0.52121419
   0.81315879  0.71032074  0.83160037
   0.06235787  0.36830013  0.78701699
   0.43746897  0.29233794  0.87474520
   0.31302036  0.03438994  0.12552926
   0.68733127  0.12223683  0.43456205
   0.18722523  0.95712111  0.34640428
   0.06327672  0.20908444  0.83265959
   0.56240792  0.03558898  0.61029057
   0.68762691  0.45791156  0.21316528
   0.18739316  0.78741248  0.74282384
   0.18736390  0.62641607  0.30185271
   0.43617474  0.79123893  0.39008012
   0.43560766  0.29175190  0.25750262
   0.06380105  0.53529206  0.87447023
   0.56398191  0.03611657  0.74251327
   0.18837014  0.79040119  0.87439426
   0.93749230  0.45546205  0.47871844
   0.81236503  0.54029542  0.38985014
   0.81189641  0.20724829  0.56484854
   0.18697627  0.61707335  0.78690753
   0.06282244  0.54049821  0.38979285
   0.06311169  0.70480160  0.69839437
   0.31267407  0.54205692  0.25693136
   0.31240064  0.70543132  0.21352368
   0.31245035  0.87005503  0.16708730
   0.56293214  0.53691506  0.74238174
   0.68734515  0.45539292  0.34634385
   0.93469991  0.29289747  0.87411096
   0.43738827  0.95635724  0.47882234
   0.06442174  0.03240541  0.87418828
   0.18674961  0.79215029  0.39019571
   0.81233691  0.37030046  0.16761912
   0.56267875  0.37078342  0.52126355
   0.93726422  0.12106908  0.52112250
   0.81139388  0.86869100  0.78656950
   0.31230271  0.53545597  0.74271934
Direct configuration=     2
   0.06292281  0.03514512  0.12565976
   0.31302099  0.87133128  0.65387530
   0.18745209  0.11751260  0.78710473
   0.43768253  0.29131867  0.38990179
   0.31401107  0.70652625  0.83141937
   0.81381072  0.20892451  0.83245884
   0.18827592  0.95791672  0.83210782
   0.56302885  0.20698516  0.56505010
   0.06149034  0.03565418  0.74252080
   0.81250315  0.87125596  0.52118754
   0.18895768  0.28645974  0.74245333
   0.93714707  0.45640908  0.34625471
   0.93673178  0.29051662  0.39001275
   0.81213033  0.03580168  0.87422915
   0.18665007  0.78705431  0.60990411
   0.56217329  0.04105223  0.39004835
   0.93897339  0.95851005  0.83261038
   0.31375871  0.53572381  0.87441041
   0.68729121  0.28734727  0.74234017
   0.18852127  0.61997814  0.16797584
   0.81151869  0.20641439  0.47878075
   0.81325568  0.53665404  0.60995697
   0.31221946  0.87391052  0.43482416
   0.81262002  0.04056702  0.25766563
   0.68734207  0.95607260  0.34610151
   0.93642259  0.12046297  0.16856349
   0.06294115  0.87119207  0.52130030
   0.56166803  0.54083687  0.25744815
   0.68629798  0.79059831  0.87434879
   0.56344583  0.37060412  0.16798966
   0.43741565  0.78738935  0.74273856
   0.81250711  0.70660232  0.56497845
   0.56271590  0.86806711  0.78696633
   0.68688171  0.12102742  0.52122103
   0.81351792  0.37062698  0.65397072
   0.93785583  0.45782419  0.83227029
   0.06224427  0.20494279  0.69838395
   0.43707064  0.95479840  0.69825812
   0.31303792  0.20526664  0.83195154
   0.43773280  0.62160484  0.65388713
   0.31177392  0.53678228  0.60991660
   0.93730821  0.45728199  0.56512192
   0.68784121  0.78745589  0.74272304
   0.93693817  0.79057604  0.12586751
   0.68745262  0.79019151  0.38987520
   0.93775203  0.78709751  0.74289685
   0.06301929  0.20665063  0.34621494
   0.81160991  0.04103000  0.39015404
   0.43746302  0.11750948  0.78710017
   0.06204978  0.20726802  0.21296643
   0.06152800  0.37055540  0.16805974
   0.93617621  0.79104520  0.25740047
   0.56282343  0.20495450  0.69842427
   0.68696727  0.95525873  0.69829929
   0.43690876  0.79029768  0.12548964
   0.43733195  0.95668022  0.56479672
   0.81271360  0.36839168  0.78697947
   0.68584414  0.29117400  0.25757085
   0.18792513  0.45694224  0.56498664
   0.06333424  0.87067385  0.16819007
   0.18830202  0.28768985  0.61005006
   0.56358971  0.70686350  0.34633523
   0.31217547  0.20513620  0.69843271
   0.56181011  0.53581855  0.87432135
   0.06267317  0.70667668  0.56498491
   0.68812659  0.61769751  0.78696596
   0.31153225  0.54100478  0.38986417
   0.18780341  0.62126061  0.52118710
   0.56298797  0.87407397  0.43501279
   0.43702295  0.45710902  0.56495951
   0.43750193  0.28856743  0.74257779
   0.81239388  0.87704492  0.30170742
   0.81222248  0.70691495  0.34640732
   0.43814726  0.45557739  0.83162757
   0.68775152  0.95612758  0.47863858
   0.68718232  0.45549272  0.69832447
   0.56304207  0.87131500  0.52123099
   0.56305549  0.37082709  0.65375702
   0.81230654  0.87020544  0.65374406
   0.81269665  0.37404312  0.43461891
   0.81284286  0.54041318  0.25749572
   0.68906816  0.45522811  0.83187083
   0.18841237  0.79002034  0.12549723
   0.68720572  0.29085741  0.38984080
   0.31235499  0.37064245  0.65364172
   0.31281151  0.20676298  0.34612521
   0.81265622  0.53668776  0.74282224
   0.68785796  0.95617764  0.83198874
   0.56224746  0.87145257  0.65372627
   0.31252631  0.70704939  0.56508703
   0.31194284  0.53619124  0.12554631
   0.68725366  0.95810159  0.21310390
   0.31234057  0.20677822  0.56515305
   0.18668818  0.95640622  0.47872343
   0.68799546  0.95703716  0.56504786
   0.43691526  0.78671995  0.60986071
   0.68735043  0.61858878  0.16813508
   0.31260221  0.87536255  0.30148831
   0.31270541  0.70569748  0.47869958
   0.93643532  0.28748594  0.61003886
   0.43809380  0.62595168  0.30178810
   0.81237201  0.86972705  0.16839947
   0.56304938  0.20736846  0.21289553
   0.93731083  0.61868398  0.16820133
   0.93846313  0.78907136  0.87445643
   0.56200750  0.36773003  0.78692821
   0.06216384  0.37174556  0.52124233
   0.31238048  0.36936512  0.16834226
   0.68800448  0.12559417  0.30177480
   0.43945020  0.95586575  0.83162215
   0.18729368  0.29037276  0.12577597
   0.18705341  0.29098180  0.25773233
   0.31224113  0.37379031  0.43484460
   0.56331304  0.03519977  0.12562240
   0.43667208  0.28702137  0.60988550
   0.18720471  0.45793166  0.34649643
   0.43760041  0.29057810  0.12578237
   0.68777016  0.79144459  0.25741330
   0.43730875  0.12149332  0.52118855
   0.18845627  0.29065722  0.87447958
   0.18734387  0.12174719  0.65384292
   0.93777848  0.12154840  0.65384840
   0.31246860  0.20784889  0.21299144
   0.06240268  0.04022943  0.38991638
   0.18755028  0.11792742  0.16765455
   0.06243938  0.53588208  0.61012705
   0.93837878  0.29089062  0.25752645
   0.56288783  0.53653262  0.60993365
   0.93740064  0.95747230  0.56500177
   0.68713033  0.62537793  0.30172631
   0.93706436  0.62431474  0.43505545
   0.93703660  0.61779308  0.78658844
   0.56176314  0.70424273  0.69822505
   0.06277290  0.70939835  0.83238798
   0.93764419  0.12547717  0.30176466
   0.93758901  0.78637527  0.61006348
   0.43669703  0.79150377  0.25738512
   0.31255848  0.36799627  0.78690213
   0.43764380  0.45785561  0.21290977
   0.18818582  0.12098262  0.52123198
   0.81219233  0.70501367  0.69841561
   0.06168007  0.03656762  0.60992481
   0.56226442  0.20582074  0.83164806
   0.31155695  0.87126375  0.52117613
   0.68815848  0.29037828  0.12556851
   0.18728971  0.95837380  0.21325880
   0.68627966  0.28725747  0.60994507
   0.31214020  0.03646694  0.61017977
   0.93754054  0.11738479  0.78709555
   0.43754550  0.79013371  0.87418552
   0.81275631  0.03656466  0.74274695
   0.93699407  0.45580696  0.69844703
   0.18762150  0.62191663  0.65382219
   0.31284764  0.70456724  0.69837162
   0.93688728  0.29015506  0.12563082
   0.43714273  0.45590498  0.47873096
   0.06248290  0.70576141  0.47859989
   0.93665650  0.12445179  0.43525316
   0.43704779  0.12526790  0.30179491
   0.18777692  0.12389064  0.43478880
   0.56191011  0.03526380  0.87439258
   0.18718855  0.95742092  0.56506718
   0.68869734  0.79083513  0.12582213
   0.56336706  0.53472974  0.12564394
   0.31232737  0.04030734  0.38999273
   0.68838536  0.12048350  0.16852427
   0.81254113  0.20801241  0.21284669
   0.06354564  0.54086702  0.25750386
   0.56228780  0.70568160  0.47861335
   0.06294694  0.20677301  0.56484614
   0.56218233  0.37625747  0.30163910
   0.43716766  0.95669606  0.34622539
   0.18766850  0.95571615  0.69837661
   0.43617150  0.62012349  0.16793096
   0.93767484  0.45812649  0.21329495
   0.06152032  0.53453503  0.12566033
   0.81326361  0.37191140  0.52125083
   0.93737768  0.62527604  0.30146657
   0.31347213  0.04080282  0.25733658
   0.68833099  0.78672391  0.60993299
   0.18808849  0.45673874  0.83204919
   0.43742284  0.11791992  0.16773267
   0.31207843  0.37110542  0.52123420
   0.43740353  0.61713152  0.78713673
   0.06157903  0.04108065  0.25750096
   0.56235843  0.70718201  0.56517224
   0.93717020  0.28546187  0.74254795
   0.68577996  0.11719050  0.78673287
   0.18768361  0.45784652  0.21294612
   0.93732258  0.79110455  0.38994245
   0.68628451  0.29238151  0.87444489
   0.56251772  0.87051269  0.16804000
   0.43759045  0.45564026  0.69846223
   0.93854016  0.95635259  0.34617575
   0.68691415  0.62183990  0.52119515
   0.06278463  0.87077284  0.65377529
   0.06241909  0.86845731  0.78698810
   0.06215980  0.37004292  0.65386945
   0.68783312  0.45580945  0.47873491
   0.18809265  0.79153041  0.25738434
   0.43720485  0.12406723  0.43481565
   0.81339312  0.03497120  0.12561944
   0.93738788  0.62154301  0.52124046
   0.06273366  0.87356524  0.43469196
   0.81238162  0.53478807  0.12547714
   0.43752194  0.45695788  0.34636513
   0.81269310  0.20724164  0.34635846
   0.31283085  0.70668209  0.34625557
   0.68715251  0.12103963  0.65370664
   0.56290393  0.87551080  0.30181176
   0.06387277  0.53590446  0.74259975
   0.93820295  0.95819702  0.21305380
   0.81249221  0.70772936  0.21293201
   0.06202143  0.87517130  0.30183788
   0.18762007  0.12598650  0.30179965
   0.06266015  0.70710396  0.34631939
   0.81224262  0.03658853  0.60984087
   0.06233298  0.37367300  0.43469113
   0.56243583  0.20707382  0.34629952
   0.81254768  0.37614968  0.30172136
   0.56342500  0.04137779  0.25737976
   0.56247529  0.54055241  0.38997000
   0.06278951  0.20623075  0.47869053
   0.31257917  0.86750657  0.78681834
   0.93755588  0.95560460  0.69835042
   0.06250904  0.37614624  0.30154142
   0.68735079  0.62161043  0.65385567
   0.68752385  0.45706734  0.56495945
   0.43811545  0.95866459  0.21331506
   0.31236954  0.20598547  0.47868330
   0.43761024  0.12068048  0.65357521
   0.68736539  0.62375388  0.43470752
   0.81257257  0.20482309  0.69836412
   0.81220160  0.70586761  0.47864443
   0.81184905  0.87411098  0.43491320
   0.93755577  0.95556328  0.47878195
   0.56258099  0.20579312  0.47868914
   0.18667886  0.62426301  0.43496487
   0.31178827  0.03701954  0.74237271
   0.93729579  0.62191656  0.65375196
   0.56288042  0.70628124  0.83172382
   0.31253541  0.37399762  0.30177239
   0.56245497  0.70775988  0.21290338
   0.18726446  0.45564566  0.47869525
   0.31407319  0.03637723  0.87424135
   0.18682368  0.45586281  0.69839796
   0.81121866  0.53463479  0.87448014
   0.18737474  0.29085534  0.39001091
   0.43705419  0.62427347  0.43489653
   0.06254820  0.70774843  0.21297124
   0.56202913  0.37451438  0.43523081
   0.43798166  0.62221030  0.52127235
   0.81315524  0.70972031  0.83164392
   0.06243760  0.36849478  0.78698961
   0.43735540  0.29161861  0.87462797
   0.31298639  0.03498654  0.12550857
   0.68725643  0.12240302  0.43457687
   0.18724811  0.95710294  0.34633866
   0.06317184  0.20851147  0.83256859
   0.56236131  0.03582929  0.61019235
   0.68756789  0.45782907  0.21318440
   0.18743452  0.78735411  0.74280786
   0.18738851  0.62615681  0.30182570
   0.43643164  0.79117169  0.39014490
   0.43596872  0.29158820  0.25746575
   0.06387687  0.53597887  0.87440101
   0.56379427  0.03631185  0.74255247
   0.18831122  0.78976830  0.87433920
   0.93742952  0.45550275  0.47864578
   0.81232599  0.54028795  0.38993771
   0.81188461  0.20705737  0.56491207
   0.18701496  0.61746759  0.78691856
   0.06273590  0.54049502  0.38990840
   0.06300863  0.70472753  0.69839668
   0.31265097  0.54185946  0.25699967
   0.31241334  0.70572164  0.21347591
   0.31246354  0.87018917  0.16712383
   0.56310098  0.53703994  0.74241295
   0.68737920  0.45567552  0.34629857
   0.93487361  0.29223022  0.87414423
   0.43739263  0.95616653  0.47876888
   0.06434790  0.03316169  0.87417664
   0.18683237  0.79187431  0.39020705
   0.81236334  0.37045058  0.16757590
   0.56261685  0.37110211  0.52129257
   0.93728079  0.12127084  0.52117126
   0.81151768  0.86867121  0.78659632
   0.31215897  0.53570152  0.74272955
Direct configuration=     3
   0.06272358  0.03626385  0.12585719
   0.31249581  0.87115194  0.65385701
   0.18740457  0.11849044  0.78700637
   0.43785762  0.29136047  0.39014823
   0.31328499  0.70604610  0.83165699
   0.81374835  0.20746672  0.83230307
   0.18751641  0.95706619  0.83213618
   0.56279817  0.20635402  0.56522024
   0.06185610  0.03632133  0.74268051
   0.81218287  0.87194017  0.52143549
   0.18780738  0.28651559  0.74260527
   0.93757877  0.45673402  0.34610841
   0.93683800  0.29059037  0.39020606
   0.81179299  0.03750855  0.87421038
   0.18731700  0.78741197  0.60978097
   0.56204774  0.04090662  0.39022060
   0.93907190  0.95775434  0.83244663
   0.31334161  0.53724154  0.87412920
   0.68774217  0.28720064  0.74254892
   0.18812364  0.62037135  0.16793597
   0.81165259  0.20633626  0.47853305
   0.81256220  0.53697025  0.60985644
   0.31218206  0.87373500  0.43485352
   0.81266262  0.04097443  0.25756221
   0.68735418  0.95683935  0.34606339
   0.93681060  0.12071238  0.16827189
   0.06280120  0.87187016  0.52147277
   0.56245867  0.54099119  0.25741542
   0.68688099  0.78917328  0.87414654
   0.56315269  0.37074029  0.16779646
   0.43741475  0.78727974  0.74274305
   0.81248266  0.70606784  0.56507075
   0.56236708  0.86823949  0.78685554
   0.68746840  0.12154088  0.52144494
   0.81280612  0.37080027  0.65394293
   0.93799321  0.45703392  0.83220274
   0.06225976  0.20466056  0.69838649
   0.43730358  0.95479027  0.69832550
   0.31291261  0.20527794  0.83216763
   0.43753462  0.62131077  0.65387731
   0.31226290  0.53746301  0.60979150
   0.93747578  0.45633682  0.56520689
   0.68773206  0.78742102  0.74270433
   0.93699282  0.78914991  0.12618058
   0.68752503  0.79016409  0.39010373
   0.93775302  0.78691651  0.74280748
   0.06272833  0.20705049  0.34610379
   0.81221332  0.04075774  0.39029355
   0.43736370  0.11866834  0.78697696
   0.06207370  0.20703927  0.21307826
   0.06187448  0.37074509  0.16785904
   0.93682936  0.79095555  0.25740918
   0.56247158  0.20468090  0.69838259
   0.68733467  0.95487099  0.69832461
   0.43730051  0.78872734  0.12561546
   0.43729884  0.95618270  0.56490313
   0.81257197  0.36860336  0.78689694
   0.68662230  0.29113643  0.25746820
   0.18755283  0.45637695  0.56511589
   0.06317090  0.87093470  0.16800511
   0.18748921  0.28744201  0.60988724
   0.56299975  0.70713590  0.34619349
   0.31251805  0.20482013  0.69838525
   0.56214463  0.53782117  0.87399554
   0.06264134  0.70601610  0.56509076
   0.68784859  0.61839493  0.78698421
   0.31201287  0.54089568  0.39018159
   0.18776236  0.62200788  0.52141516
   0.56243404  0.87365883  0.43488044
   0.43719669  0.45664079  0.56511600
   0.43762616  0.28778003  0.74264816
   0.81253724  0.87600964  0.30162035
   0.81238494  0.70702332  0.34619662
   0.43817179  0.45545048  0.83195888
   0.68792125  0.95646075  0.47846293
   0.68726732  0.45487351  0.69832281
   0.56263753  0.87166500  0.52136107
   0.56272074  0.37081865  0.65376872
   0.81257155  0.87086145  0.65386996
   0.81256338  0.37393578  0.43462993
   0.81257583  0.54056035  0.25744697
   0.68870861  0.45547225  0.83208702
   0.18802259  0.78864842  0.12562931
   0.68713654  0.29078352  0.39013740
   0.31255183  0.37109492  0.65376018
   0.31272135  0.20704396  0.34604749
   0.81263455  0.53645182  0.74277804
   0.68807897  0.95604824  0.83213618
   0.56262555  0.87137934  0.65373300
   0.31258749  0.70611456  0.56519220
   0.31222044  0.53742851  0.12573355
   0.68715816  0.95792123  0.21318587
   0.31252128  0.20645770  0.56525132
   0.18681015  0.95624860  0.47843539
   0.68815844  0.95654536  0.56519869
   0.43714455  0.78700336  0.60974369
   0.68723018  0.61912352  0.16800974
   0.31248785  0.87516325  0.30148448
   0.31249599  0.70541493  0.47845756
   0.93694792  0.28726659  0.60984929
   0.43786255  0.62538877  0.30167797
   0.81255060  0.87017171  0.16806011
   0.56299207  0.20706950  0.21299367
   0.93753574  0.61919959  0.16807194
   0.93787069  0.78762309  0.87438619
   0.56208098  0.36830112  0.78688026
   0.06247827  0.37249028  0.52142399
   0.31237765  0.36964668  0.16803671
   0.68775575  0.12564365  0.30169649
   0.43893649  0.95543104  0.83191620
   0.18754233  0.28923065  0.12605191
   0.18705406  0.29073637  0.25751237
   0.31228448  0.37368957  0.43474347
   0.56317282  0.03644209  0.12583160
   0.43722064  0.28725445  0.60974870
   0.18733326  0.45771152  0.34622484
   0.43736203  0.28933983  0.12604882
   0.68764825  0.79122690  0.25740005
   0.43690194  0.12224772  0.52141421
   0.18894562  0.28914369  0.87438039
   0.18732928  0.12145337  0.65389486
   0.93754010  0.12097443  0.65386014
   0.31252429  0.20744206  0.21299752
   0.06197742  0.04068374  0.39014548
   0.18730437  0.11922377  0.16780615
   0.06253284  0.53655469  0.60990447
   0.93771660  0.29076963  0.25741781
   0.56252708  0.53710160  0.60977732
   0.93753566  0.95649533  0.56513389
   0.68724982  0.62551013  0.30162408
   0.93728829  0.62396311  0.43491004
   0.93725458  0.61916421  0.78673288
   0.56194815  0.70412582  0.69826268
   0.06292731  0.70812762  0.83231397
   0.93751260  0.12552859  0.30168185
   0.93746603  0.78705713  0.60988277
   0.43718015  0.79146877  0.25740545
   0.31259637  0.36827035  0.78682881
   0.43802354  0.45728911  0.21299459
   0.18785574  0.12168809  0.52142980
   0.81233855  0.70485203  0.69844930
   0.06201403  0.03726657  0.60974708
   0.56237998  0.20557864  0.83186698
   0.31217180  0.87176003  0.52137923
   0.68790487  0.28880355  0.12581174
   0.18727665  0.95826040  0.21325722
   0.68690295  0.28748404  0.60983829
   0.31221671  0.03677489  0.60990341
   0.93761896  0.11868601  0.78711359
   0.43767096  0.78864290  0.87401776
   0.81293283  0.03686677  0.74268631
   0.93734648  0.45502292  0.69846502
   0.18763125  0.62141286  0.65387952
   0.31266544  0.70435051  0.69842352
   0.93717881  0.28867780  0.12585161
   0.43723381  0.45611252  0.47855890
   0.06241922  0.70580979  0.47848293
   0.93692128  0.12376257  0.43510664
   0.43749530  0.12504677  0.30166426
   0.18771290  0.12363312  0.43470939
   0.56236593  0.03710179  0.87410032
   0.18691890  0.95690591  0.56526660
   0.68857244  0.78933930  0.12612225
   0.56324691  0.53593140  0.12582701
   0.31256480  0.04054910  0.39022336
   0.68816495  0.12068278  0.16822426
   0.81253139  0.20741116  0.21303059
   0.06271365  0.54099859  0.25744162
   0.56238362  0.70529760  0.47845283
   0.06279772  0.20638060  0.56503094
   0.56204791  0.37563163  0.30155475
   0.43721716  0.95678998  0.34613930
   0.18739871  0.95506968  0.69839735
   0.43662451  0.62060549  0.16787384
   0.93781075  0.45763205  0.21330964
   0.06160901  0.53574812  0.12586814
   0.81285243  0.37231552  0.52145730
   0.93750797  0.62538716  0.30148390
   0.31279181  0.04052483  0.25737352
   0.68753064  0.78698886  0.60978840
   0.18786752  0.45663309  0.83221737
   0.43770633  0.11926743  0.16786834
   0.31217032  0.37171096  0.52147055
   0.43758738  0.61800722  0.78699552
   0.06214672  0.04080401  0.25742893
   0.56235000  0.70608619  0.56528640
   0.93749101  0.28617175  0.74266455
   0.68633013  0.11845465  0.78673782
   0.18715136  0.45730155  0.21301046
   0.93701116  0.79103460  0.39020301
   0.68638131  0.29014120  0.87430908
   0.56226057  0.87091512  0.16790493
   0.43741296  0.45486197  0.69839387
   0.93817122  0.95686249  0.34609710
   0.68734534  0.62260655  0.52140919
   0.06248960  0.87105050  0.65387047
   0.06282606  0.86896829  0.78700222
   0.06240653  0.37070271  0.65388983
   0.68795296  0.45582032  0.47850103
   0.18750115  0.79166847  0.25742109
   0.43730568  0.12397987  0.43468792
   0.81312221  0.03676919  0.12596971
   0.93751759  0.62203862  0.52138783
   0.06247409  0.87358319  0.43473638
   0.81246078  0.53640241  0.12560624
   0.43714612  0.45708790  0.34620150