 running on  448 total cores
 distrk:  each k-point on  112 cores,    4 groups
 distr:  one band on    8 cores,   14 groups
 using from now: INCAR     
 vasp.5.4.4.18Apr17-6-g9f103f2a35 (build Sep 27 2018 12:46:37) complex + VL-xray
 _
 POSCAR found type information on POSCAR  Fe Mn
 POSCAR found :  2 types and     288 ions
 scaLAPACK will be used

 ----------------------------------------------------------------------------- 
|                                                                             |
|           W    W    AA    RRRRR   N    N  II  N    N   GGGG   !!!           |
|           W    W   A  A   R    R  NN   N  II  NN   N  G    G  !!!           |
|           W    W  A    A  R    R  N N  N  II  N N  N  G       !!!           |
|           W WW W  AAAAAA  RRRRR   N  N N  II  N  N N  G  GGG   !            |
|           WW  WW  A    A  R   R   N   NN  II  N   NN  G    G                |
|           W    W  A    A  R    R  N    N  II  N    N   GGGG   !!!           |
|                                                                             |
|      For optimal performance we recommend to set                            |
|        NCORE= 4 - approx SQRT( number of cores)                             |
|      NCORE specifies how many cores store one orbital (NPAR=cpu/NCORE).     |
|      This setting can  greatly improve the performance of VASP for DFT.     |
|      The default,   NCORE=1            might be grossly inefficient         |
|      on modern multi-core architectures or massively parallel machines.     |
|      Do your own testing !!!!                                               |
|      Unfortunately you need to use the default for GW and RPA calculations. |
|      (for HF NCORE is supported but not extensively tested yet)             |
|                                                                             |
 ----------------------------------------------------------------------------- 


 ----------------------------------------------------------------------------- 
|                                                                             |
|           W    W    AA    RRRRR   N    N  II  N    N   GGGG   !!!           |
|           W    W   A  A   R    R  NN   N  II  NN   N  G    G  !!!           |
|           W    W  A    A  R    R  N N  N  II  N N  N  G       !!!           |
|           W WW W  AAAAAA  RRRRR   N  N N  II  N  N N  G  GGG   !            |
|           WW  WW  A    A  R   R   N   NN  II  N   NN  G    G                |
|           W    W  A    A  R    R  N    N  II  N    N   GGGG   !!!           |
|                                                                             |
|      You have enabled k-point parallelism (KPAR>1).                         |
|      This developmental code was originally  written by Paul Kent at ORNL,  |
|      and carefully double checked in Vienna.                                |
|      GW as well as linear response parallelism added by Martijn Marsman     |
|      and Georg Kresse.                                                      |
|      Carefully verify results versus KPAR=1.                                |
|      Report problems to Paul Kent and Vienna.                               |
|                                                                             |
 ----------------------------------------------------------------------------- 

 LDA part: xc-table for Pade appr. of Perdew
 POSCAR found type information on POSCAR  Fe Mn
 POSCAR found :  2 types and     288 ions
 POSCAR, INCAR and KPOINTS ok, starting setup
 FFT: planning ...
 WAVECAR not read
 WARNING: random wavefunctions but no delay for mixing, default for NELMDL
 entering main loop
       N       E                     dE             d eps       ncg     rms          rms(c)
DAV:   1     0.292370782847E+05    0.29237E+05   -0.86593E+05 27944   0.197E+03
DAV:   2     0.119891308803E+04   -0.28038E+05   -0.27425E+05 27720   0.604E+02
DAV:   3    -0.193954562894E+04   -0.31385E+04   -0.27263E+04 39102   0.279E+02
DAV:   4    -0.260992170362E+04   -0.67038E+03   -0.61048E+03 50932   0.977E+01
DAV:   5    -0.273037093877E+04   -0.12045E+03   -0.11279E+03 48412   0.398E+01    0.203E+02
RMM:   6    -0.564564257787E+04   -0.29153E+04   -0.11306E+04 48418   0.239E+02    0.620E+02
RMM:   7    -0.345269974429E+04    0.21929E+04   -0.36956E+03 35923   0.104E+02    0.361E+02
RMM:   8    -0.652169444258E+04   -0.30690E+04   -0.63382E+03 41153   0.205E+02    0.540E+02
RMM:   9    -0.844418159515E+04   -0.19225E+04   -0.10156E+04 46517   0.169E+02    0.614E+02
RMM:  10    -0.722124327193E+04    0.12229E+04   -0.46600E+03 47038   0.921E+01    0.529E+02
RMM:  11    -0.153028125239E+05   -0.80816E+04   -0.23593E+04 42699   0.391E+02    0.154E+03
RMM:  12    -0.174074444117E+05   -0.21046E+04   -0.25915E+04 46725   0.280E+02    0.138E+03
RMM:  13    -0.185144920175E+05   -0.11070E+04   -0.17937E+04 44992   0.297E+02    0.186E+03
RMM:  14    -0.196223334957E+05   -0.11078E+04   -0.22756E+04 48517   0.267E+02    0.177E+03
RMM:  15    -0.211569995045E+05   -0.15347E+04   -0.23347E+04 48901   0.220E+02    0.180E+03
RMM:  16    -0.181924409016E+05    0.29646E+04   -0.13014E+04 47290   0.158E+02    0.149E+03
RMM:  17    -0.116742255149E+05    0.65182E+04   -0.46205E+03 47270   0.105E+02    0.125E+03
RMM:  18    -0.990475001649E+04    0.17695E+04   -0.17153E+03 38951   0.591E+01    0.107E+03
RMM:  19    -0.372400584178E+04    0.61807E+04   -0.39107E+03 39061   0.639E+01    0.485E+02
RMM:  20    -0.156957894782E+04    0.21544E+04   -0.36566E+03 47356   0.968E+01    0.389E+02
RMM:  21    -0.129873946616E+04    0.27084E+03   -0.39126E+03 51193   0.789E+01    0.395E+02
RMM:  22    -0.132139758012E+04   -0.22658E+02   -0.22475E+03 50684   0.849E+01    0.345E+02
RMM:  23    -0.164509550502E+04   -0.32370E+03   -0.37432E+03 51270   0.963E+01    0.374E+02
RMM:  24    -0.236335096250E+04   -0.71826E+03   -0.28294E+03 49903   0.111E+02    0.397E+02
RMM:  25    -0.250511698933E+04   -0.14177E+03   -0.22421E+03 50392   0.110E+02    0.322E+02
RMM:  26    -0.252861610198E+04   -0.23499E+02   -0.22802E+03 50488   0.721E+01    0.280E+02
RMM:  27    -0.303546747227E+04   -0.50685E+03   -0.19206E+03 48466   0.798E+01    0.293E+02
RMM:  28    -0.282435503474E+04    0.21111E+03   -0.16742E+03 50596   0.626E+01    0.243E+02
RMM:  29    -0.262855296895E+04    0.19580E+03   -0.11774E+03 46872   0.512E+01    0.171E+02
RMM:  30    -0.256623777805E+04    0.62315E+02   -0.13082E+03 49002   0.302E+01    0.158E+02
RMM:  31    -0.278671371985E+04   -0.22048E+03   -0.16130E+03 45046   0.364E+01    0.187E+02
RMM:  32    -0.290238017370E+04   -0.11567E+03   -0.13950E+03 47162   0.268E+01    0.203E+02
RMM:  33    -0.297977677903E+04   -0.77397E+02   -0.10271E+03 47168   0.204E+01    0.219E+02
RMM:  34    -0.307255582117E+04   -0.92779E+02   -0.94001E+02 48761   0.150E+01    0.238E+02
RMM:  35    -0.319508561413E+04   -0.12253E+03   -0.96739E+02 42000   0.171E+01    0.265E+02
RMM:  36    -0.325923514962E+04   -0.64150E+02   -0.86045E+02 46046   0.123E+01    0.283E+02
RMM:  37    -0.335441508771E+04   -0.95180E+02   -0.65670E+02 38478   0.113E+01    0.302E+02
RMM:  38    -0.338000806307E+04   -0.25593E+02   -0.39417E+02 44750   0.760E+00    0.315E+02
RMM:  39    -0.340846696992E+04   -0.28459E+02   -0.23852E+02 43007   0.485E+00    0.325E+02
RMM:  40    -0.331039740948E+04    0.98070E+02   -0.15061E+02 37352   0.638E+00    0.328E+02
RMM:  41    -0.332756581362E+04   -0.17168E+02   -0.13735E+02 44718   0.314E+00    0.336E+02
RMM:  42    -0.334150921997E+04   -0.13943E+02   -0.92792E+01 36937   0.286E+00    0.341E+02
RMM:  43    -0.333286383036E+04    0.86454E+01   -0.51868E+01 36913   0.332E+00    0.344E+02
RMM:  44    -0.333504922561E+04   -0.21854E+01   -0.41308E+01 44161   0.155E+00    0.347E+02
RMM:  45    -0.333739140495E+04   -0.23422E+01   -0.25415E+01 35475   0.201E+00    0.350E+02
RMM:  46    -0.334286789528E+04   -0.54765E+01   -0.20405E+01 43933   0.915E-01    0.353E+02
RMM:  47    -0.335063092283E+04   -0.77630E+01   -0.12552E+01 34268   0.804E-01    0.355E+02
RMM:  48    -0.335028914759E+04    0.34178E+00   -0.14701E+01 31760   0.242E+00    0.357E+02
RMM:  49    -0.334169971524E+04    0.85894E+01   -0.19263E+01 40222   0.246E+00    0.359E+02
RMM:  50    -0.332930460961E+04    0.12395E+02   -0.14437E+01 41072   0.166E+00    0.360E+02
RMM:  51    -0.341593523329E+04   -0.86631E+02   -0.13281E+03 41426   0.465E+01    0.292E+02
RMM:  52    -0.335067579867E+04    0.65259E+02   -0.78915E+02 43610   0.264E+01    0.291E+02
RMM:  53    -0.333595028409E+04    0.14726E+02   -0.56087E+02 42038   0.183E+01    0.287E+02
RMM:  54    -0.329523717351E+04    0.40713E+02   -0.34908E+02 45535   0.111E+01    0.286E+02
RMM:  55    -0.320119223759E+04    0.94045E+02   -0.15711E+02 40184   0.856E+00    0.280E+02
RMM:  56    -0.321207994342E+04   -0.10888E+02   -0.26992E+02 31504   0.245E+01    0.289E+02
RMM:  57    -0.318644394742E+04    0.25636E+02   -0.17511E+02 31839   0.197E+01    0.275E+02
RMM:  58    -0.322460437359E+04   -0.38160E+02   -0.20283E+02 45066   0.539E+00    0.285E+02
RMM:  59    -0.321386899749E+04    0.10735E+02   -0.78578E+01 40892   0.499E+00    0.288E+02
RMM:  60    -0.317115379243E+04    0.42715E+02   -0.42986E+01 38925   0.534E+00    0.287E+02
RMM:  61    -0.332846931848E+04   -0.15732E+03   -0.16533E+02 29955   0.219E+01    0.305E+02
RMM:  62    -0.326571205704E+04    0.62757E+02   -0.10134E+02 27768   0.214E+01    0.291E+02
RMM:  63    -0.327239593440E+04   -0.66839E+01   -0.11151E+02 40656   0.980E+00    0.291E+02
RMM:  64    -0.326880484905E+04    0.35911E+01   -0.45572E+01 36673   0.596E+00    0.290E+02
RMM:  65    -0.324675606377E+04    0.22049E+02   -0.28128E+01 41596   0.378E+00    0.290E+02
RMM:  66    -0.381632116504E+04   -0.56957E+03   -0.24287E+02 35591   0.190E+01    0.333E+02
RMM:  67    -0.371543635318E+04    0.10088E+03   -0.12880E+02 41679   0.953E+00    0.321E+02
RMM:  68    -0.370259073573E+04    0.12846E+02   -0.77432E+01 39294   0.515E+00    0.326E+02
RMM:  69    -0.372552585445E+04   -0.22935E+02   -0.65077E+01 40465   0.505E+00    0.331E+02
RMM:  70    -0.373430548208E+04   -0.87796E+01   -0.44771E+01 35336   0.682E+00    0.336E+02
RMM:  71    -0.369341864195E+04    0.40887E+02   -0.21882E+02 30692   0.257E+01    0.360E+02
RMM:  72    -0.370460805975E+04   -0.11189E+02   -0.72035E+01 31738   0.150E+01    0.359E+02
RMM:  73    -0.370700114432E+04   -0.23931E+01   -0.86863E+01 41910   0.373E+00    0.362E+02
RMM:  74    -0.370918666237E+04   -0.21855E+01   -0.13486E+01 43230   0.271E+00    0.364E+02
RMM:  75    -0.370729885959E+04    0.18878E+01   -0.99531E+00 37647   0.284E+00    0.363E+02
RMM:  76    -0.396386846165E+04   -0.25657E+03   -0.24455E+02 29632   0.281E+01    0.365E+02
RMM:  77    -0.371536301336E+04    0.24851E+03   -0.94940E+01 30913   0.197E+01    0.353E+02
RMM:  78    -0.367374160922E+04    0.41621E+02   -0.35615E+01 29068   0.113E+01    0.350E+02
RMM:  79    -0.366997718310E+04    0.37644E+01   -0.39790E+01 28240   0.125E+01    0.352E+02
RMM:  80    -0.359506432857E+04    0.74913E+02   -0.52262E+01 30908   0.119E+01    0.344E+02
RMM:  81    -0.392758778651E+04   -0.33252E+03   -0.24192E+02 28651   0.293E+01    0.379E+02
RMM:  82    -0.368524125970E+04    0.24235E+03   -0.65067E+01 29904   0.152E+01    0.353E+02
RMM:  83    -0.363192516783E+04    0.53316E+02   -0.53797E+01 38145   0.698E+00    0.352E+02
RMM:  84    -0.360659761408E+04    0.25328E+02   -0.21547E+01 41136   0.348E+00    0.351E+02
RMM:  85    -0.358266150893E+04    0.23936E+02   -0.10403E+01 30076   0.507E+00    0.351E+02
RMM:  86    -0.488614036650E+04   -0.13035E+04   -0.33786E+03 46623   0.936E+01    0.499E+02
RMM:  87    -0.429452255407E+04    0.59162E+03   -0.16176E+03 47167   0.503E+01    0.395E+02
RMM:  88    -0.427031191533E+04    0.24211E+02   -0.93052E+02 49122   0.341E+01    0.401E+02
RMM:  89    -0.432411227181E+04   -0.53800E+02   -0.85802E+02 47752   0.273E+01    0.390E+02
RMM:  90    -0.428905565369E+04    0.35057E+02   -0.69485E+02 46892   0.279E+01    0.398E+02
RMM:  91    -0.772759836346E+04   -0.34385E+04   -0.72947E+03 49718   0.141E+02    0.654E+02
RMM:  92    -0.576086593060E+04    0.19667E+04   -0.33334E+03 49932   0.768E+01    0.494E+02
RMM:  93    -0.372623631147E+04    0.20346E+04   -0.28947E+03 27926   0.113E+02    0.427E+02
RMM:  94    -0.324842889087E+04    0.47781E+03   -0.26779E+03 50277   0.454E+01    0.351E+02
RMM:  95    -0.318112023025E+04    0.67309E+02   -0.12516E+03 36009   0.560E+01    0.336E+02
RMM:  96    -0.320535850647E+04   -0.24238E+02   -0.27621E+03 46807   0.681E+01    0.329E+02
RMM:  97    -0.309392583207E+04    0.11143E+03   -0.11675E+03 36238   0.549E+01    0.305E+02
RMM:  98    -0.288971651121E+04    0.20421E+03   -0.11291E+03 47804   0.284E+01    0.250E+02
RMM:  99    -0.304845354854E+04   -0.15874E+03   -0.85317E+02 36885   0.393E+01    0.276E+02
RMM: 100    -0.299721206231E+04    0.51241E+02   -0.80724E+02 43353   0.342E+01
   1 F= -.29972121E+04 E0= -.29954263E+04  d E =-.299721E+04
 curvature:   0.00 expect dE= 0.000E+00 dE for cont linesearch  0.000E+00
 trial: gam= 0.00000 g(F)=  0.983E+02 g(S)=  0.000E+00 ort = 0.000E+00 (trialstep = 0.100E+01)
 search vector abs. value=  0.983E+02
 bond charge predicted
       N       E                     dE             d eps       ncg     rms          rms(c)
DAV:   1    -0.343074397450E+04   -0.38229E+03   -0.19249E+04 46508   0.272E+02    0.414E+02
RMM:   2    -0.445160871312E+05   -0.41085E+05   -0.17939E+05 51214   0.116E+03    0.758E+03
RMM:   3    -0.565834921819E+05   -0.12067E+05   -0.17804E+05 48810   0.109E+03    0.470E+03
RMM:   4    -0.524055941956E+05    0.41779E+04   -0.11668E+05 50722   0.751E+02    0.899E+03
RMM:   5    -0.761423680281E+05   -0.23737E+05   -0.27882E+05 50716   0.123E+03    0.634E+03
RMM:   6    -0.888752325591E+05   -0.12733E+05   -0.21118E+05 50697   0.956E+02    0.785E+03
RMM:   7    -0.948202012376E+05   -0.59450E+04   -0.14704E+05 50723   0.872E+02    0.750E+03
RMM:   8    -0.988301954784E+05   -0.40100E+04   -0.77099E+04 50764   0.528E+02    0.814E+03
RMM:   9    -0.102988085739E+06   -0.41579E+04   -0.54008E+04 50097   0.347E+02    0.918E+03
RMM:  10    -0.997031129625E+05    0.32850E+04   -0.51590E+04 48852   0.265E+02    0.106E+04
RMM:  11    -0.102619711138E+06   -0.29166E+04   -0.23467E+04 49189   0.284E+02    0.114E+04
RMM:  12    -0.102294948804E+06    0.32476E+03   -0.35845E+04 50396   0.137E+02    0.119E+04
RMM:  13    -0.726558976555E+05    0.29639E+05   -0.56521E+03 47264   0.153E+02    0.115E+04
RMM:  14    -0.335432232607E+05    0.39113E+05   -0.13486E+04 48334   0.122E+02    0.812E+03
RMM:  15    -0.546241032605E+03    0.32997E+05   -0.37631E+04 48931   0.272E+02    0.536E+03
RMM:  16     0.472279868711E+04    0.52690E+04   -0.23886E+04 48854   0.233E+02    0.486E+03
RMM:  17     0.101235491409E+05    0.54008E+04   -0.36121E+04 48244   0.299E+02    0.424E+03
RMM:  18     0.993541456378E+04   -0.18813E+03   -0.29657E+04 50763   0.301E+02    0.391E+03
RMM:  19     0.833792821422E+04   -0.15975E+04   -0.28997E+04 50617   0.309E+02    0.365E+03
RMM:  20     0.571191127316E+04   -0.26260E+04   -0.33501E+04 50927   0.373E+02    0.360E+03
RMM:  21    -0.115865988347E+04   -0.68706E+04   -0.59038E+04 49256   0.420E+02    0.328E+03
RMM:  22    -0.382142928867E+04   -0.26628E+04   -0.60059E+04 47995   0.449E+02    0.314E+03
RMM:  23    -0.831869901762E+04   -0.44973E+04   -0.42192E+04 48379   0.457E+02    0.342E+03
RMM:  24    -0.133186430040E+05   -0.49999E+04   -0.34594E+04 49291   0.433E+02    0.370E+03
RMM:  25    -0.169143255090E+05   -0.35957E+04   -0.29514E+04 50176   0.380E+02    0.326E+03
RMM:  26    -0.100801814264E+05    0.68341E+04   -0.16575E+04 45042   0.229E+02    0.176E+03
RMM:  27    -0.281017178327E+04    0.72700E+04   -0.26570E+04 46976   0.289E+02    0.129E+03
RMM:  28    -0.108296857359E+04    0.17272E+04   -0.39504E+04 45483   0.365E+02    0.216E+03
RMM:  29    -0.369692541480E+04   -0.26140E+04   -0.36948E+04 45568   0.404E+02    0.245E+03
RMM:  30    -0.792786215723E+04   -0.42309E+04   -0.30924E+04 45727   0.445E+02    0.348E+03
RMM:  31    -0.116836661084E+05   -0.37558E+04   -0.32707E+04 46158   0.484E+02    0.383E+03
RMM:  32    -0.133582216310E+05   -0.16746E+04   -0.24116E+04 46164   0.444E+02    0.329E+03
RMM:  33    -0.134473952331E+05   -0.89174E+02   -0.17989E+04 47688   0.316E+02    0.263E+03
RMM:  34    -0.483282702367E+04    0.86146E+04   -0.93750E+03 48592   0.219E+02    0.118E+03
RMM:  35    -0.720713832977E+03    0.41121E+04   -0.15956E+04 46961   0.262E+02    0.639E+02
RMM:  36     0.205844604073E+04    0.27792E+04   -0.22833E+04 44725   0.285E+02    0.117E+03
RMM:  37     0.407510738024E+03   -0.16509E+04   -0.22634E+04 43158   0.300E+02    0.188E+03
RMM:  38    -0.272818062789E+04   -0.31357E+04   -0.25889E+04 43433   0.372E+02    0.245E+03
RMM:  39    -0.635467558171E+04   -0.36265E+04   -0.28067E+04 44149   0.376E+02    0.250E+03
RMM:  40    -0.934977659614E+04   -0.29951E+04   -0.26792E+04 44776   0.339E+02    0.248E+03
RMM:  41    -0.115890909213E+05   -0.22393E+04   -0.27065E+04 45722   0.301E+02    0.217E+03
RMM:  42    -0.953789483156E+04    0.20512E+04   -0.14229E+04 48374   0.209E+02    0.154E+03
RMM:  43    -0.678756400333E+04    0.27503E+04   -0.59857E+03 51075   0.142E+02    0.105E+03
RMM:  44    -0.438062997873E+04    0.24069E+04   -0.63431E+03 43562   0.114E+02    0.568E+02
RMM:  45    -0.391489727465E+04    0.46573E+03   -0.45189E+03 44494   0.976E+01    0.426E+02
RMM:  46    -0.389820644415E+04    0.16691E+02   -0.46002E+03 36083   0.957E+01    0.376E+02
RMM:  47    -0.508261874682E+04   -0.11844E+04   -0.15493E+04 47592   0.209E+02    0.699E+02
RMM:  48    -0.403576141359E+04    0.10469E+04   -0.96518E+03 38660   0.172E+02    0.501E+02
RMM:  49    -0.416208273497E+04   -0.12632E+03   -0.54779E+03 49070   0.138E+02    0.354E+02
RMM:  50    -0.322320053415E+04    0.93888E+03   -0.34994E+03 48467   0.981E+01    0.286E+02
RMM:  51    -0.289797338671E+04    0.32523E+03   -0.27449E+03 42263   0.679E+01    0.227E+02
RMM:  52    -0.296223609492E+04   -0.64263E+02   -0.17876E+03 34298   0.613E+01    0.228E+02
RMM:  53    -0.282405188266E+04    0.13818E+03   -0.12620E+03 42063   0.356E+01    0.208E+02
RMM:  54    -0.263613444337E+04    0.18792E+03   -0.54847E+02 36618   0.241E+01    0.185E+02
RMM:  55    -0.251288875939E+04    0.12325E+03   -0.24409E+02 33605   0.207E+01    0.172E+02
RMM:  56    -0.244217797802E+04    0.70711E+02   -0.29934E+02 34191   0.225E+01    0.151E+02
RMM:  57    -0.241540705224E+04    0.26771E+02   -0.27765E+02 38819   0.188E+01    0.138E+02
RMM:  58    -0.236149393627E+04    0.53913E+02   -0.14904E+02 30675   0.197E+01    0.118E+02
RMM:  59    -0.239886458386E+04   -0.37371E+02   -0.21125E+02 32603   0.202E+01    0.144E+02
RMM:  60    -0.236432209009E+04    0.34542E+02   -0.10617E+02 30930   0.163E+01    0.117E+02
RMM:  61    -0.234535710391E+04    0.18965E+02   -0.11846E+02 33129   0.153E+01    0.102E+02
RMM:  62    -0.233435152536E+04    0.11006E+02   -0.68815E+01 30648   0.137E+01    0.872E+01
RMM:  63    -0.233416001341E+04    0.19151E+00   -0.56698E+01 29227   0.143E+01    0.849E+01
RMM:  64    -0.234522582174E+04   -0.11066E+02   -0.45205E+01 30325   0.110E+01    0.933E+01
RMM:  65    -0.236527180214E+04   -0.20046E+02   -0.51462E+01 31867   0.101E+01    0.107E+02
RMM:  66    -0.236068883675E+04    0.45830E+01   -0.30119E+01 31332   0.826E+00    0.104E+02
RMM:  67    -0.235351621810E+04    0.71726E+01   -0.82934E+01 31565   0.138E+01    0.925E+01
RMM:  68    -0.233483737606E+04    0.18679E+02   -0.25365E+01 27793   0.110E+01    0.822E+01
RMM:  69    -0.233077012051E+04    0.40673E+01   -0.32954E+01 28136   0.121E+01    0.781E+01
RMM:  70    -0.233681631270E+04   -0.60462E+01   -0.35506E+01 28171   0.124E+01    0.814E+01
RMM:  71    -0.232648074004E+04    0.10336E+02   -0.23917E+01 28157   0.108E+01    0.722E+01
RMM:  72    -0.245888508574E+04   -0.13240E+03   -0.11327E+02 29779   0.189E+01    0.152E+02
RMM:  73    -0.241916700911E+04    0.39718E+02   -0.67737E+01 27859   0.183E+01    0.137E+02
RMM:  74    -0.241058671451E+04    0.85803E+01   -0.53390E+01 27876   0.166E+01    0.132E+02
RMM:  75    -0.242770872665E+04   -0.17122E+02   -0.41982E+01 28804   0.141E+01    0.139E+02
RMM:  76    -0.240683072563E+04    0.20878E+02   -0.34767E+01 29825   0.105E+01    0.127E+02
RMM:  77    -0.250504603154E+04   -0.98215E+02   -0.98388E+01 33085   0.121E+01    0.169E+02
RMM:  78    -0.251956941222E+04   -0.14523E+02   -0.94429E+01 31781   0.143E+01    0.172E+02
RMM:  79    -0.247993704049E+04    0.39632E+02   -0.73997E+01 39402   0.845E+00    0.160E+02
RMM:  80    -0.243860468858E+04    0.41332E+02   -0.21831E+01 32533   0.579E+00    0.148E+02
RMM:  81    -0.240838042865E+04    0.30224E+02   -0.14984E+01 29079   0.743E+00    0.134E+02
RMM:  82    -0.232849821903E+04    0.79882E+02   -0.42906E+01 28635   0.123E+01    0.674E+01
RMM:  83    -0.231684482273E+04    0.11653E+02   -0.39384E+01 27968   0.130E+01    0.539E+01
RMM:  84    -0.232674514110E+04   -0.99003E+01   -0.37083E+01 28949   0.116E+01    0.664E+01
RMM:  85    -0.232028228228E+04    0.64629E+01   -0.19567E+01 27793   0.980E+00    0.567E+01
RMM:  86    -0.232223223628E+04   -0.19500E+01   -0.14889E+01 28652   0.766E+00    0.599E+01
RMM:  87    -0.231425016041E+04    0.79821E+01   -0.12717E+01 28145   0.729E+00    0.471E+01
RMM:  88    -0.231396540510E+04    0.28476E+00   -0.79886E+00 27982   0.644E+00    0.458E+01
RMM:  89    -0.231571187231E+04   -0.17465E+01   -0.61760E+00 30294   0.419E+00    0.483E+01
RMM:  90    -0.232047009495E+04   -0.47582E+01   -0.37929E+00 29309   0.376E+00    0.559E+01
RMM:  91    -0.232002553883E+04    0.44456E+00   -0.23679E+00 30792   0.255E+00    0.545E+01
RMM:  92    -0.232828474844E+04   -0.82592E+01   -0.10187E+01 28866   0.641E+00    0.671E+01
RMM:  93    -0.231528675711E+04    0.12998E+02   -0.48415E+00 27790   0.514E+00    0.461E+01
RMM:  94    -0.231354867584E+04    0.17381E+01   -0.70504E+00 28288   0.551E+00    0.431E+01
RMM:  95    -0.230851476168E+04    0.50339E+01   -0.63803E+00 28631   0.514E+00    0.297E+01
RMM:  96    -0.230720613549E+04    0.13086E+01   -0.50780E+00 29544   0.425E+00    0.247E+01
RMM:  97    -0.232646570687E+04   -0.19260E+02   -0.18092E+01 30139   0.765E+00    0.609E+01
RMM:  98    -0.230837326134E+04    0.18092E+02   -0.59499E+00 27767   0.578E+00    0.274E+01
RMM:  99    -0.230782052004E+04    0.55274E+00   -0.37123E+00 29082   0.400E+00    0.269E+01
RMM: 100    -0.230739598022E+04    0.42454E+00   -0.44535E+00 33936   0.274E+00
   2 F= -.23073960E+04 E0= -.23046171E+04  d E =0.689816E+03
 trial-energy change:  689.816082  1 .order  -36.095244  -98.260318   26.069829
 step:   0.7903(harm=  0.7903)  dis= 0.16088  next Energy= -3036.040497 (dE=-0.388E+02)
 bond charge predicted
       N       E                     dE             d eps       ncg     rms          rms(c)
DAV:   1    -0.231064323981E+04   -0.28227E+01   -0.76501E+02 27818   0.298E+01    0.233E+01
RMM:   2    -0.637711252357E+04   -0.40665E+04   -0.20851E+03 43048   0.949E+01    0.369E+02
RMM:   3    -0.298434309914E+04    0.33928E+04   -0.80602E+02 27915   0.673E+01    0.227E+02
RMM:   4    -0.249709283487E+04    0.48725E+03   -0.11784E+02 28272   0.205E+01    0.163E+02
RMM:   5    -0.262359739543E+04   -0.12650E+03   -0.58353E+01 27898   0.156E+01    0.217E+02
RMM:   6    -0.232347709623E+04    0.30012E+03   -0.26672E+01 28073   0.108E+01    0.554E+01
RMM:   7    -0.236741159080E+04   -0.43934E+02   -0.40083E+01 39730   0.722E+00    0.103E+02
RMM:   8    -0.234361245447E+04    0.23799E+02   -0.26310E+01 37058   0.629E+00    0.774E+01
RMM:   9    -0.233677398132E+04    0.68385E+01   -0.29184E+01 30413   0.876E+00    0.701E+01
RMM:  10    -0.232778748482E+04    0.89865E+01   -0.14749E+01 27850   0.760E+00    0.553E+01
RMM:  11    -0.232051543328E+04    0.72721E+01   -0.60084E+00 27793   0.572E+00    0.448E+01
RMM:  12    -0.231959886300E+04    0.91657E+00   -0.34215E+00 28855   0.379E+00    0.446E+01
RMM:  13    -0.231948661580E+04    0.11225E+00   -0.28954E+00 29676   0.301E+00    0.412E+01
RMM:  14    -0.231502315504E+04    0.44635E+01   -0.23346E+00 29895   0.262E+00    0.320E+01
RMM:  15    -0.231334581941E+04    0.16773E+01   -0.21793E+00 35206   0.180E+00    0.266E+01
RMM:  16    -0.231183064490E+04    0.15152E+01   -0.79323E-01 30023   0.150E+00    0.215E+01
RMM:  17    -0.231191978492E+04   -0.89140E-01   -0.79193E-01 34263   0.115E+00    0.212E+01
RMM:  18    -0.231221642700E+04   -0.29664E+00   -0.63020E-01 34025   0.103E+00    0.227E+01
RMM:  19    -0.231244138552E+04   -0.22496E+00   -0.42767E-01 39671   0.609E-01    0.234E+01
RMM:  20    -0.231270897690E+04   -0.26759E+00   -0.19433E-01 32624   0.607E-01    0.246E+01
RMM:  21    -0.231283048124E+04   -0.12150E+00   -0.17258E-01 43355   0.266E-01    0.250E+01
RMM:  22    -0.231282696071E+04    0.35205E-02   -0.35083E-02 38463   0.149E-01    0.250E+01
RMM:  23    -0.231270776113E+04    0.11920E+00   -0.10583E-01 28051   0.657E-01    0.246E+01
RMM:  24    -0.231201156415E+04    0.69620E+00   -0.56152E-01 28499   0.137E+00    0.217E+01
RMM:  25    -0.231099941970E+04    0.10121E+01   -0.40732E-01 28626   0.123E+00    0.163E+01
RMM:  26    -0.231057352733E+04    0.42589E+00   -0.30577E-01 30026   0.976E-01    0.137E+01
RMM:  27    -0.231043412152E+04    0.13941E+00   -0.27916E-01 30979   0.859E-01    0.126E+01
RMM:  28    -0.231027862830E+04    0.15549E+00   -0.21554E-01 32261   0.711E-01    0.113E+01
RMM:  29    -0.231027238982E+04    0.62385E-02   -0.13914E-01 31319   0.597E-01    0.114E+01
RMM:  30    -0.231029054211E+04   -0.18152E-01   -0.13892E-01 41624   0.321E-01    0.115E+01
RMM:  31    -0.231039345247E+04   -0.10291E+00   -0.42177E-02 28530   0.413E-01    0.124E+01
RMM:  32    -0.231049124579E+04   -0.97793E-01   -0.46450E-02 27963   0.461E-01    0.132E+01
RMM:  33    -0.231045438928E+04    0.36857E-01   -0.61917E-02 28229   0.494E-01    0.129E+01
RMM:  34    -0.231028595257E+04    0.16844E+00   -0.88894E-02 29002   0.557E-01    0.114E+01
RMM:  35    -0.231015265399E+04    0.13330E+00   -0.69053E-02 31783   0.398E-01    0.100E+01
RMM:  36    -0.231010120479E+04    0.51449E-01   -0.57102E-02 40495   0.245E-01    0.946E+00
RMM:  37    -0.230999069384E+04    0.11051E+00   -0.25503E-02 33951   0.205E-01    0.822E+00
RMM:  38    -0.230991460425E+04    0.76090E-01   -0.22460E-02 28534   0.297E-01    0.723E+00
RMM:  39    -0.230985113896E+04    0.63465E-01   -0.45955E-02 38846   0.247E-01    0.632E+00
RMM:  40    -0.230977822267E+04    0.72916E-01   -0.33041E-02 28933   0.339E-01    0.525E+00
RMM:  41    -0.230975081603E+04    0.27407E-01   -0.50218E-02 36511   0.269E-01    0.470E+00
RMM:  42    -0.230974646029E+04    0.43557E-02   -0.32880E-02 36496   0.230E-01    0.454E+00
RMM:  43    -0.230971369376E+04    0.32767E-01   -0.18687E-02 33769   0.184E-01    0.377E+00
RMM:  44    -0.230970320431E+04    0.10489E-01   -0.16650E-02 36249   0.160E-01    0.347E+00
RMM:  45    -0.230965904508E+04    0.44159E-01   -0.19747E-02 38591   0.160E-01    0.188E+00
RMM:  46    -0.230964568918E+04    0.13356E-01   -0.11352E-02 32088   0.157E-01    0.109E+00
RMM:  47    -0.230964670626E+04   -0.10171E-02   -0.26971E-02 40807   0.156E-01    0.109E+00
RMM:  48    -0.230964730393E+04   -0.59767E-03   -0.97328E-03 37496   0.111E-01    0.106E+00
RMM:  49    -0.230964472452E+04    0.25794E-02   -0.43211E-03 33263   0.848E-02    0.773E-01
RMM:  50    -0.230964401084E+04    0.71368E-03   -0.39507E-03 37321   0.724E-02    0.676E-01
RMM:  51    -0.230964225957E+04    0.17513E-02   -0.95168E-04 29145   0.597E-02    0.364E-01
RMM:  52    -0.230964257199E+04   -0.31242E-03   -0.84444E-04 30719   0.493E-02    0.444E-01
RMM:  53    -0.230964202383E+04    0.54816E-03   -0.74198E-04 37409   0.340E-02    0.285E-01
RMM:  54    -0.230964179309E+04    0.23074E-03   -0.26416E-04 29906   0.295E-02    0.200E-01
RMM:  55    -0.230964179958E+04   -0.64866E-05   -0.38738E-04 32782   0.297E-02    0.194E-01
RMM:  56    -0.230964173003E+04    0.69552E-04   -0.19557E-04 29580   0.261E-02    0.133E-01
RMM:  57    -0.230964178173E+04   -0.51702E-04   -0.27154E-04 31029   0.270E-02    0.153E-01
RMM:  58    -0.230964175594E+04    0.25792E-04   -0.99959E-05 29975   0.181E-02    0.138E-01
RMM:  59    -0.230964174793E+04    0.80017E-05   -0.70734E-05 30477   0.144E-02    0.121E-01
RMM:  60    -0.230964171003E+04    0.37908E-04   -0.48852E-05 32102   0.100E-02    0.727E-02
RMM:  61    -0.230964170808E+04    0.19460E-05   -0.40268E-05 35709   0.657E-03    0.593E-02
RMM:  62    -0.230964171560E+04   -0.75186E-05   -0.60949E-05 31384   0.121E-02    0.581E-02
RMM:  63    -0.230964171036E+04    0.52344E-05   -0.33399E-05 30748   0.941E-03    0.445E-02
RMM:  64    -0.230964171474E+04   -0.43714E-05   -0.18346E-05 29900   0.694E-03    0.469E-02
RMM:  65    -0.230964171754E+04   -0.28091E-05   -0.14448E-05 28098   0.573E-03    0.489E-02
RMM:  66    -0.230964171164E+04    0.59046E-05   -0.87430E-06 23403   0.457E-03    0.276E-02
RMM:  67    -0.230964171427E+04   -0.26300E-05   -0.56157E-06 21112   0.459E-03    0.264E-02
RMM:  68    -0.230964171356E+04    0.70958E-06   -0.30614E-06 17718   0.341E-03
   3 F= -.23096417E+04 E0= -.23068177E+04  d E =0.687570E+03
 curvature:  -0.40 expect dE=-0.209E+01 dE for cont linesearch -0.175E+01
 ZBRENT: interpolating
 opt :   0.6520  next Energy= -2311.084324 (dE= 0.686E+03)
 bond charge predicted
       N       E                     dE             d eps       ncg     rms          rms(c)
DAV:   1    -0.231190771839E+04   -0.22660E+01   -0.33854E+02 27776   0.192E+01    0.527E+00
RMM:   2    -0.234882584093E+04   -0.36918E+02   -0.18356E+01 28810   0.875E+00    0.792E+01
RMM:   3    -0.236560843778E+04   -0.16783E+02   -0.13842E+01 36854   0.475E+00    0.988E+01
RMM:   4    -0.232908025849E+04    0.36528E+02   -0.52984E+00 27720   0.501E+00    0.541E+01
RMM:   5    -0.232976946758E+04   -0.68921E+00   -0.30000E+00 35035   0.242E+00    0.559E+01
RMM:   6    -0.231541779893E+04    0.14352E+02   -0.15117E+00 28603   0.225E+00    0.234E+01
RMM:   7    -0.231977124841E+04   -0.43534E+01   -0.51430E+00 30629   0.351E+00    0.367E+01
RMM:   8    -0.231517897226E+04    0.45923E+01   -0.25742E+00 28375   0.306E+00    0.225E+01
RMM:   9    -0.231282789217E+04    0.23511E+01   -0.99483E-01 27722   0.239E+00    0.991E+00
RMM:  10    -0.231263562257E+04    0.19227E+00   -0.51580E-01 28530   0.135E+00    0.847E+00
RMM:  11    -0.231268822363E+04   -0.52601E-01   -0.86089E-01 31363   0.138E+00    0.925E+00
RMM:  12    -0.231238703068E+04    0.30119E+00   -0.25042E-01 27742   0.106E+00    0.500E+00
RMM:  13    -0.231237520685E+04    0.11824E-01   -0.20696E-01 32381   0.622E-01    0.468E+00
RMM:  14    -0.231238209636E+04   -0.68895E-02   -0.15226E-01 32790   0.548E-01    0.466E+00
RMM:  15    -0.231234313068E+04    0.38966E-01   -0.94771E-02 29227   0.552E-01    0.342E+00
RMM:  16    -0.231231619888E+04    0.26932E-01   -0.46743E-02 28293   0.460E-01    0.262E+00
RMM:  17    -0.231230467360E+04    0.11525E-01   -0.40360E-02 30213   0.343E-01    0.227E+00
RMM:  18    -0.231231415272E+04   -0.94791E-02   -0.44350E-02 33219   0.292E-01    0.268E+00
RMM:  19    -0.231231029278E+04    0.38599E-02   -0.14937E-02 28495   0.249E-01    0.249E+00
RMM:  20    -0.231230653402E+04    0.37588E-02   -0.13983E-02 29757   0.210E-01    0.234E+00
RMM:  21    -0.231229050186E+04    0.16032E-01   -0.19074E-02 33576   0.195E-01    0.148E+00
RMM:  22    -0.231228086196E+04    0.96399E-02   -0.57041E-03 28284   0.161E-01    0.652E-01
RMM:  23    -0.231227966719E+04    0.11948E-02   -0.50513E-03 34773   0.904E-02    0.396E-01
RMM:  24    -0.231227986045E+04   -0.19327E-03   -0.32887E-03 33236   0.806E-02    0.419E-01
RMM:  25    -0.231228006761E+04   -0.20716E-03   -0.13742E-03 30026   0.651E-02    0.455E-01
RMM:  26    -0.231228005707E+04    0.10545E-04   -0.98501E-04 30674   0.535E-02    0.446E-01
RMM:  27    -0.231227998982E+04    0.67243E-04   -0.12736E-03 33508   0.500E-02    0.421E-01
RMM:  28    -0.231227976287E+04    0.22696E-03   -0.91223E-04 32201   0.460E-02    0.363E-01
RMM:  29    -0.231227955052E+04    0.21235E-03   -0.58033E-04 32313   0.354E-02    0.292E-01
RMM:  30    -0.231227949530E+04    0.55219E-04   -0.54802E-04 41511   0.205E-02    0.256E-01
RMM:  31    -0.231227931418E+04    0.18112E-03   -0.14915E-04 33494   0.150E-02    0.159E-01
RMM:  32    -0.231227925704E+04    0.57145E-04   -0.81106E-05 32900   0.115E-02    0.111E-01
RMM:  33    -0.231227924237E+04    0.14664E-04   -0.68069E-05 34338   0.106E-02    0.944E-02
RMM:  34    -0.231227922847E+04    0.13910E-04   -0.52290E-05 31238   0.118E-02    0.793E-02
RMM:  35    -0.231227920888E+04    0.19588E-04   -0.26657E-05 28778   0.105E-02    0.472E-02
RMM:  36    -0.231227920779E+04    0.10844E-05   -0.37738E-05 36727   0.640E-03    0.375E-02
RMM:  37    -0.231227920781E+04   -0.18597E-07   -0.22820E-05 33063   0.650E-03    0.327E-02
RMM:  38    -0.231227920422E+04    0.35911E-05   -0.90194E-06 26375   0.532E-03    0.166E-02
RMM:  39    -0.231227920458E+04   -0.36100E-06   -0.57466E-06 21892   0.297E-03
   4 F= -.23122792E+04 E0= -.23094659E+04  d E =0.684933E+03
 curvature:  -0.33 expect dE=-0.118E+01 dE for cont linesearch -0.991E+00
 ZBRENT: bisectioning
 opt :   0.3260  next Energy= -2316.539989 (dE= 0.681E+03)
 bond charge predicted
       N       E                     dE             d eps       ncg     rms          rms(c)
DAV:   1    -0.231323049249E+04   -0.95129E+00   -0.18849E+03 27790   0.465E+01    0.136E+01
RMM:   2    -0.249623046302E+04   -0.18300E+03   -0.17717E+02 29544   0.263E+01    0.158E+02
RMM:   3    -0.268200160583E+04   -0.18577E+03   -0.17990E+02 40106   0.153E+01    0.181E+02
RMM:   4    -0.247475136963E+04    0.20725E+03   -0.35491E+01 27747   0.129E+01    0.158E+02
RMM:   5    -0.234067539152E+04    0.13408E+03   -0.15497E+01 35873   0.552E+00    0.650E+01
RMM:   6    -0.232632546426E+04    0.14350E+02   -0.12066E+01 27907   0.685E+00    0.428E+01
RMM:   7    -0.235859465013E+04   -0.32269E+02   -0.31724E+01 35478   0.695E+00    0.816E+01
RMM:   8    -0.235717843171E+04    0.14162E+01   -0.20390E+01 32751   0.610E+00    0.864E+01
RMM:   9    -0.232306448031E+04    0.34114E+02   -0.48797E+00 27733   0.471E+00    0.353E+01
RMM:  10    -0.232315707801E+04   -0.92598E-01   -0.43602E+00 28555   0.385E+00    0.356E+01
RMM:  11    -0.231876538103E+04    0.43917E+01   -0.39375E+00 29316   0.344E+00    0.207E+01
RMM:  12    -0.231742220096E+04    0.13432E+01   -0.19580E+00 28650   0.258E+00    0.135E+01
RMM:  13    -0.231727469763E+04    0.14750E+00   -0.20686E+00 33440   0.191E+00    0.126E+01
RMM:  14    -0.231732076185E+04   -0.46064E-01   -0.11174E+00 33739   0.141E+00    0.124E+01
RMM:  15    -0.231715865602E+04    0.16211E+00   -0.65454E-01 32002   0.117E+00    0.108E+01
RMM:  16    -0.231686310636E+04    0.29555E+00   -0.41960E-01 32301   0.953E-01    0.772E+00
RMM:  17    -0.231672934181E+04    0.13376E+00   -0.20348E-01 29540   0.848E-01    0.610E+00
RMM:  18    -0.231669661540E+04    0.32726E-01   -0.20012E-01 29073   0.832E-01    0.549E+00
RMM:  19    -0.231666270609E+04    0.33909E-01   -0.17145E-01 29981   0.712E-01    0.486E+00
RMM:  20    -0.231665635130E+04    0.63548E-02   -0.11049E-01 28554   0.693E-01    0.474E+00
RMM:  21    -0.231661763615E+04    0.38715E-01   -0.78399E-02 30405   0.481E-01    0.403E+00
RMM:  22    -0.231658212788E+04    0.35508E-01   -0.68064E-02 34404   0.341E-01    0.301E+00
RMM:  23    -0.231656626394E+04    0.15864E-01   -0.24289E-02 30416   0.268E-01    0.249E+00
RMM:  24    -0.231656324927E+04    0.30147E-02   -0.27402E-02 33609   0.226E-01    0.233E+00
RMM:  25    -0.231655199372E+04    0.11256E-01   -0.15273E-02 29715   0.219E-01    0.180E+00
RMM:  26    -0.231654666346E+04    0.53303E-02   -0.10546E-02 29579   0.192E-01    0.142E+00
RMM:  27    -0.231654558750E+04    0.10760E-02   -0.10375E-02 31056   0.165E-01    0.133E+00
RMM:  28    -0.231654897984E+04   -0.33923E-02   -0.48010E-03 29935   0.121E-01    0.153E+00
RMM:  29    -0.231654829231E+04    0.68753E-03   -0.36786E-03 37330   0.621E-02    0.147E+00
RMM:  30    -0.231654903383E+04   -0.74152E-03   -0.15720E-03 39488   0.378E-02    0.152E+00
RMM:  31    -0.231654945881E+04   -0.42498E-03   -0.98048E-04 30348   0.536E-02    0.153E+00
RMM:  32    -0.231654610181E+04    0.33570E-02   -0.11881E-03 28820   0.710E-02    0.131E+00
RMM:  33    -0.231654168897E+04    0.44128E-02   -0.19566E-03 28556   0.888E-02    0.946E-01
RMM:  34    -0.231653847759E+04    0.32114E-02   -0.12774E-03 28493   0.717E-02    0.543E-01
RMM:  35    -0.231653795049E+04    0.52710E-03   -0.10119E-03 32130   0.444E-02    0.443E-01
RMM:  36    -0.231653782205E+04    0.12844E-03   -0.61401E-04 38842   0.262E-02    0.409E-01
RMM:  37    -0.231653775869E+04    0.63365E-04   -0.25721E-04 35606   0.193E-02    0.385E-01
RMM:  38    -0.231653755871E+04    0.19998E-03   -0.21225E-04 32207   0.213E-02    0.329E-01
RMM:  39    -0.231653722707E+04    0.33163E-03   -0.21206E-04 30531   0.244E-02    0.207E-01
RMM:  40    -0.231653716743E+04    0.59644E-04   -0.24358E-04 37188   0.183E-02    0.166E-01
RMM:  41    -0.231653714772E+04    0.19707E-04   -0.18198E-04 32211   0.198E-02    0.141E-01
RMM:  42    -0.231653709481E+04    0.52917E-04   -0.15344E-04 33625   0.169E-02    0.859E-02
RMM:  43    -0.231653709878E+04   -0.39732E-05   -0.11888E-04 40047   0.106E-02    0.786E-02
RMM:  44    -0.231653710142E+04   -0.26384E-05   -0.60814E-05 35459   0.950E-03    0.771E-02
RMM:  45    -0.231653709418E+04    0.72357E-05   -0.22605E-05 30110   0.813E-03    0.661E-02
RMM:  46    -0.231653709189E+04    0.22909E-05   -0.22227E-05 32269   0.508E-03    0.597E-02
RMM:  47    -0.231653708917E+04    0.27216E-05   -0.16172E-05 30559   0.653E-03    0.505E-02
RMM:  48    -0.231653708508E+04    0.40899E-05   -0.70741E-06 24242   0.483E-03    0.412E-02
RMM:  49    -0.231653708309E+04    0.19853E-05   -0.46896E-06 20549   0.345E-03    0.360E-02
RMM:  50    -0.231653707996E+04    0.31307E-05   -0.46985E-06 21236   0.422E-03    0.257E-02
RMM:  51    -0.231653707972E+04    0.24002E-06   -0.29367E-06 18559   0.297E-03
   5 F= -.23165371E+04 E0= -.23137480E+04  d E =0.680675E+03
 curvature:  -1.40 expect dE=-0.151E+01 dE for cont linesearch -0.111E+01
 ZBRENT: bisectioning
 opt :   0.1630  next Energy= -2317.626925 (dE= 0.680E+03)
