unknown system                          
           1
     9.726678    0.000000    0.000000
     0.000000    8.423550    0.000000
     0.000000    0.000000   45.000000
   Fe   Mn
 281   7
Direct configuration=     1
   0.06097537  0.03126777  0.12440023
   0.06330167  0.87167209  0.52124349
   0.19381369  0.12342226  0.78846978
   0.43365709  0.28755846  0.38907364
   0.30847408  0.71269300  0.83316128
   0.80841377  0.21268123  0.83315018
   0.18359587  0.78754969  0.38906363
   0.56282855  0.20750201  0.56535938
   0.06009571  0.04106653  0.74405162
   0.81331589  0.87177169  0.52133206
   0.18511581  0.29077910  0.74407127
   0.94126019  0.45207202  0.34493454
   0.93371385  0.28748806  0.38902597
   0.81359047  0.04190310  0.87557870
   0.18822121  0.79131065  0.61072632
   0.55860244  0.03737911  0.38905282
   0.93348791  0.96267475  0.83314017
   0.31361299  0.54200192  0.87559313
   0.68530106  0.29128435  0.74415670
   0.19231371  0.61301419  0.16674713
   0.81286375  0.20575034  0.47861325
   0.81274732  0.54160782  0.61088530
   0.31317004  0.87083400  0.43434610
   0.81562027  0.03570677  0.25600551
   0.69131855  0.95222805  0.34498012
   0.94255557  0.11226630  0.16672518
   0.93849612  0.12184796  0.52127586
   0.56608998  0.53674144  0.25593372
   0.68897010  0.79387292  0.87564788
   0.56773115  0.36280006  0.16667647
   0.43516025  0.79088563  0.74405735
   0.81331297  0.70794416  0.56532085
   0.56880476  0.87335271  0.78843141
   0.68855693  0.12186762  0.52126732
   0.19115386  0.28736703  0.25586532
   0.93348765  0.46269937  0.83314697
   0.06444122  0.20771765  0.69965663
   0.43964500  0.95762838  0.69967689
   0.30844365  0.21267858  0.83316102
   0.43385551  0.62572135  0.65490172
   0.31331798  0.54109998  0.61068337
   0.93872928  0.45750550  0.56539843
   0.68518288  0.79111309  0.74408617
   0.30864142  0.87514125  0.65490748
   0.68363098  0.78748971  0.38905690
   0.93527891  0.79102265  0.74411382
   0.06608480  0.20164069  0.34493054
   0.80869541  0.03743004  0.38904964
   0.44392601  0.12322303  0.78845188
   0.05856743  0.20522430  0.21189107
   0.06800957  0.36363675  0.16691460
   0.94115628  0.78705207  0.25620343
   0.56453944  0.20769958  0.69963944
   0.68960026  0.95795116  0.69963910
   0.68358450  0.28750364  0.38908635
   0.43873778  0.95738450  0.56547936
   0.81874629  0.37327601  0.78841880
   0.69084942  0.28685811  0.25600431
   0.18871651  0.45759972  0.56542483
   0.06687268  0.86313286  0.16688303
   0.18862791  0.29068794  0.61072735
   0.56630136  0.70220350  0.34497797
   0.31467312  0.20798178  0.69964968
   0.56350477  0.54194810  0.87557932
   0.06363368  0.70711220  0.56546587
   0.69415559  0.62331103  0.78844408
   0.30857785  0.53755182  0.38905025
   0.18815081  0.62168426  0.52133364
   0.56279469  0.87070230  0.43437863
   0.43832087  0.45781873  0.56532755
   0.43523736  0.29089798  0.74410063
   0.80455133  0.87294067  0.30029596
   0.81645177  0.70211795  0.34499739
   0.43346436  0.46267073  0.83313171
   0.68778629  0.95575229  0.47861394
   0.68973311  0.45776427  0.69966448
   0.56313754  0.87220218  0.52133431
   0.55873809  0.37526108  0.65491946
   0.80853331  0.87507939  0.65484111
   0.81259455  0.37025097  0.43445423
   0.81535726  0.53681534  0.25606662
   0.68345622  0.46273175  0.83314711
   0.18917214  0.78445801  0.12474711
   0.06353496  0.04196194  0.87557818
   0.30872700  0.37514306  0.65493687
   0.31623281  0.20190551  0.34491570
   0.81002779  0.54110192  0.74403797
   0.68348573  0.96269934  0.83313775
   0.55852751  0.87514343  0.65490141
   0.31307498  0.70741037  0.56548994
   0.31187085  0.53074249  0.12440510
   0.68301732  0.95523004  0.21205000
   0.31388063  0.20715516  0.56549965
   0.31007748  0.54111926  0.74406973
   0.68836116  0.95777119  0.56537167
   0.43832413  0.79075624  0.61063892
   0.69282679  0.61386337  0.16686773
   0.30450592  0.87305785  0.30031970
   0.31224888  0.70565574  0.47863667
   0.93831620  0.29111472  0.61065349
   0.42941453  0.62304980  0.30038458
   0.81813467  0.86356829  0.16670449
   0.55846286  0.20461306  0.21192599
   0.94283579  0.61380262  0.16694055
   0.93907590  0.79386006  0.87563841
   0.56885094  0.37306700  0.78843888
   0.06343546  0.37199670  0.52130451
   0.56343695  0.37183077  0.52128748
   0.67935768  0.12331205  0.30028783
   0.43344557  0.96266800  0.83315153
   0.19025823  0.28753416  0.12454360
   0.81888206  0.87321964  0.78842076
   0.31199318  0.37092609  0.43428022
   0.93782114  0.79173629  0.61080492
   0.43813630  0.29052085  0.61073126
   0.19136929  0.45169288  0.34496704
   0.44045882  0.28746028  0.12460116
   0.69103038  0.78660340  0.25606409
   0.18955181  0.95787933  0.69962227
   0.18897263  0.29389061  0.87565111
   0.18356357  0.12502760  0.65484166
   0.93338782  0.12535822  0.65484988
   0.30671241  0.20513776  0.21205343
   0.05864161  0.03745321  0.38905954
   0.19279993  0.11390274  0.16741555
   0.06265154  0.54172945  0.61087023
   0.94103553  0.28686452  0.25586483
   0.56316166  0.54120977  0.61079081
   0.93848132  0.95757057  0.56540378
   0.67942366  0.62309241  0.30020165
   0.93774137  0.62039076  0.43443654
   0.94404180  0.62339132  0.78842600
   0.56420039  0.70778571  0.69969105
   0.05845285  0.71267234  0.83315222
   0.92934920  0.12304306  0.30036809
   0.93974357  0.45790113  0.69963330
   0.44059656  0.78687390  0.25611614
   0.31876347  0.37321359  0.78842185
   0.43314572  0.45412411  0.21216862
   0.18829581  0.12194267  0.52124008
   0.81434622  0.70744327  0.69965030
   0.06349336  0.04094142  0.61071515
   0.55838154  0.21270543  0.83315540
   0.31370641  0.87218944  0.52129987
   0.69044921  0.28749569  0.12458080
   0.18285635  0.95500973  0.21205023
   0.68842520  0.29133461  0.61067636
   0.31342197  0.04087121  0.61073366
   0.94386924  0.12332704  0.78844599
   0.43896998  0.79393395  0.87564534
   0.81019671  0.04108479  0.74409863
   0.43829643  0.12181767  0.52129694
   0.18373706  0.62538692  0.65495816
   0.31435341  0.70776840  0.69965790
   0.93944579  0.28650437  0.12468284
   0.43783415  0.45557143  0.47867230
   0.06310698  0.70545605  0.47860578
   0.93815732  0.12036827  0.43443819
   0.42948327  0.12282801  0.30044007
   0.18798156  0.12024006  0.43449676
   0.56354756  0.04197297  0.87557536
   0.18842357  0.95694355  0.56521171
   0.69113170  0.78414155  0.12471862
   0.56328551  0.53122608  0.12440780
   0.30862221  0.03736656  0.38908002
   0.69177403  0.11198237  0.16698408
   0.80789557  0.20533883  0.21204088
   0.06583773  0.53639131  0.25614936
   0.56286748  0.70582664  0.47863919
   0.06360113  0.20767836  0.56545219
   0.55430271  0.37287823  0.30041392
   0.44142819  0.95209025  0.34496909
   0.18348947  0.96264810  0.83314956
   0.44263228  0.61206756  0.16674985
   0.93340295  0.45459775  0.21192286
   0.06309605  0.53142255  0.12443356
   0.81327632  0.37190407  0.52132128
   0.92933110  0.62279031  0.30037337
   0.31570579  0.03603761  0.25595612
   0.68821950  0.79143049  0.61073587
   0.18348571  0.46270689  0.83314699
   0.44239800  0.11138032  0.16667895
   0.31327979  0.37195040  0.52135168
   0.44394798  0.62331224  0.78842246
   0.06593215  0.03644540  0.25589282
   0.56362568  0.70762919  0.56536544
   0.93523205  0.29123413  0.74412171
   0.69370007  0.12331425  0.78848896
   0.18291777  0.45412398  0.21200236
   0.93364237  0.78742052  0.38903527
   0.68907510  0.29390290  0.87565152
   0.31966540  0.86451164  0.16678926
   0.43953009  0.45760296  0.69959999
   0.94128276  0.95236577  0.34501935
   0.68846654  0.62186855  0.52129382
   0.05882632  0.87524658  0.65492099
   0.06886688  0.87331640  0.78842971
   0.05861740  0.37525071  0.65487305
   0.68770979  0.45582877  0.47864180
   0.19134435  0.78653768  0.25623315
   0.43758171  0.12023347  0.43445694
   0.81508587  0.03216283  0.12455674
   0.93833666  0.62170764  0.52129356
   0.06276594  0.87040763  0.43446663
   0.81208618  0.53181809  0.12429979
   0.44132548  0.45198227  0.34496892
   0.81624183  0.20187575  0.34494714
   0.31646560  0.70193250  0.34497021
   0.68381167  0.12562430  0.65493285
   0.55432161  0.87274427  0.30041794
   0.06021377  0.54105544  0.74409929
   0.93375767  0.95450849  0.21194639
   0.80865208  0.70463234  0.21178770
   0.05439829  0.87303531  0.30028824
   0.17927846  0.12337023  0.30028510
   0.06629760  0.70218707  0.34493986
   0.81325493  0.04133307  0.61073065
   0.06305419  0.37066804  0.43441086
   0.56613861  0.20187121  0.34493901
   0.80421661  0.37308243  0.30037679
   0.43788142  0.95587249  0.47861386
   0.55862648  0.53747735  0.38907324
   0.06271928  0.20582732  0.47859477
   0.31871521  0.87321549  0.78845222
   0.93955768  0.95794157  0.69964778
   0.05440576  0.37281206  0.30043401
   0.68371543  0.62491407  0.65492248
   0.68819819  0.45781981  0.56539442
   0.43365362  0.95426668  0.21186699
   0.31278348  0.20586242  0.47860368
   0.43351371  0.12501743  0.65484392
   0.68809407  0.62032949  0.43441212
   0.81455043  0.20784818  0.69957581
   0.81277868  0.70577775  0.47861501
   0.81291238  0.87047340  0.43446663
   0.93769145  0.95583075  0.47859346
   0.56276769  0.20570384  0.47856611
   0.18804815  0.62072221  0.43432871
   0.31010999  0.04119434  0.74407153
   0.93351150  0.62500193  0.65487052
   0.55849079  0.71269866  0.83315948
   0.30422436  0.37293265  0.30040669
   0.55694975  0.70366533  0.21193843
   0.18787774  0.45586128  0.47862227
   0.31362877  0.04204265  0.87559633
   0.18968987  0.45778875  0.69956977
   0.81344443  0.54200487  0.87556927
   0.18364428  0.28783925  0.38905704
   0.43784908  0.62061016  0.43453067
   0.05728279  0.70558796  0.21171244
   0.56341698  0.37015816  0.43423630
   0.81846234  0.36282931  0.16724559
   0.80842971  0.71277414  0.83315461
   0.06875328  0.37317693  0.78843325
   0.43901646  0.29385629  0.87564157
   0.31301217  0.03223166  0.12476940
   0.68775956  0.12045620  0.43445651
   0.19130961  0.95188691  0.34500014
   0.05844676  0.21275530  0.83314866
   0.56312432  0.04091429  0.61069315
   0.68344424  0.45407500  0.21188736
   0.18507534  0.79079851  0.74403284
   0.17930413  0.62320609  0.30027523
   0.43377768  0.78738735  0.38902071
   0.44110319  0.28709978  0.25596616
   0.06356610  0.54184811  0.87558147
   0.56013578  0.04106975  0.74405182
   0.18910055  0.79394099  0.87563952
   0.93768778  0.45572201  0.47863568
   0.80855779  0.53754684  0.38907979
   0.81371598  0.20763266  0.56541816
   0.19405220  0.62333360  0.78842368
   0.05862946  0.53756162  0.38908236
   0.06449343  0.70786117  0.69964715
   0.31532511  0.53655225  0.25599660
   0.30882293  0.70430507  0.21182067
   0.56760471  0.86326722  0.16664340
   0.55997349  0.54108784  0.74406336
   0.69133061  0.45193275  0.34497283
   0.93897478  0.29386974  0.87563974
   0.56592489  0.03678634  0.25588768
   0.43880629  0.78732144  0.12468692
   0.31901645  0.36336377  0.16651119
   0.43823089  0.62171623  0.52127892
   0.56214136  0.03125256  0.12491399
   0.93874699  0.78746942  0.12442432
   0.80817644  0.37515779  0.65461199
   0.18792789  0.95586879  0.47857412
Direct configuration=     2
   0.06387266  0.03361666  0.12539571
   0.06547664  0.86825526  0.52249563
   0.19103183  0.12158940  0.78533535
   0.43083903  0.28951411  0.39062998
   0.31317730  0.71376239  0.83155185
   0.80653507  0.21486965  0.82961629
   0.18087288  0.78487242  0.38970015
   0.56265100  0.20858604  0.56539727
   0.05255244  0.03569358  0.74078200
   0.81216430  0.86830670  0.52310594
   0.18150336  0.29023079  0.74152173
   0.94164925  0.45478041  0.34486724
   0.93598867  0.28959728  0.38921034
   0.81086818  0.04513458  0.87984898
   0.18879102  0.78924733  0.61107691
   0.55966758  0.03528493  0.39086196
   0.93177461  0.96231615  0.82988788
   0.31623561  0.54693835  0.87983407
   0.69079551  0.28809158  0.74546718
   0.19425757  0.61473381  0.16595153
   0.80746990  0.21132785  0.47896369
   0.81238116  0.54234347  0.60957996
   0.30881171  0.86778874  0.43439475
   0.81386696  0.03401894  0.25719087
   0.69474257  0.94951970  0.34421443
   0.94359395  0.11422595  0.16641441
   0.93579208  0.12302227  0.52291590
   0.56495871  0.53846473  0.25724222
   0.68493001  0.79169427  0.87894775
   0.57013320  0.36499902  0.16667443
   0.43423941  0.78783267  0.74286755
   0.81555447  0.70615592  0.56370510
   0.57163000  0.87359740  0.78562474
   0.68785703  0.12547758  0.52247288
   0.19181019  0.28535553  0.25781604
   0.93056026  0.46162514  0.83029461
   0.06438148  0.20414199  0.70104326
   0.43419608  0.95583859  0.70046269
   0.31150571  0.21321307  0.83088807
   0.42787297  0.62905465  0.65394664
   0.31443584  0.54276520  0.61035157
   0.94020601  0.46274976  0.56369636
   0.69705227  0.79208513  0.74203155
   0.29966356  0.86971778  0.65494954
   0.68786556  0.78683963  0.38973683
   0.93414165  0.79130034  0.74023125
   0.06219928  0.20164487  0.34473966
   0.81281988  0.03482160  0.38938637
   0.44923911  0.12693943  0.78555904
   0.05794791  0.19950323  0.21168164
   0.06660817  0.35816064  0.16598498
   0.93965331  0.78684220  0.25748005
   0.56477217  0.19914800  0.70123876
   0.69928394  0.95437313  0.70267792
   0.68673349  0.28788029  0.39104446
   0.44002317  0.95695247  0.56536638
   0.81162332  0.37023654  0.78512338
   0.68713199  0.28693209  0.25708984
   0.18705830  0.45948957  0.56416993
   0.06740455  0.86673494  0.16649628
   0.19580479  0.29292519  0.61031485
   0.56726778  0.70255070  0.34363893
   0.30443770  0.20330910  0.70003816
   0.56366401  0.54539022  0.87929010
   0.06385187  0.70498845  0.56474667
   0.69391689  0.61719272  0.78508944
   0.30484835  0.53850287  0.38982908
   0.18969901  0.62014957  0.52189281
   0.56270877  0.86876168  0.43431784
   0.44026423  0.45681257  0.56476683
   0.43697835  0.29153875  0.74380718
   0.80609233  0.86968759  0.30098227
   0.81904024  0.70280283  0.34440962
   0.43726524  0.46363866  0.83003717
   0.68655441  0.95575095  0.47907757
   0.70088441  0.45800887  0.70111375
   0.56321421  0.86955020  0.52270618
   0.55544004  0.37679600  0.65196857
   0.81531024  0.87191362  0.65712815
   0.81283882  0.37094717  0.43508662
   0.81285191  0.54024114  0.25746385
   0.68388889  0.46122643  0.82967011
   0.19139296  0.78681812  0.12542134
   0.06364145  0.04272501  0.88003804
   0.30710203  0.37439346  0.65484224
   0.31426992  0.20229056  0.34488454
   0.81700959  0.54734073  0.74320667
   0.68521834  0.96360908  0.83024923
   0.55127837  0.87652352  0.65469391
   0.31334113  0.70813673  0.56456131
   0.31426216  0.53321450  0.12533802
   0.68303807  0.95229605  0.21193970
   0.31609483  0.20830353  0.56501628
   0.30959239  0.54463579  0.74222865
   0.68606969  0.95969326  0.56403735
   0.43439007  0.79291743  0.60992804
   0.68522388  0.61050564  0.16711267
   0.30519194  0.86950481  0.30015521
   0.31043592  0.69932970  0.47928001
   0.93609486  0.29838035  0.60948831
   0.43032904  0.62358066  0.30048346
   0.81478655  0.86463527  0.16687688
   0.55920983  0.20414715  0.21088206
   0.94004587  0.61333658  0.16649455
   0.93773727  0.79166942  0.87943487
   0.57466633  0.37442462  0.78533054
   0.06570960  0.37746628  0.52267337
   0.56212584  0.37457888  0.52164428
   0.67972073  0.12215174  0.30019733
   0.43523259  0.96024968  0.83132411
   0.19037811  0.28246747  0.12548306
   0.81856524  0.87682522  0.78471332
   0.31162694  0.37314834  0.43525642
   0.94615630  0.78484868  0.60990953
   0.44452259  0.29022735  0.60934290
   0.18770890  0.45524748  0.34489093
   0.44484556  0.28437406  0.12585759
   0.68923262  0.78529566  0.25676778
   0.18156416  0.95239408  0.69937696
   0.18861999  0.29222888  0.88017485
   0.18626497  0.11994116  0.65630080
   0.93930121  0.12160727  0.65781329
   0.31102094  0.20102301  0.21212883
   0.05755029  0.03507043  0.38944420
   0.19295226  0.11288847  0.16614554
   0.06537599  0.55152740  0.61025712
   0.94087705  0.28602713  0.25776413
   0.55851887  0.53471080  0.60923910
   0.93899680  0.95510324  0.56396732
   0.67947591  0.62429788  0.30045722
   0.93877562  0.62070980  0.43425355
   0.93462594  0.62361453  0.78522967
   0.56449004  0.71760521  0.70146364
   0.05707340  0.71238469  0.83129803
   0.93121221  0.12108365  0.30111555
   0.94509820  0.46309066  0.70142559
   0.44055886  0.78708882  0.25713933
   0.32606115  0.37408607  0.78576718
   0.43792175  0.45618726  0.21195543
   0.19048962  0.12184672  0.52190009
   0.82586062  0.71436103  0.70250308
   0.06946038  0.03134799  0.61015444
   0.56340713  0.21424975  0.83016278
   0.31230057  0.86856788  0.52201693
   0.68527952  0.28677005  0.12610269
   0.18484169  0.95613457  0.21194255
   0.67495004  0.29545834  0.60910327
   0.31770763  0.03787519  0.61034709
   0.93522502  0.12251075  0.78440232
   0.43959522  0.79318695  0.87893974
   0.81321925  0.03614957  0.74253228
   0.43870099  0.12463024  0.52193293
   0.18106203  0.63404836  0.65543550
   0.30263484  0.71445130  0.69939813
   0.94031681  0.28441418  0.12611600
   0.43667261  0.45598962  0.47986190
   0.06646013  0.70313539  0.47883700
   0.93737277  0.12039582  0.43377209
   0.43135030  0.12138608  0.29978198
   0.18789034  0.11678901  0.43442111
   0.56236406  0.04129487  0.87963875
   0.18860272  0.95460894  0.56433317
   0.68721638  0.78284831  0.12553941
   0.56306656  0.53290591  0.12630934
   0.30574644  0.03523236  0.39012436
   0.68835121  0.11675093  0.16668316
   0.80498733  0.20307322  0.21183363
   0.06572856  0.53894269  0.25883774
   0.56172763  0.70026171  0.47934787
   0.06588378  0.20734831  0.56333952
   0.55440866  0.37602577  0.30012960
   0.44037578  0.94922221  0.34392328
   0.18485097  0.95977953  0.83101957
   0.45037760  0.61287417  0.16613514
   0.92873227  0.45700898  0.21207022
   0.06489881  0.53287402  0.12526642
   0.81063068  0.37402404  0.52228580
   0.93112685  0.62390805  0.30111012
   0.31614845  0.03426772  0.25756140
   0.68561800  0.78937069  0.60904954
   0.18425166  0.46183527  0.83101953
   0.44344325  0.11484897  0.16629551
   0.31468275  0.37590696  0.52145700
   0.45057874  0.61812477  0.78540697
   0.06688292  0.03437367  0.25726331
   0.56116850  0.70544883  0.56450922
   0.93308023  0.29001253  0.74238059
   0.69906401  0.12955146  0.78484431
   0.18667202  0.45718122  0.21238958
   0.93619829  0.78607498  0.38887580
   0.68811275  0.29406125  0.87882585
   0.32238945  0.86685260  0.16598373
   0.42892383  0.45980296  0.70022540
   0.94128763  0.94945916  0.34452918
   0.68798994  0.61993235  0.52207834
   0.06942396  0.86803102  0.65660768
   0.06419884  0.87730164  0.78476849
   0.06263543  0.38161351  0.65651110
   0.68406889  0.45510183  0.47943850
   0.19236987  0.78794546  0.25777224
   0.43639646  0.12133379  0.43505056
   0.81398599  0.03063555  0.12570532
   0.93865605  0.62184305  0.52230512
   0.06589019  0.86799608  0.43334261
   0.80959205  0.53417215  0.12551698
   0.44023813  0.45536945  0.34391973
   0.81939147  0.20061218  0.34417920
   0.31336667  0.70163237  0.34413333
   0.68322711  0.12753866  0.65472927
   0.55522449  0.86985328  0.29995383
   0.05131667  0.54750468  0.73974644
   0.93124270  0.95400079  0.21179403
   0.80371403  0.70677863  0.21108135
   0.05489273  0.87019454  0.30085889
   0.17908513  0.12154638  0.30042367
   0.06349710  0.70243584  0.34478849
   0.80806284  0.03918340  0.60884264
   0.06249745  0.37355505  0.43417651
   0.56719278  0.20308454  0.34369279
   0.80544945  0.37486576  0.30074862
   0.43567169  0.95488638  0.47908526
   0.55866812  0.53954815  0.39078267
   0.06518117  0.20819201  0.47834450
   0.31951751  0.87253629  0.78545857
   0.94392270  0.95145458  0.70214134
   0.05486435  0.37496056  0.30090547
   0.68428993  0.62164830  0.65432750
   0.68602268  0.45717653  0.56465548
   0.43525322  0.95316859  0.21183918
   0.31462152  0.21013442  0.47930461
   0.42697884  0.12420696  0.65407512
   0.68899324  0.61923272  0.43494370
   0.82350984  0.20204046  0.70176078
   0.81156358  0.70037869  0.47932175
   0.81421761  0.86872603  0.43383115
   0.93794494  0.95206133  0.47854915
   0.56257627  0.21168904  0.47939163
   0.18756230  0.62246415  0.43464662
   0.30727826  0.03918886  0.74193492
   0.94048718  0.62484223  0.65571992
   0.55903254  0.70993495  0.83131897
   0.30563197  0.37632094  0.30025161
   0.56007322  0.70246558  0.21134097
   0.19477423  0.46179228  0.47956904
   0.31554392  0.03951226  0.87992374
   0.18427108  0.46053899  0.70009122
   0.81051151  0.54320180  0.87939084
   0.18172676  0.28975299  0.38967584
   0.43581278  0.62030337  0.43534086
   0.05692973  0.70816405  0.21220148
   0.56369457  0.37155776  0.43555843
   0.81227013  0.36159550  0.16696984
   0.80665715  0.71203309  0.83049045
   0.06190426  0.37019923  0.78530380
   0.44132299  0.29345214  0.87982621
   0.31388159  0.03275112  0.12612167
   0.68978453  0.12235817  0.43432085
   0.18700699  0.94881701  0.34473585
   0.05487423  0.21217395  0.83064763
   0.55491597  0.04679306  0.60845780
   0.68171799  0.45671830  0.21140093
   0.17685685  0.79288989  0.74037188
   0.17956347  0.62452641  0.30067383
   0.43170495  0.78655112  0.39046634
   0.44195532  0.28592141  0.25719155
   0.06218845  0.54462495  0.87968443
   0.56893885  0.03896671  0.74318536
   0.19153369  0.79329892  0.87952985
   0.93589135  0.45947302  0.47897433
   0.81404129  0.54009576  0.38936346
   0.80938859  0.20767770  0.56348176
   0.19623463  0.62538522  0.78557214
   0.05833647  0.54033887  0.38898378
   0.06331644  0.71365660  0.70080328
   0.31699584  0.53916031  0.25786107
   0.31252922  0.70590301  0.21170763
   0.56588769  0.86136160  0.16617437
   0.56369370  0.54311731  0.74535839
   0.69324028  0.45571878  0.34378945
   0.93519044  0.29304576  0.87937202
   0.56313393  0.03644882  0.25708320
   0.44071987  0.78697852  0.12601246
   0.32208198  0.36084956  0.16593740
   0.43703637  0.61781845  0.52152582
   0.55978868  0.02982577  0.12625594
   0.93814909  0.78949781  0.12486452
   0.80994098  0.37888879  0.65530409
   0.19195432  0.95169996  0.47882932
Direct configuration=     3
   0.06326515  0.03312414  0.12518697
   0.06502059  0.86897171  0.52223308
   0.19161514  0.12197372  0.78599259
   0.43142993  0.28910404  0.39030364
   0.31219112  0.71353815  0.83188932
   0.80692900  0.21441077  0.83035728
   0.18144384  0.78543380  0.38956669
   0.56268823  0.20835874  0.56538932
   0.05413413  0.03682019  0.74146758
   0.81240577  0.86903324  0.52273399
   0.18226082  0.29034576  0.74205633
   0.94156767  0.45421251  0.34488135
   0.93551168  0.28915502  0.38917168
   0.81143899  0.04445700  0.87895358
   0.18867154  0.78967997  0.61100340
   0.55944424  0.03572404  0.39048262
   0.93213386  0.96239134  0.83056983
   0.31568570  0.54590327  0.87894482
   0.68964342  0.28876105  0.74519240
   0.19384998  0.61437323  0.16611836
   0.80860090  0.21015835  0.47889021
   0.81245794  0.54218921  0.60985367
   0.30972557  0.86842728  0.43438455
   0.81423460  0.03437285  0.25694232
   0.69402462  0.95008759  0.34437498
   0.94337622  0.11381505  0.16647957
   0.93635907  0.12277604  0.52257201
   0.56519592  0.53810339  0.25696785
   0.68577715  0.79215110  0.87825582
   0.56962953  0.36453794  0.16667486
   0.43443250  0.78847282  0.74311703
   0.81508447  0.70653089  0.56404389
   0.57103760  0.87354609  0.78621325
   0.68800378  0.12472063  0.52222010
   0.19167257  0.28577731  0.25740701
   0.93117408  0.46185038  0.83089270
   0.06439400  0.20489174  0.70075251
   0.43533862  0.95621388  0.70029792
   0.31086365  0.21310099  0.83136467
   0.42912740  0.62835572  0.65414690
   0.31420144  0.54241603  0.61042114
   0.93989636  0.46165013  0.56405325
   0.69456347  0.79188131  0.74246237
   0.30154606  0.87085498  0.65494072
   0.68697764  0.78697594  0.38959426
   0.93438011  0.79124212  0.74104536
   0.06301401  0.20164400  0.34477968
   0.81195505  0.03536855  0.38931576
   0.44812505  0.12616017  0.78616561
   0.05807781  0.20070284  0.21172555
   0.06690202  0.35930888  0.16617990
   0.93996846  0.78688621  0.25721236
   0.56472337  0.20094111  0.70090341
   0.69725344  0.95512338  0.70204073
   0.68607321  0.28780131  0.39063388
   0.43975364  0.95704306  0.56539007
   0.81311688  0.37087386  0.78581437
   0.68791147  0.28691657  0.25686223
   0.18740600  0.45909330  0.56443306
   0.06729302  0.86597965  0.16657737
   0.19429993  0.29245608  0.61040135
   0.56706514  0.70247790  0.34391971
   0.30658389  0.20428888  0.69995670
   0.56363062  0.54466847  0.87851202
   0.06380612  0.70543377  0.56489748
   0.69396694  0.61847562  0.78579285
   0.30563036  0.53830345  0.38966577
   0.18937438  0.62047137  0.52177556
   0.56272679  0.86916860  0.43433059
   0.43985674  0.45702354  0.56488440
   0.43661330  0.29140439  0.74386871
   0.80576921  0.87036970  0.30083836
   0.81849748  0.70265923  0.34453286
   0.43646827  0.46343570  0.83068604
   0.68681271  0.95575123  0.47898035
   0.69854618  0.45795758  0.70080986
   0.56319813  0.87010627  0.52241852
   0.55613158  0.37647416  0.65258732
   0.81388924  0.87257743  0.65664860
   0.81278760  0.37080119  0.43495402
   0.81337724  0.53952281  0.25717087
   0.68379816  0.46154207  0.83039918
   0.19092729  0.78632325  0.12527997
   0.06361912  0.04256501  0.87910288
   0.30744276  0.37455064  0.65486208
   0.31468150  0.20220983  0.34489108
   0.81554563  0.54603256  0.74338098
   0.68485504  0.96341832  0.83085490
   0.55279838  0.87623414  0.65473742
   0.31328532  0.70798442  0.56475603
   0.31376075  0.53269617  0.12514241
   0.68303372  0.95291126  0.21196283
   0.31563055  0.20806274  0.56511764
   0.30969411  0.54389844  0.74261469
   0.68655017  0.95929024  0.56431713
   0.43521497  0.79246427  0.61007710
   0.68681808  0.61120970  0.16706131
   0.30504809  0.87024982  0.30018970
   0.31081607  0.70065616  0.47914511
   0.93656063  0.29685688  0.60973263
   0.43013728  0.62346935  0.30046273
   0.81548859  0.86441154  0.16684073
   0.55905320  0.20424484  0.21110096
   0.94063087  0.61343430  0.16658807
   0.93801796  0.79212876  0.87863882
   0.57344694  0.37413995  0.78598231
   0.06523275  0.37631940  0.52238634
   0.56240076  0.37400265  0.52156947
   0.67964461  0.12239503  0.30021631
   0.43485789  0.96075676  0.83170729
   0.19035297  0.28352986  0.12528607
   0.81863167  0.87606919  0.78549070
   0.31170374  0.37268238  0.43505172
   0.94440857  0.78629289  0.61009728
   0.44318350  0.29028889  0.60963402
   0.18847642  0.45450214  0.34490689
   0.44392574  0.28502119  0.12559414
   0.68960958  0.78556987  0.25662023
   0.18323903  0.95354424  0.69942840
   0.18869393  0.29257731  0.87922630
   0.18569853  0.12100770  0.65599484
   0.93806128  0.12239378  0.65719192
   0.31011752  0.20188580  0.21211302
   0.05777912  0.03557005  0.38936354
   0.19292032  0.11310114  0.16641184
   0.06480472  0.54947294  0.61038568
   0.94091028  0.28620272  0.25736588
   0.55949238  0.53607352  0.60956447
   0.93888871  0.95562059  0.56426852
   0.67946495  0.62404512  0.30040363
   0.93855876  0.62064291  0.43429192
   0.93660028  0.62356772  0.78589988
   0.56442930  0.71554624  0.70109196
   0.05736264  0.71244500  0.83168682
   0.93082157  0.12149451  0.30095882
   0.94397543  0.46200251  0.70104978
   0.44056676  0.78704375  0.25692478
   0.32453096  0.37390313  0.78632382
   0.43692030  0.45575465  0.21200013
   0.19002962  0.12186684  0.52176170
   0.82344626  0.71291049  0.70190490
   0.06820920  0.03335957  0.61027201
   0.56235336  0.21392593  0.83079028
   0.31259535  0.86932726  0.52186657
   0.68636351  0.28692221  0.12578358
   0.18442540  0.95589871  0.21196513
   0.67777554  0.29459366  0.60943312
   0.31680900  0.03850340  0.61042815
   0.93703756  0.12268191  0.78525021
   0.43946412  0.79334359  0.87824896
   0.81258548  0.03718440  0.74286072
   0.43861616  0.12404050  0.52179957
   0.18162294  0.63223221  0.65533541
   0.30509201  0.71305002  0.69945260
   0.94013418  0.28485245  0.12581549
   0.43691616  0.45590193  0.47961246
   0.06575703  0.70362199  0.47878852
   0.93753728  0.12039005  0.43391176
   0.43095881  0.12168843  0.29991997
   0.18790946  0.11751263  0.43443697
   0.56261222  0.04143705  0.87878673
   0.18856516  0.95509846  0.56451738
   0.68803735  0.78311948  0.12536730
   0.56311247  0.53255368  0.12591062
   0.30634943  0.03567986  0.38990538
   0.68906892  0.11575105  0.16674626
   0.80559714  0.20354828  0.21187709
   0.06575145  0.53840771  0.25827403
   0.56196664  0.70142857  0.47919927
   0.06540515  0.20741751  0.56378251
   0.55438645  0.37536578  0.30018921
   0.44059645  0.94982358  0.34414257
   0.18456549  0.96038102  0.83146619
   0.44875354  0.61270504  0.16626403
   0.92971163  0.45650339  0.21203932
   0.06452080  0.53256967  0.12509178
   0.81118542  0.37357952  0.52208355
   0.93075031  0.62367368  0.30095564
   0.31605563  0.03463883  0.25722480
   0.68616349  0.78980259  0.60940314
   0.18409105  0.46201803  0.83146562
   0.44322408  0.11412166  0.16637591
   0.31438858  0.37507734  0.52143492
   0.44918839  0.61921249  0.78603927
   0.06668356  0.03480808  0.25697594
   0.56168373  0.70590601  0.56468876
   0.93353143  0.29026868  0.74274567
   0.69793929  0.12824363  0.78560852
   0.18588482  0.45654017  0.21230839
   0.93566236  0.78635712  0.38890924
   0.68831454  0.29402805  0.87816025
   0.32181826  0.86636174  0.16615264
   0.43114778  0.45934165  0.70009426
   0.94128661  0.95006863  0.34463196
   0.68808987  0.62033833  0.52191384
   0.06720182  0.86954400  0.65625402
   0.06517765  0.87646601  0.78553619
   0.06179292  0.38027934  0.65616763
   0.68483233  0.45525426  0.47927145
   0.19215484  0.78765027  0.25744952
   0.43664499  0.12110308  0.43492609
   0.81421661  0.03095579  0.12546449
   0.93858908  0.62181466  0.52209302
   0.06523509  0.86850174  0.43357830
   0.81011503  0.53367855  0.12526176
   0.44046613  0.45465922  0.34413973