<?xml version="1.0" encoding="ISO-8859-1"?>
<modeling>
 <generator>
  <i name="program" type="string">vasp </i>
  <i name="version" type="string">5.4.4.18Apr17-6-g9f103f2a35  </i>
  <i name="subversion" type="string">(build May 29 2019 08:40:53) complex            parallel </i>
  <i name="platform" type="string">LinuxPGI </i>
  <i name="date" type="string">2021 11 22 </i>
  <i name="time" type="string">03:35:27 </i>
 </generator>
 <incar>
  <i type="int" name="ISTART">     2</i>
  <i type="string" name="PREC">accurate</i>
  <i type="string" name="ALGO"> Fast</i>
  <i type="int" name="ICHARG">     2</i>
  <i type="int" name="INIWAV">     1</i>
  <i type="int" name="NELM">   100</i>
  <i type="int" name="NELMIN">     4</i>
  <i type="int" name="IBRION">     2</i>
  <i name="EDIFF">      0.00001000</i>
  <i type="int" name="NSW">   500</i>
  <i type="int" name="ISIF">     2</i>
  <i type="int" name="ISYM">     2</i>
  <i name="ENCUT">    500.00000000</i>
  <i name="POTIM">      0.25000000</i>
  <i type="string" name="LREAL"> Auto</i>
  <i type="int" name="ISMEAR">     0</i>
  <i name="SIGMA">      0.15000000</i>
  <i type="logical" name="LWAVE"> F  </i>
  <i type="logical" name="LCHARG"> F  </i>
  <v type="int" name="KPOINT_BSE">    -1     0     0     0</v>
  <i type="int" name="NELM">   100</i>
 </incar>
 <structure name="primitive_cell" >
  <crystal>
   <varray name="basis" >
    <v>       9.72667800       0.00000000       0.00000000 </v>
    <v>       0.00000000       8.42355000       0.00000000 </v>
    <v>       0.00000000       0.00000000      45.00000000 </v>
   </varray>
   <i name="volume">   3686.99213101 </i>
   <varray name="rec_basis" >
    <v>       0.10281002       0.00000000       0.00000000 </v>
    <v>       0.00000000       0.11871479       0.00000000 </v>
    <v>       0.00000000       0.00000000       0.02222222 </v>
   </varray>
  </crystal>
  <varray name="positions" >
   <v>       0.43710082       0.29331377      -0.25784378 </v>
   <v>       0.31259382      -0.45727597      -0.25784323 </v>
   <v>       0.43748757       0.45918692      -0.30191184 </v>
   <v>       0.18748505       0.29310537      -0.25775162 </v>
   <v>       0.31256146       0.20915440      -0.30191686 </v>
   <v>       0.31247454       0.04323973      -0.25785987 </v>
   <v>       0.43786513       0.12665431      -0.21374728 </v>
   <v>      -0.43740077       0.20913756      -0.30183346 </v>
   <v>      -0.43758549      -0.45679943      -0.25779625 </v>
   <v>       0.31258657       0.37688713      -0.21362600 </v>
   <v>      -0.43759695       0.04319541      -0.25776244 </v>
   <v>      -0.31253562       0.29340436      -0.25777411 </v>
   <v>      -0.43743531       0.37660204      -0.21367441 </v>
   <v>       0.18758176       0.45909800      -0.30189577 </v>
   <v>      -0.31247465       0.45905438      -0.30177496 </v>
   <v>       0.18755554       0.12698995      -0.21357880 </v>
   <v>       0.43750520      -0.04073745      -0.30179121 </v>
   <v>       0.43759952      -0.37299648      -0.21364686 </v>
   <v>      -0.31243607       0.12668698      -0.21360857 </v>
   <v>       0.31255785      -0.29081413      -0.30188562 </v>
   <v>      -0.43755640      -0.29072678      -0.30188932 </v>
   <v>       0.06235502      -0.45728671      -0.25786105 </v>
   <v>       0.31253862      -0.12285590      -0.21366413 </v>
   <v>       0.06251791       0.20914660      -0.30193165 </v>
   <v>       0.43732992      -0.20704534      -0.25772545 </v>
   <v>       0.06252064       0.04318590      -0.25787296 </v>
   <v>       0.06252700       0.37688710      -0.21362609 </v>
   <v>       0.18754326      -0.04084612      -0.30191924 </v>
   <v>       0.18756738      -0.37243772      -0.21378423 </v>
   <v>      -0.18752186       0.20914573      -0.30187498 </v>
   <v>      -0.43749596      -0.12328531      -0.21361214 </v>
   <v>       0.31253116       0.37512975      -0.34625242 </v>
   <v>      -0.18737346      -0.45678737      -0.25782280 </v>
   <v>      -0.18750613       0.37661402      -0.21367341 </v>
   <v>      -0.18736935       0.04316784      -0.25776022 </v>
   <v>      -0.31247833      -0.37329822      -0.21360300 </v>
   <v>      -0.43756939       0.37502733      -0.34625770 </v>
   <v>      -0.31242162      -0.04077731      -0.30194770 </v>
   <v>       0.43730171       0.12491408      -0.34613651 </v>
   <v>      -0.43741482       0.20982993      -0.16892424 </v>
   <v>       0.31196686       0.21083615      -0.16877613 </v>
   <v>       0.43710285       0.46004474      -0.16874003 </v>
   <v>      -0.06211279       0.29327550      -0.25784960 </v>
   <v>       0.18752430      -0.20713322      -0.25777435 </v>
   <v>      -0.31250870      -0.20666205      -0.25775769 </v>
   <v>       0.43754182      -0.37491792      -0.34639129 </v>
   <v>       0.18746127       0.12499872      -0.34623908 </v>
   <v>      -0.31254060       0.12504924      -0.34634726 </v>
   <v>       0.43754230      -0.03965163      -0.16883412 </v>
   <v>       0.18747128       0.45958639      -0.16872865 </v>
   <v>      -0.31252017       0.45984227      -0.16880594 </v>
   <v>       0.06260524      -0.29099971      -0.30190980 </v>
   <v>      -0.06245069       0.45921471      -0.30187891 </v>
   <v>       0.06255385      -0.12290184      -0.21367783 </v>
   <v>      -0.18739779      -0.29090218      -0.30193897 </v>
   <v>      -0.06277356       0.12666992      -0.21376075 </v>
   <v>       0.18728860      -0.37462260      -0.34623350 </v>
   <v>      -0.31227794      -0.37494369      -0.34620467 </v>
   <v>       0.06259891       0.37520126      -0.34630519 </v>
   <v>      -0.18741729      -0.12331527      -0.21361737 </v>
   <v>      -0.18751998       0.37489429      -0.34633145 </v>
   <v>      -0.43748632      -0.12492355      -0.34623349 </v>
   <v>       0.31240622      -0.12502465      -0.34628163 </v>
   <v>       0.06301338       0.21086176      -0.16876756 </v>
   <v>       0.18747401      -0.03933441      -0.16873326 </v>
   <v>      -0.18762221       0.20986124      -0.16892184 </v>
   <v>      -0.43755729      -0.28993951      -0.16886497 </v>
   <v>       0.31247550      -0.28937451      -0.16888469 </v>
   <v>      -0.31252194      -0.03996729      -0.16881305 </v>
   <v>       0.43829640       0.29384345      -0.12668359 </v>
   <v>      -0.06241478      -0.04089805      -0.30176561 </v>
   <v>      -0.06250447      -0.37302023      -0.21365248 </v>
   <v>       0.43719651       0.29073536      -0.39019327 </v>
   <v>       0.18756251       0.29356460      -0.12692392 </v>
   <v>       0.31348692      -0.45665729      -0.12669210 </v>
   <v>      -0.43770173       0.04314432      -0.12671944 </v>
   <v>       0.31262819       0.04235939      -0.12671181 </v>
   <v>      -0.31247235       0.29368593      -0.12670493 </v>
   <v>      -0.43766002      -0.45649472      -0.12663824 </v>
   <v>       0.31254607      -0.45901371      -0.39015728 </v>
   <v>      -0.43734947      -0.45912282      -0.39015780 </v>
   <v>      -0.06233583      -0.20694090      -0.25771450 </v>
   <v>       0.18758562       0.29122544      -0.39013124 </v>
   <v>      -0.31237688       0.29115539      -0.39011449 </v>
   <v>      -0.06218978       0.12523915      -0.34619240 </v>
   <v>       0.31295331       0.04146112      -0.39018128 </v>
   <v>      -0.43770392       0.04114535      -0.39023510 </v>
   <v>       0.06263215      -0.12469898      -0.34627304 </v>
   <v>      -0.18743730      -0.12480696      -0.34626189 </v>
   <v>      -0.06218613       0.45997743      -0.16875185 </v>
   <v>       0.06251639      -0.28940152      -0.16889617 </v>
   <v>      -0.18752425      -0.28995607      -0.16886713 </v>
   <v>      -0.06233632      -0.37492923      -0.34636197 </v>
   <v>      -0.06257909      -0.03964343      -0.16884468 </v>
   <v>       0.06242060       0.04237777      -0.12670590 </v>
   <v>       0.43768566      -0.20663014      -0.12664880 </v>
   <v>      -0.18722795       0.04319513      -0.12671315 </v>
   <v>       0.06157179      -0.45662380      -0.12668995 </v>
   <v>      -0.18729214      -0.45644300      -0.12662701 </v>
   <v>       0.43762859      -0.20930894      -0.39020372 </v>
   <v>       0.06263474      -0.45881774      -0.39015982 </v>
   <v>      -0.18747553      -0.45874450      -0.39021887 </v>
   <v>       0.06237040       0.04154418      -0.39013506 </v>
   <v>      -0.18732880       0.04128130      -0.39019621 </v>
   <v>      -0.06318623       0.29390255      -0.12667749 </v>
   <v>       0.18749880      -0.20662169      -0.12665015 </v>
   <v>      -0.31241411      -0.20635773      -0.12668075 </v>
   <v>      -0.31242657      -0.20944898      -0.38998339 </v>
   <v>       0.18753744      -0.20909369      -0.39016307 </v>
   <v>      -0.06197615       0.29090515      -0.39015893 </v>
   <v>       0.43712783       0.45670085      -0.43455058 </v>
   <v>       0.31188853       0.20712552      -0.43465471 </v>
   <v>      -0.43728189       0.20710146      -0.43502550 </v>
   <v>      -0.31192533       0.45692486      -0.43462630 </v>
   <v>       0.18721868       0.45645708      -0.43486601 </v>
   <v>       0.43709349      -0.04376184      -0.43462048 </v>
   <v>      -0.06258419      -0.20656533      -0.12664295 </v>
   <v>      -0.06233551      -0.20877467      -0.39023589 </v>
   <v>       0.31239243      -0.29324170      -0.43472102 </v>
   <v>       0.06266112       0.20692522      -0.43480128 </v>
   <v>      -0.18737856       0.20723225      -0.43472594 </v>
   <v>      -0.31233662      -0.04260519      -0.43462236 </v>
   <v>      -0.43773565      -0.29305750      -0.43512377 </v>
   <v>       0.18744079      -0.04313449      -0.43473802 </v>
   <v>       0.06255182      -0.29324669      -0.43479392 </v>
   <v>      -0.18715169      -0.29282486      -0.43470355 </v>
   <v>      -0.06217688       0.45690709      -0.43478571 </v>
   <v>      -0.06237632      -0.04334469      -0.43484886 </v>
   <v>       0.31259154       0.37251869      -0.47855276 </v>
   <v>      -0.43771346       0.37350265      -0.47864873 </v>
   <v>       0.43756212       0.12275887      -0.47851303 </v>
   <v>       0.43730681      -0.37742330      -0.47869122 </v>
   <v>       0.18708608       0.12215265      -0.47851970 </v>
   <v>      -0.31192425       0.12227131      -0.47861879 </v>
   <v>       0.18735882      -0.37760444      -0.47855447 </v>
   <v>      -0.31210302      -0.37748960      -0.47858004 </v>
   <v>       0.06275510       0.37250691      -0.47859115 </v>
   <v>      -0.18769249       0.37274232      -0.47859531 </v>
   <v>       0.31218854      -0.12761632      -0.47857070 </v>
   <v>      -0.43721923      -0.12686820      -0.47865314 </v>
   <v>      -0.06251521       0.12254959      -0.47853293 </v>
   <v>       0.06260124      -0.12755693      -0.47856792 </v>
   <v>      -0.18746544      -0.12756874      -0.47859328 </v>
   <v>      -0.06248639      -0.37742175      -0.47861836 </v>
   <v>       0.43709869       0.45429159       0.47869304 </v>
   <v>       0.31170160       0.20546271       0.47876311 </v>
   <v>      -0.43762575       0.20500737       0.47869893 </v>
   <v>       0.18745820       0.45507835       0.47870005 </v>
   <v>      -0.31189473       0.45493090       0.47862021 </v>
   <v>       0.43707481      -0.04560228       0.47867005 </v>
   <v>      -0.43727400      -0.29508997       0.47868287 </v>
   <v>       0.31162146      -0.29443859       0.47870815 </v>
   <v>       0.06253646       0.20511886       0.47869136 </v>
   <v>       0.18778505      -0.04500134       0.47875800 </v>
   <v>      -0.18684865       0.20549972       0.47868072 </v>
   <v>      -0.31226836      -0.04504168       0.47869620 </v>
   <v>       0.06250028      -0.29508700       0.47868876 </v>
   <v>      -0.18684245      -0.29478795       0.47866146 </v>
   <v>      -0.06270428       0.45516564       0.47869935 </v>
   <v>      -0.06274425      -0.04472587       0.47872569 </v>
   <v>       0.43755031       0.12114746       0.43532101 </v>
   <v>       0.31269459       0.37083621       0.43479039 </v>
   <v>      -0.43717764       0.37168485       0.43480385 </v>
   <v>       0.43725708      -0.37920893       0.43497414 </v>
   <v>       0.18736904       0.12031551       0.43484171 </v>
   <v>      -0.31179932       0.12130477       0.43487400 </v>
   <v>       0.18765089      -0.37962511       0.43491945 </v>
   <v>      -0.31233803      -0.37873030       0.43495212 </v>
   <v>       0.06250794       0.37034500       0.43494257 </v>
   <v>      -0.18787305       0.37108911       0.43496931 </v>
   <v>       0.31273099      -0.12930093       0.43485350 </v>
   <v>      -0.43767948      -0.12863271       0.43480564 </v>
   <v>      -0.06233991       0.12060442       0.43491018 </v>
   <v>       0.06244442      -0.12959028       0.43501127 </v>
   <v>      -0.18759251      -0.12899464       0.43491385 </v>
   <v>      -0.06253496      -0.37928318       0.43486614 </v>
   <v>       0.43752411       0.28668339       0.39024618 </v>
   <v>       0.31223358      -0.46352038       0.39022687 </v>
   <v>      -0.31294371       0.28734353       0.39032462 </v>
   <v>      -0.43740729      -0.46276413       0.39017928 </v>
   <v>       0.18723317       0.28654889       0.39023280 </v>
   <v>      -0.43744666       0.03764353       0.39023579 </v>
   <v>       0.31182990       0.03702652       0.39009128 </v>
   <v>       0.43749223      -0.21275437       0.39028871 </v>
   <v>       0.06198477      -0.46319171       0.39017784 </v>
   <v>      -0.18734444      -0.46294948       0.39011319 </v>
   <v>       0.06191324       0.03683192       0.39023151 </v>
   <v>      -0.18756496       0.03718097       0.39019167 </v>
   <v>      -0.31298699      -0.21320139       0.39028283 </v>
   <v>       0.18762379      -0.21331566       0.39020250 </v>
   <v>      -0.06235404       0.28707720       0.39030915 </v>
   <v>      -0.06262132      -0.21350973       0.39018090 </v>
   <v>       0.43679509       0.28485443       0.12672894 </v>
   <v>       0.31238277      -0.46533587       0.12666564 </v>
   <v>      -0.43744625      -0.46561947       0.12667351 </v>
   <v>      -0.31214044       0.28495268       0.12652631 </v>
   <v>       0.18815090       0.28479486       0.12673236 </v>
   <v>       0.31241158       0.03446853       0.12661978 </v>
   <v>      -0.43759790       0.03395413       0.12668863 </v>
   <v>       0.43739135      -0.21550132       0.12663920 </v>
   <v>      -0.18759001      -0.46591953       0.12651260 </v>
   <v>       0.06233637      -0.46553144       0.12667137 </v>
   <v>      -0.18756641       0.03477288       0.12667498 </v>
   <v>       0.06252954       0.03390672       0.12671428 </v>
   <v>       0.43725022       0.45287425       0.34627290 </v>
   <v>      -0.43767008       0.20263491       0.34639417 </v>
   <v>       0.31299434       0.20285536       0.34621279 </v>
   <v>       0.18759336      -0.21546880       0.12660002 </v>
   <v>      -0.31291999      -0.21507246       0.12671300 </v>
   <v>      -0.06295792       0.28497608       0.12651169 </v>
   <v>       0.18748064       0.45344460       0.34631164 </v>
   <v>      -0.31212507       0.45275832       0.34619774 </v>
   <v>       0.43835312      -0.04690609       0.34624114 </v>
   <v>       0.31278010      -0.29702336       0.34633202 </v>
   <v>      -0.43734692      -0.29730200       0.34628068 </v>
   <v>       0.06271815       0.20310901       0.34646765 </v>
   <v>      -0.18801453       0.20321375       0.34631457 </v>
   <v>       0.18712778      -0.04687047       0.34631120 </v>
   <v>      -0.31211202      -0.04723321       0.34626687 </v>
   <v>      -0.06216780      -0.21518543       0.12672509 </v>
   <v>       0.06265876      -0.29674383       0.34628278 </v>
   <v>      -0.18800754      -0.29759460       0.34621263 </v>
   <v>      -0.06283806       0.45305483       0.34635590 </v>
   <v>      -0.06280621      -0.04673477       0.34627305 </v>
   <v>      -0.43734280       0.36794781       0.16877353 </v>
   <v>       0.31250798       0.36734387       0.16889622 </v>
   <v>       0.43754861       0.11751248       0.16877827 </v>
   <v>       0.43740889      -0.38190714       0.16883313 </v>
   <v>       0.18766084       0.11750302       0.16880214 </v>
   <v>      -0.31202938       0.11786271       0.16884792 </v>
   <v>      -0.18736861       0.36775026       0.16816234 </v>
   <v>       0.18772838      -0.38189424       0.16883630 </v>
   <v>      -0.31265961      -0.38293612       0.16892993 </v>
   <v>       0.06257938       0.36811609       0.16879973 </v>
   <v>      -0.43784202      -0.13224950       0.16871876 </v>
   <v>       0.31260497      -0.13218048       0.16890441 </v>
   <v>      -0.06292695       0.11793364       0.16879628 </v>
   <v>      -0.43743747       0.36861952       0.30182944 </v>
   <v>       0.31243928       0.36914029       0.30176861 </v>
   <v>       0.06292918      -0.13204715       0.16879347 </v>
   <v>       0.43715318       0.11879702       0.30178779 </v>
   <v>      -0.18738583      -0.13242988       0.16883321 </v>
   <v>      -0.06227770      -0.38286775       0.16883924 </v>
   <v>       0.43720850      -0.38107858       0.30184885 </v>
   <v>       0.18749510       0.11882972       0.30183298 </v>
   <v>      -0.31292198       0.11870646       0.30182768 </v>
   <v>       0.18723099      -0.38113588       0.30181591 </v>
   <v>      -0.31278569      -0.38156221       0.30179552 </v>
   <v>       0.06214372       0.36907924       0.30182596 </v>
   <v>      -0.18745286       0.36851116       0.30182765 </v>
   <v>      -0.43726630      -0.13156963       0.30173106 </v>
   <v>       0.31191616      -0.13173341       0.30171697 </v>
   <v>      -0.06227605       0.11899017       0.30181022 </v>
   <v>      -0.18767736      -0.13130542       0.30180483 </v>
   <v>       0.06187211      -0.13137226       0.30171654 </v>
   <v>      -0.06217736      -0.38146638       0.30180541 </v>
   <v>       0.31247134       0.20110540       0.21348450 </v>
   <v>       0.43746382       0.45108033       0.21364851 </v>
   <v>      -0.43744721       0.20106267       0.21355426 </v>
   <v>       0.18735915       0.45095073       0.21355527 </v>
   <v>      -0.31283652       0.45128765       0.21363807 </v>
   <v>       0.43717663      -0.04912574       0.21352646 </v>
   <v>       0.31247915      -0.29916856       0.21347973 </v>
   <v>      -0.43751353      -0.29912118       0.21352206 </v>
   <v>       0.06238254       0.20080939       0.21361497 </v>
   <v>      -0.18759261       0.20044835       0.21363254 </v>
   <v>       0.18752907      -0.04916057       0.21352092 </v>
   <v>      -0.31255533      -0.04903044       0.21355531 </v>
   <v>       0.06231703      -0.29942342       0.21357576 </v>
   <v>      -0.18762132      -0.29916892       0.21355329 </v>
   <v>       0.43758594       0.28487961       0.25768963 </v>
   <v>      -0.06231591       0.45097567       0.21363569 </v>
   <v>       0.31263790      -0.46541883       0.25777171 </v>
   <v>      -0.43732623      -0.46534025       0.25775386 </v>
   <v>       0.18758214       0.28484172       0.25774394 </v>
   <v>      -0.31229608       0.28452283       0.25774463 </v>
   <v>      -0.43763089       0.03443319       0.25772617 </v>
   <v>       0.31269340       0.03442836       0.25766750 </v>
   <v>      -0.06236030      -0.04923727       0.21346144 </v>
   <v>       0.43750491      -0.21523367       0.25768658 </v>
   <v>      -0.18760268      -0.46568979       0.25771001 </v>
   <v>       0.06250763      -0.46517081       0.25765666 </v>
   <v>      -0.18747730       0.03452387       0.25769273 </v>
   <v>       0.06272204       0.03485702       0.25764632 </v>
   <v>      -0.31225624      -0.21554651       0.25773102 </v>
   <v>       0.18751738      -0.21527968       0.25769134 </v>
   <v>      -0.06261284       0.28455280       0.25777709 </v>
   <v>      -0.06225563      -0.21539337       0.25773354 </v>
  </varray>
 </structure>
 <varray name="primitive_index" >
  <v type="int" >        1 </v>
  <v type="int" >      108 </v>
  <v type="int" >      193 </v>
  <v type="int" >      197 </v>
  <v type="int" >      211 </v>
  <v type="int" >      244 </v>
  <v type="int" >      140 </v>
  <v type="int" >      180 </v>
  <v type="int" >      172 </v>
  <v type="int" >       60 </v>
  <v type="int" >      152 </v>
  <v type="int" >      122 </v>
  <v type="int" >      272 </v>
  <v type="int" >        4 </v>
  <v type="int" >      116 </v>
  <v type="int" >      147 </v>
  <v type="int" >      238 </v>
  <v type="int" >      188 </v>
  <v type="int" >       11 </v>
  <v type="int" >      246 </v>
  <v type="int" >      179 </v>
  <v type="int" >       19 </v>
  <v type="int" >      261 </v>
  <v type="int" >      150 </v>
  <v type="int" >      206 </v>
  <v type="int" >      208 </v>
  <v type="int" >      257 </v>
  <v type="int" >      210 </v>
  <v type="int" >      263 </v>
  <v type="int" >      194 </v>
  <v type="int" >      176 </v>
  <v type="int" >      271 </v>
  <v type="int" >       29 </v>
  <v type="int" >       64 </v>
  <v type="int" >      128 </v>
  <v type="int" >       68 </v>
  <v type="int" >      164 </v>
  <v type="int" >      169 </v>
  <v type="int" >       28 </v>
  <v type="int" >       94 </v>
  <v type="int" >       92 </v>
  <v type="int" >      235 </v>
  <v type="int" >       56 </v>
  <v type="int" >      144 </v>
  <v type="int" >      285 </v>
  <v type="int" >      249 </v>
  <v type="int" >      255 </v>
  <v type="int" >      207 </v>
  <v type="int" >      266 </v>
  <v type="int" >       27 </v>
  <v type="int" >       32 </v>
  <v type="int" >       31 </v>
  <v type="int" >       49 </v>
  <v type="int" >      268 </v>
  <v type="int" >       24 </v>
  <v type="int" >      229 </v>
  <v type="int" >      218 </v>
  <v type="int" >      205 </v>
  <v type="int" >      251 </v>
  <v type="int" >      242 </v>
  <v type="int" >      126 </v>
  <v type="int" >      177 </v>
  <v type="int" >       30 </v>
  <v type="int" >       72 </v>
  <v type="int" >       14 </v>
  <v type="int" >      182 </v>
  <v type="int" >       18 </v>
  <v type="int" >      168 </v>
  <v type="int" >      166 </v>
  <v type="int" >       21 </v>
  <v type="int" >      227 </v>
  <v type="int" >      118 </v>
  <v type="int" >       71 </v>
  <v type="int" >      282 </v>
  <v type="int" >      217 </v>
  <v type="int" >      265 </v>
  <v type="int" >      189 </v>
  <v type="int" >      127 </v>
  <v type="int" >      123 </v>
  <v type="int" >       44 </v>
  <v type="int" >       86 </v>
  <v type="int" >      202 </v>
  <v type="int" >      236 </v>
  <v type="int" >      125 </v>
  <v type="int" >       84 </v>
  <v type="int" >      100 </v>
  <v type="int" >      109 </v>
  <v type="int" >       91 </v>
  <v type="int" >      167 </v>
  <v type="int" >       77 </v>
  <v type="int" >      160 </v>
  <v type="int" >       26 </v>
  <v type="int" >        2 </v>
  <v type="int" >       20 </v>
  <v type="int" >      115 </v>
  <v type="int" >       16 </v>
  <v type="int" >      254 </v>
  <v type="int" >       45 </v>
  <v type="int" >       85 </v>
  <v type="int" >        3 </v>
  <v type="int" >      134 </v>
  <v type="int" >       40 </v>
  <v type="int" >      241 </v>
  <v type="int" >      137 </v>
  <v type="int" >      146 </v>
  <v type="int" >      110 </v>
  <v type="int" >       35 </v>
  <v type="int" >      283 </v>
  <v type="int" >      104 </v>
  <v type="int" >       79 </v>
  <v type="int" >      274 </v>
  <v type="int" >      159 </v>
  <v type="int" >      133 </v>
  <v type="int" >       73 </v>
  <v type="int" >       36 </v>
  <v type="int" >      215 </v>
  <v type="int" >      107 </v>
  <v type="int" >      135 </v>
  <v type="int" >       15 </v>
  <v type="int" >      157 </v>
  <v type="int" >      111 </v>
  <v type="int" >      276 </v>
  <v type="int" >       34 </v>
  <v type="int" >       12 </v>
  <v type="int" >      130 </v>
  <v type="int" >      121 </v>
  <v type="int" >      258 </v>
  <v type="int" >      260 </v>
  <v type="int" >       50 </v>
  <v type="int" >      181 </v>
  <v type="int" >      275 </v>
  <v type="int" >        8 </v>
  <v type="int" >      120 </v>
  <v type="int" >      151 </v>
  <v type="int" >      262 </v>
  <v type="int" >       81 </v>
  <v type="int" >      117 </v>
  <v type="int" >       10 </v>
  <v type="int" >       41 </v>
  <v type="int" >      216 </v>
  <v type="int" >      129 </v>
  <v type="int" >       74 </v>
  <v type="int" >      199 </v>
  <v type="int" >      185 </v>
  <v type="int" >      131 </v>
  <v type="int" >        6 </v>
  <v type="int" >      286 </v>
  <v type="int" >      154 </v>
  <v type="int" >      141 </v>
  <v type="int" >      106 </v>
  <v type="int" >      278 </v>
  <v type="int" >       82 </v>
  <v type="int" >      149 </v>
  <v type="int" >       70 </v>
  <v type="int" >      145 </v>
  <v type="int" >      270 </v>
  <v type="int" >      114 </v>
  <v type="int" >      212 </v>
  <v type="int" >      138 </v>
  <v type="int" >       76 </v>
  <v type="int" >       69 </v>
  <v type="int" >       43 </v>
  <v type="int" >      113 </v>
  <v type="int" >      101 </v>
  <v type="int" >        9 </v>
  <v type="int" >      158 </v>
  <v type="int" >      119 </v>
  <v type="int" >       75 </v>
  <v type="int" >       25 </v>
  <v type="int" >      247 </v>
  <v type="int" >       39 </v>
  <v type="int" >      183 </v>
  <v type="int" >       37 </v>
  <v type="int" >      162 </v>
  <v type="int" >      237 </v>
  <v type="int" >       42 </v>
  <v type="int" >      156 </v>
  <v type="int" >      240 </v>
  <v type="int" >      165 </v>
  <v type="int" >      136 </v>
  <v type="int" >       55 </v>
  <v type="int" >      171 </v>
  <v type="int" >      284 </v>
  <v type="int" >       54 </v>
  <v type="int" >       97 </v>
  <v type="int" >      200 </v>
  <v type="int" >       47 </v>
  <v type="int" >       61 </v>
  <v type="int" >      224 </v>
  <v type="int" >       95 </v>
  <v type="int" >      264 </v>
  <v type="int" >      192 </v>
  <v type="int" >       93 </v>
  <v type="int" >      222 </v>
  <v type="int" >       78 </v>
  <v type="int" >      219 </v>
  <v type="int" >      228 </v>
  <v type="int" >      230 </v>
  <v type="int" >      233 </v>
  <v type="int" >      175 </v>
  <v type="int" >       38 </v>
  <v type="int" >      170 </v>
  <v type="int" >      267 </v>
  <v type="int" >      213 </v>
  <v type="int" >       48 </v>
  <v type="int" >      187 </v>
  <v type="int" >      143 </v>
  <v type="int" >      214 </v>
  <v type="int" >       33 </v>
  <v type="int" >       63 </v>
  <v type="int" >       89 </v>
  <v type="int" >       58 </v>
  <v type="int" >      277 </v>
  <v type="int" >       98 </v>
  <v type="int" >      223 </v>
  <v type="int" >      281 </v>
  <v type="int" >       59 </v>
  <v type="int" >      245 </v>
  <v type="int" >       87 </v>
  <v type="int" >       65 </v>
  <v type="int" >      288 </v>
  <v type="int" >       51 </v>
  <v type="int" >       23 </v>
  <v type="int" >      209 </v>
  <v type="int" >       66 </v>
  <v type="int" >      148 </v>
  <v type="int" >      102 </v>
  <v type="int" >      139 </v>
  <v type="int" >        5 </v>
  <v type="int" >       22 </v>
  <v type="int" >      280 </v>
  <v type="int" >       52 </v>
  <v type="int" >      174 </v>
  <v type="int" >      269 </v>
  <v type="int" >      186 </v>
  <v type="int" >      253 </v>
  <v type="int" >      132 </v>
  <v type="int" >      234 </v>
  <v type="int" >       53 </v>
  <v type="int" >      250 </v>
  <v type="int" >      220 </v>
  <v type="int" >       46 </v>
  <v type="int" >       83 </v>
  <v type="int" >      191 </v>
  <v type="int" >      259 </v>
  <v type="int" >      287 </v>
  <v type="int" >      198 </v>
  <v type="int" >      225 </v>
  <v type="int" >      252 </v>
  <v type="int" >      184 </v>
  <v type="int" >      178 </v>
  <v type="int" >      279 </v>
  <v type="int" >       90 </v>
  <v type="int" >      248 </v>
  <v type="int" >      201 </v>
  <v type="int" >       80 </v>
  <v type="int" >       13 </v>
  <v type="int" >      112 </v>
  <v type="int" >      226 </v>
  <v type="int" >      153 </v>
  <v type="int" >       62 </v>
  <v type="int" >      155 </v>
  <v type="int" >      273 </v>
  <v type="int" >      221 </v>
  <v type="int" >       99 </v>
  <v type="int" >      203 </v>
  <v type="int" >       88 </v>
  <v type="int" >      243 </v>
  <v type="int" >      195 </v>
  <v type="int" >       17 </v>
  <v type="int" >      161 </v>
  <v type="int" >      239 </v>
  <v type="int" >      173 </v>
  <v type="int" >        7 </v>
  <v type="int" >       96 </v>
  <v type="int" >       57 </v>
  <v type="int" >      231 </v>
  <v type="int" >      196 </v>
  <v type="int" >      232 </v>
  <v type="int" >      103 </v>
  <v type="int" >      142 </v>
  <v type="int" >      163 </v>
  <v type="int" >       67 </v>
  <v type="int" >      204 </v>
  <v type="int" >      105 </v>
  <v type="int" >      256 </v>
  <v type="int" >      190 </v>
  <v type="int" >      124 </v>
 </varray>
 <kpoints>
  <generation param="Gamma">
   <v type="int" name="divisions">       4        4        1 </v>
   <v name="usershift">      0.00000000       0.00000000       0.00000000 </v>
   <v name="genvec1">      0.25000000       0.00000000       0.00000000 </v>
   <v name="genvec2">      0.00000000       0.25000000       0.00000000 </v>
   <v name="genvec3">      0.00000000       0.00000000       1.00000000 </v>
   <v name="shift">      0.00000000       0.00000000       0.00000000 </v>
  </generation>
  <varray name="kpointlist" >
   <v>       0.00000000       0.00000000       0.00000000 </v>
   <v>       0.25000000       0.00000000       0.00000000 </v>
   <v>       0.50000000       0.00000000       0.00000000 </v>
   <v>       0.00000000       0.25000000       0.00000000 </v>
   <v>       0.25000000       0.25000000       0.00000000 </v>
   <v>       0.50000000       0.25000000       0.00000000 </v>
   <v>      -0.25000000       0.25000000       0.00000000 </v>
   <v>       0.00000000       0.50000000       0.00000000 </v>
   <v>       0.25000000       0.50000000       0.00000000 </v>
   <v>       0.50000000       0.50000000       0.00000000 </v>
  </varray>
  <varray name="weights" >
   <v>       0.06250000 </v>
   <v>       0.12500000 </v>
   <v>       0.06250000 </v>
   <v>       0.12500000 </v>
   <v>       0.12500000 </v>
   <v>       0.12500000 </v>
   <v>       0.12500000 </v>
   <v>       0.06250000 </v>
   <v>       0.12500000 </v>
   <v>       0.06250000 </v>
  </varray>
 </kpoints>
 <parameters>
  <separator name="general" >
   <i type="string" name="SYSTEM">unknown system</i>
   <i type="logical" name="LCOMPAT"> F  </i>
  </separator>
  <separator name="electronic" >
   <i type="string" name="PREC">accura</i>
   <i name="ENMAX">    500.00000000</i>
   <i name="ENAUG">    838.43500000</i>
   <i name="EDIFF">      0.00001000</i>
   <i type="int" name="IALGO">    68</i>
   <i type="int" name="IWAVPR">    11</i>
   <i type="int" name="NBANDS">  1380</i>
   <i name="NELECT">   2289.00000000</i>
   <i type="int" name="TURBO">     0</i>
   <i type="int" name="IRESTART">     0</i>
   <i type="int" name="NREBOOT">     0</i>
   <i type="int" name="NMIN">     0</i>
   <i name="EREF">      0.00000000</i>
   <separator name="electronic smearing" >
    <i type="int" name="ISMEAR">     0</i>
    <i name="SIGMA">      0.15000000</i>
    <i name="KSPACING">      0.50000000</i>
    <i type="logical" name="KGAMMA"> T  </i>
   </separator>
   <separator name="electronic projectors" >
    <i type="logical" name="LREAL"> T  </i>
    <v name="ROPT">     -0.00025000     -0.00025000</v>
    <i type="int" name="LMAXPAW">  -100</i>
    <i type="int" name="LMAXMIX">     2</i>
    <i type="logical" name="NLSPLINE"> F  </i>
   </separator>
   <separator name="electronic startup" >
    <i type="int" name="ISTART">     0</i>
    <i type="int" name="ICHARG">     2</i>
    <i type="int" name="INIWAV">     1</i>
   </separator>
   <separator name="electronic spin" >
    <i type="int" name="ISPIN">     1</i>
    <i type="logical" name="LNONCOLLINEAR"> F  </i>
    <v name="MAGMOM">      1.00000000      1.00000000      1.00000000      1.00000000      1.00000000      1.00000000      1.00000000      1.00000000      1.00000000      1.00000000      1.00000000      1.00000000      1.00000000      1.00000000      1.00000000      1.00000000      1.00000000      1.00000000      1.00000000      1.00000000
      1.00000000      1.00000000      1.00000000      1.00000000      1.00000000      1.00000000      1.00000000      1.00000000      1.00000000      1.00000000      1.00000000      1.00000000      1.00000000      1.00000000      1.00000000      1.00000000      1.00000000      1.00000000      1.00000000      1.00000000
      1.00000000      1.00000000      1.00000000      1.00000000      1.00000000      1.00000000      1.00000000      1.00000000      1.00000000      1.00000000      1.00000000      1.00000000      1.00000000      1.00000000      1.00000000      1.00000000      1.00000000      1.00000000      1.00000000      1.00000000
      1.00000000      1.00000000      1.00000000      1.00000000      1.00000000      1.00000000      1.00000000      1.00000000      1.00000000      1.00000000      1.00000000      1.00000000      1.00000000      1.00000000      1.00000000      1.00000000      1.00000000      1.00000000      1.00000000      1.00000000
      1.00000000      1.00000000      1.00000000      1.00000000      1.00000000      1.00000000      1.00000000      1.00000000      1.00000000      1.00000000      1.00000000      1.00000000      1.00000000      1.00000000      1.00000000      1.00000000      1.00000000      1.00000000      1.00000000      1.00000000
      1.00000000      1.00000000      1.00000000      1.00000000      1.00000000      1.00000000      1.00000000      1.00000000      1.00000000      1.00000000      1.00000000      1.00000000      1.00000000      1.00000000      1.00000000      1.00000000      1.00000000      1.00000000      1.00000000      1.00000000
      1.00000000      1.00000000      1.00000000      1.00000000      1.00000000      1.00000000      1.00000000      1.00000000      1.00000000      1.00000000      1.00000000      1.00000000      1.00000000      1.00000000      1.00000000      1.00000000      1.00000000      1.00000000      1.00000000      1.00000000
      1.00000000      1.00000000      1.00000000      1.00000000      1.00000000      1.00000000      1.00000000      1.00000000      1.00000000      1.00000000      1.00000000      1.00000000      1.00000000      1.00000000      1.00000000      1.00000000      1.00000000      1.00000000      1.00000000      1.00000000
      1.00000000      1.00000000      1.00000000      1.00000000      1.00000000      1.00000000      1.00000000      1.00000000      1.00000000      1.00000000      1.00000000      1.00000000      1.00000000      1.00000000      1.00000000      1.00000000      1.00000000      1.00000000      1.00000000      1.00000000
      1.00000000      1.00000000      1.00000000      1.00000000      1.00000000      1.00000000      1.00000000      1.00000000      1.00000000      1.00000000      1.00000000      1.00000000      1.00000000      1.00000000      1.00000000      1.00000000      1.00000000      1.00000000      1.00000000      1.00000000
      1.00000000      1.00000000      1.00000000      1.00000000      1.00000000      1.00000000      1.00000000      1.00000000      1.00000000      1.00000000      1.00000000      1.00000000      1.00000000      1.00000000      1.00000000      1.00000000      1.00000000      1.00000000      1.00000000      1.00000000
      1.00000000      1.00000000      1.00000000      1.00000000      1.00000000      1.00000000      1.00000000      1.00000000      1.00000000      1.00000000      1.00000000      1.00000000      1.00000000      1.00000000      1.00000000      1.00000000      1.00000000      1.00000000      1.00000000      1.00000000
      1.00000000      1.00000000      1.00000000      1.00000000      1.00000000      1.00000000      1.00000000      1.00000000      1.00000000      1.00000000      1.00000000      1.00000000      1.00000000      1.00000000      1.00000000      1.00000000      1.00000000      1.00000000      1.00000000      1.00000000
      1.00000000      1.00000000      1.00000000      1.00000000      1.00000000      1.00000000      1.00000000      1.00000000      1.00000000      1.00000000      1.00000000      1.00000000      1.00000000      1.00000000      1.00000000      1.00000000      1.00000000      1.00000000      1.00000000      1.00000000
      1.00000000      1.00000000      1.00000000      1.00000000      1.00000000      1.00000000      1.00000000      1.00000000</v>
    <i name="NUPDOWN">     -1.00000000</i>
    <i type="logical" name="LSORBIT"> F  </i>
    <v name="SAXIS">      0.00000000      0.00000000      1.00000000</v>
    <i type="logical" name="LSPIRAL"> F  </i>
    <v name="QSPIRAL">      0.00000000      0.00000000      0.00000000</v>
    <i type="logical" name="LZEROZ"> F  </i>
   </separator>
   <separator name="electronic exchange-correlation" >
    <i type="logical" name="LASPH"> F  </i>
    <i type="logical" name="LMETAGGA"> F  </i>
   </separator>
   <separator name="electronic convergence" >
    <i type="int" name="NELM">   100</i>
    <i type="int" name="NELMDL">     0</i>
    <i type="int" name="NELMIN">     4</i>
    <i name="ENINI">    500.00000000</i>
    <separator name="electronic convergence detail" >
     <i type="logical" name="LDIAG"> T  </i>
     <i type="logical" name="LSUBROT"> F  </i>
     <i name="WEIMIN">      0.00100000</i>
     <i name="EBREAK">      0.00000000</i>
     <i name="DEPER">      0.30000000</i>
     <i type="int" name="NRMM">     4</i>
     <i name="TIME">      0.40000000</i>
    </separator>
   </separator>
   <separator name="electronic mixer" >
    <i name="AMIX">      0.40000000</i>
    <i name="BMIX">      1.00000000</i>
    <i name="AMIN">      0.10000000</i>
    <i name="AMIX_MAG">      1.60000000</i>
    <i name="BMIX_MAG">      1.00000000</i>
    <separator name="electronic mixer details" >
     <i type="int" name="IMIX">     4</i>
     <i type="logical" name="MIXFIRST"> F  </i>
     <i type="int" name="MAXMIX">   -45</i>
     <i name="WC">    100.00000000</i>
     <i type="int" name="INIMIX">     1</i>
     <i type="int" name="MIXPRE">     1</i>
     <i type="int" name="MREMOVE">     5</i>
    </separator>
   </separator>
   <separator name="electronic dipolcorrection" >
    <i type="logical" name="LDIPOL"> F  </i>
    <i type="logical" name="LMONO"> F  </i>
    <i type="int" name="IDIPOL">     0</i>
    <i name="EPSILON">      1.00000000</i>
    <v name="DIPOL">   -100.00000000   -100.00000000   -100.00000000</v>
    <i name="EFIELD">      0.00000000</i>
   </separator>
  </separator>
  <separator name="grids" >
   <i type="int" name="NGX">    72</i>
   <i type="int" name="NGY">    64</i>
   <i type="int" name="NGZ">   336</i>
   <i type="int" name="NGXF">   144</i>
   <i type="int" name="NGYF">   128</i>
   <i type="int" name="NGZF">   672</i>
   <i type="logical" name="ADDGRID"> F  </i>
  </separator>
  <separator name="ionic" >
   <i type="int" name="NSW">   500</i>
   <i type="int" name="IBRION">     2</i>
   <i type="int" name="MDALGO">     0</i>
   <i type="int" name="ISIF">     2</i>
   <i name="PSTRESS">      0.00000000</i>
   <i name="EDIFFG">      0.00010000</i>
   <i type="int" name="NFREE">     1</i>
   <i name="POTIM">      0.25000000</i>
   <i name="SMASS">     -3.00000000</i>
   <i name="SCALEE">      1.00000000</i>
  </separator>
  <separator name="ionic md" >
   <i name="TEBEG">      0.00010000</i>
   <i name="TEEND">      0.00010000</i>
   <i type="int" name="NBLOCK">     1</i>
   <i type="int" name="KBLOCK">   500</i>
   <i type="int" name="NPACO">   256</i>
   <i name="APACO">     16.00000000</i>
  </separator>
  <separator name="symmetry" >
   <i type="int" name="ISYM">     2</i>
   <i name="SYMPREC">      0.00001000</i>
  </separator>
  <separator name="dos" >
   <i type="int" name="LORBIT">     0</i>
   <v name="RWIGS">     -1.00000000     -1.00000000</v>
   <i type="int" name="NEDOS">   301</i>
   <i name="EMIN">     10.00000000</i>
   <i name="EMAX">    -10.00000000</i>
   <i name="EFERMI">      0.00000000</i>
  </separator>
  <separator name="writing" >
   <i type="int" name="NWRITE">     2</i>
   <i type="logical" name="LWAVE"> F  </i>
   <i type="logical" name="LDOWNSAMPLE"> F  </i>
   <i type="logical" name="LCHARG"> F  </i>
   <i type="logical" name="LPARD"> F  </i>
   <i type="logical" name="LVTOT"> F  </i>
   <i type="logical" name="LVHAR"> F  </i>
   <i type="logical" name="LELF"> F  </i>
   <i type="logical" name="LOPTICS"> F  </i>
   <v name="STM">      0.00000000      0.00000000      0.00000000      0.00000000      0.00000000      0.00000000      0.00000000</v>
  </separator>
  <separator name="performance" >
   <i type="int" name="NPAR">    10</i>
   <i type="int" name="NSIM">     4</i>
   <i type="int" name="NBLK">    -1</i>
   <i type="logical" name="LPLANE"> T  </i>
   <i type="logical" name="LSCALAPACK"> F  </i>
   <i type="logical" name="LSCAAWARE"> F  </i>
   <i type="logical" name="LSCALU"> F  </i>
   <i type="logical" name="LASYNC"> F  </i>
   <i type="logical" name="LORBITALREAL"> F  </i>
  </separator>
  <separator name="miscellaneous" >
   <i type="int" name="IDIOT">     3</i>
   <i type="int" name="ISPECIAL">     0</i>
   <i type="logical" name="LMUSIC"> F  </i>
   <v name="POMASS">     55.84700000     54.93800000</v>
   <v name="DARWINR">      0.00000000      0.00000000</v>
   <v name="DARWINV">      1.00000000      1.00000000</v>
   <i type="logical" name="LCORR"> T  </i>
  </separator>
  <i type="logical" name="GGA_COMPAT"> T  </i>
  <i type="logical" name="LBERRY"> F  </i>
  <i type="int" name="ICORELEVEL">     0</i>
  <i type="logical" name="LDAU"> F  </i>
  <i type="int" name="I_CONSTRAINED_M">     0</i>
  <separator name="electronic exchange-correlation" >
   <i type="string" name="GGA">--</i>
   <i type="int" name="VOSKOWN">     0</i>
   <i type="logical" name="LHFCALC"> F  </i>
   <i type="string" name="PRECFOCK"></i>
   <i type="logical" name="LSYMGRAD"> F  </i>
   <i type="logical" name="LHFONE"> F  </i>
   <i type="logical" name="LRHFCALC"> F  </i>
   <i type="logical" name="LTHOMAS"> F  </i>
   <i type="logical" name="LMODELHF"> F  </i>
   <i name="ENCUT4O">     -1.00000000</i>
   <i type="int" name="EXXOEP">     0</i>
   <i type="int" name="FOURORBIT">     0</i>
   <i name="AEXX">      0.00000000</i>
   <i name="HFALPHA">      0.00000000</i>
   <i name="MCALPHA">      0.00000000</i>
   <i name="ALDAX">      1.00000000</i>
   <i name="AGGAX">      1.00000000</i>
   <i name="ALDAC">      1.00000000</i>
   <i name="AGGAC">      1.00000000</i>
   <i type="int" name="NKREDX">     1</i>
   <i type="int" name="NKREDY">     1</i>
   <i type="int" name="NKREDZ">     1</i>
   <i type="logical" name="SHIFTRED"> F  </i>
   <i type="logical" name="ODDONLY"> F  </i>
   <i type="logical" name="EVENONLY"> F  </i>
   <i type="int" name="LMAXFOCK">     0</i>
   <i type="int" name="NMAXFOCKAE">     0</i>
   <i type="logical" name="LFOCKAEDFT"> F  </i>
   <i name="HFSCREEN">      0.00000000</i>
   <i name="HFSCREENC">      0.00000000</i>
   <i type="int" name="NBANDSGWLOW">     0</i>
  </separator>
  <separator name="vdW DFT" >
   <i type="logical" name="LUSE_VDW"> F  </i>
   <i name="Zab_VDW">     -0.84910000</i>
   <i name="PARAM1">      0.12340000</i>
   <i name="PARAM2">      1.00000000</i>
   <i name="PARAM3">      0.00000000</i>
  </separator>
  <separator name="model GW" >
   <i type="int" name="MODEL_GW">     0</i>
   <i name="MODEL_EPS0">      7.68123361</i>
   <i name="MODEL_ALPHA">      1.00000000</i>
  </separator>
  <separator name="linear response parameters" >
   <i type="logical" name="LEPSILON"> F  </i>
   <i type="logical" name="LRPA"> F  </i>
   <i type="logical" name="LNABLA"> F  </i>
   <i type="logical" name="LVEL"> F  </i>
   <i type="int" name="KINTER">     0</i>
   <i name="CSHIFT">      0.10000000</i>
   <i name="OMEGAMAX">     -1.00000000</i>
   <i name="DEG_THRESHOLD">      0.00200000</i>
   <i name="RTIME">     -0.10000000</i>
   <i name="WPLASMAI">      0.00000000</i>
   <v name="DFIELD">      0.00000000      0.00000000      0.00000000</v>
   <v name="WPLASMA">      0.00000000      0.00000000      0.00000000      0.00000000      0.00000000      0.00000000      0.00000000      0.00000000      0.00000000</v>
  </separator>
  <separator name="orbital magnetization" >
   <i type="logical" name="NUCIND"> F  </i>
   <v name="MAGPOS">      0.00000000      0.00000000      0.00000000</v>
   <i type="logical" name="LNICSALL"> T  </i>
   <i type="logical" name="ORBITALMAG"> F  </i>
   <i type="logical" name="LMAGBLOCH"> F  </i>
   <i type="logical" name="LCHIMAG"> F  </i>
   <i type="logical" name="LGAUGE"> T  </i>
   <i type="int" name="MAGATOM">     0</i>
   <v name="MAGDIPOL">      0.00000000      0.00000000      0.00000000</v>
   <v name="AVECCONST">      0.00000000      0.00000000      0.00000000</v>
  </separator>
  <separator name="response functions" >
   <i type="logical" name="LADDER"> F  </i>
   <i type="logical" name="LRPAFORCE"> F  </i>
   <i type="logical" name="LFXC"> F  </i>
   <i type="logical" name="LHARTREE"> T  </i>
   <i type="int" name="IBSE">     0</i>
   <v type="int" name="KPOINT">    -1     0     0     0</v>
   <i type="logical" name="LTCTE"> F  </i>
   <i type="logical" name="LTETE"> F  </i>
   <i type="logical" name="LTRIPLET"> F  </i>
   <i type="logical" name="LFXCEPS"> F  </i>
   <i type="logical" name="LFXHEG"> F  </i>
   <i type="int" name="NATURALO">     2</i>
   <i type="logical" name="L2ORDER"> F  </i>
   <i type="logical" name="LMP2LT"> F  </i>
   <i type="logical" name="LUSEW"> F  </i>
   <i name="ENCUTGW">     -2.00000000</i>
   <i name="ENCUTGWSOFT">     -2.00000000</i>
   <i name="ENCUTLF">     -1.00000000</i>
   <i type="int" name="LMAXMP2">    -1</i>
   <i name="SCISSOR">      0.00000000</i>
   <i type="int" name="NOMEGA">     0</i>
   <i type="int" name="NOMEGAR">     0</i>
   <i type="int" name="NBANDSGW">    -1</i>
   <i type="int" name="NBANDSO">    -1</i>
   <i type="int" name="NBANDSV">    -1</i>
   <i type="int" name="NELM">   100</i>
   <i type="int" name="NELMHF">     1</i>
   <i type="int" name="DIM">     3</i>
   <i type="int" name="ANTIRES">     0</i>
   <i name="OMEGAMAX">    -30.00000000</i>
   <i name="OMEGAMIN">    -30.00000000</i>
   <i name="OMEGATL">   -200.00000000</i>
   <i type="int" name="OMEGAGRID">   140</i>
   <i name="CSHIFT">     -0.10000000</i>
   <i type="logical" name="SELFENERGY"> F  </i>
   <i type="logical" name="LSPECTRAL"> F  </i>
   <i type="logical" name="LSPECTRALGW"> F  </i>
   <i type="logical" name="LSINGLES"> F  </i>
   <i type="logical" name="LFERMIGW"> F  </i>
   <i type="logical" name="ODDONLYGW"> F  </i>
   <i type="logical" name="EVENONLYGW"> F  </i>
   <i type="int" name="NKREDLFX">     1</i>
   <i type="int" name="NKREDLFY">     1</i>
   <i type="int" name="NKREDLFZ">     1</i>
   <i type="int" name="MAXMEM">  2800</i>
   <i type="int" name="TELESCOPE">     0</i>
   <i type="int" name="TAUPAR">     1</i>
   <i type="int" name="OMEGAPAR">    -1</i>
   <i name="LAMBDA">      1.00000000</i>
  </separator>
  <separator name="External order field" >
   <i name="OFIELD_KAPPA">      0.00000000</i>
   <v name="OFIELD_K">      0.00000000      0.00000000      0.00000000</v>
   <i name="OFIELD_Q6_NEAR">      0.00000000</i>
   <i name="OFIELD_Q6_FAR">      0.00000000</i>
   <i name="OFIELD_A">      0.00000000</i>
  </separator>
 </parameters>
 <atominfo>
  <atoms>     288 </atoms>
  <types>       2 </types>
  <array name="atoms" >
   <dimension dim="1">ion</dimension>
   <field type="string">element</field>
   <field type="int">atomtype</field>
   <set>
    <rc><c>Fe</c><c>   1</c></rc>
    <rc><c>Fe</c><c>   1</c></rc>
    <rc><c>Fe</c><c>   1</c></rc>
    <rc><c>Fe</c><c>   1</c></rc>
    <rc><c>Fe</c><c>   1</c></rc>
    <rc><c>Fe</c><c>   1</c></rc>
    <rc><c>Fe</c><c>   1</c></rc>
    <rc><c>Fe</c><c>   1</c></rc>
    <rc><c>Fe</c><c>   1</c></rc>
    <rc><c>Fe</c><c>   1</c></rc>
    <rc><c>Fe</c><c>   1</c></rc>
    <rc><c>Fe</c><c>   1</c></rc>
    <rc><c>Fe</c><c>   1</c></rc>
    <rc><c>Fe</c><c>   1</c></rc>
    <rc><c>Fe</c><c>   1</c></rc>
    <rc><c>Fe</c><c>   1</c></rc>
    <rc><c>Fe</c><c>   1</c></rc>
    <rc><c>Fe</c><c>   1</c></rc>
    <rc><c>Fe</c><c>   1</c></rc>
    <rc><c>Fe</c><c>   1</c></rc>
    <rc><c>Fe</c><c>   1</c></rc>
    <rc><c>Fe</c><c>   1</c></rc>
    <rc><c>Fe</c><c>   1</c></rc>
    <rc><c>Fe</c><c>   1</c></rc>
    <rc><c>Fe</c><c>   1</c></rc>
    <rc><c>Fe</c><c>   1</c></rc>
    <rc><c>Fe</c><c>   1</c></rc>
    <rc><c>Fe</c><c>   1</c></rc>
    <rc><c>Fe</c><c>   1</c></rc>
    <rc><c>Fe</c><c>   1</c></rc>
    <rc><c>Fe</c><c>   1</c></rc>
    <rc><c>Fe</c><c>   1</c></rc>
    <rc><c>Fe</c><c>   1</c></rc>
    <rc><c>Fe</c><c>   1</c></rc>
    <rc><c>Fe</c><c>   1</c></rc>
    <rc><c>Fe</c><c>   1</c></rc>
    <rc><c>Fe</c><c>   1</c></rc>
    <rc><c>Fe</c><c>   1</c></rc>
    <rc><c>Fe</c><c>   1</c></rc>
    <rc><c>Fe</c><c>   1</c></rc>
    <rc><c>Fe</c><c>   1</c></rc>
    <rc><c>Fe</c><c>   1</c></rc>
    <rc><c>Fe</c><c>   1</c></rc>
    <rc><c>Fe</c><c>   1</c></rc>
    <rc><c>Fe</c><c>   1</c></rc>
    <rc><c>Fe</c><c>   1</c></rc>
    <rc><c>Fe</c><c>   1</c></rc>
    <rc><c>Fe</c><c>   1</c></rc>
    <rc><c>Fe</c><c>   1</c></rc>
    <rc><c>Fe</c><c>   1</c></rc>
    <rc><c>Fe</c><c>   1</c></rc>
    <rc><c>Fe</c><c>   1</c></rc>
    <rc><c>Fe</c><c>   1</c></rc>
    <rc><c>Fe</c><c>   1</c></rc>
    <rc><c>Fe</c><c>   1</c></rc>
    <rc><c>Fe</c><c>   1</c></rc>
    <rc><c>Fe</c><c>   1</c></rc>
    <rc><c>Fe</c><c>   1</c></rc>
    <rc><c>Fe</c><c>   1</c></rc>
    <rc><c>Fe</c><c>   1</c></rc>
    <rc><c>Fe</c><c>   1</c></rc>
    <rc><c>Fe</c><c>   1</c></rc>
    <rc><c>Fe</c><c>   1</c></rc>
    <rc><c>Fe</c><c>   1</c></rc>
    <rc><c>Fe</c><c>   1</c></rc>
    <rc><c>Fe</c><c>   1</c></rc>
    <rc><c>Fe</c><c>   1</c></rc>
    <rc><c>Fe</c><c>   1</c></rc>
    <rc><c>Fe</c><c>   1</c></rc>
    <rc><c>Fe</c><c>   1</c></rc>
    <rc><c>Fe</c><c>   1</c></rc>
    <rc><c>Fe</c><c>   1</c></rc>
    <rc><c>Fe</c><c>   1</c></rc>
    <rc><c>Fe</c><c>   1</c></rc>
    <rc><c>Fe</c><c>   1</c></rc>
    <rc><c>Fe</c><c>   1</c></rc>
    <rc><c>Fe</c><c>   1</c></rc>
    <rc><c>Fe</c><c>   1</c></rc>
    <rc><c>Fe</c><c>   1</c></rc>
    <rc><c>Fe</c><c>   1</c></rc>
    <rc><c>Fe</c><c>   1</c></rc>
    <rc><c>Fe</c><c>   1</c></rc>
    <rc><c>Fe</c><c>   1</c></rc>
    <rc><c>Fe</c><c>   1</c></rc>
    <rc><c>Fe</c><c>   1</c></rc>
    <rc><c>Fe</c><c>   1</c></rc>
    <rc><c>Fe</c><c>   1</c></rc>
    <rc><c>Fe</c><c>   1</c></rc>
    <rc><c>Fe</c><c>   1</c></rc>
    <rc><c>Fe</c><c>   1</c></rc>
    <rc><c>Fe</c><c>   1</c></rc>
    <rc><c>Fe</c><c>   1</c></rc>
    <rc><c>Fe</c><c>   1</c></rc>
    <rc><c>Fe</c><c>   1</c></rc>
    <rc><c>Fe</c><c>   1</c></rc>
    <rc><c>Fe</c><c>   1</c></rc>
    <rc><c>Fe</c><c>   1</c></rc>
    <rc><c>Fe</c><c>   1</c></rc>
    <rc><c>Fe</c><c>   1</c></rc>
    <rc><c>Fe</c><c>   1</c></rc>
    <rc><c>Fe</c><c>   1</c></rc>
    <rc><c>Fe</c><c>   1</c></rc>
    <rc><c>Fe</c><c>   1</c></rc>
    <rc><c>Fe</c><c>   1</c></rc>
    <rc><c>Fe</c><c>   1</c></rc>
    <rc><c>Fe</c><c>   1</c></rc>
    <rc><c>Fe</c><c>   1</c></rc>
    <rc><c>Fe</c><c>   1</c></rc>
    <rc><c>Fe</c><c>   1</c></rc>
    <rc><c>Fe</c><c>   1</c></rc>
    <rc><c>Fe</c><c>   1</c></rc>
    <rc><c>Fe</c><c>   1</c></rc>
    <rc><c>Fe</c><c>   1</c></rc>
    <rc><c>Fe</c><c>   1</c></rc>
    <rc><c>Fe</c><c>   1</c></rc>
    <rc><c>Fe</c><c>   1</c></rc>
    <rc><c>Fe</c><c>   1</c></rc>
    <rc><c>Fe</c><c>   1</c></rc>
    <rc><c>Fe</c><c>   1</c></rc>
    <rc><c>Fe</c><c>   1</c></rc>
    <rc><c>Fe</c><c>   1</c></rc>
    <rc><c>Fe</c><c>   1</c></rc>
    <rc><c>Fe</c><c>   1</c></rc>
    <rc><c>Fe</c><c>   1</c></rc>
    <rc><c>Fe</c><c>   1</c></rc>
    <rc><c>Fe</c><c>   1</c></rc>
    <rc><c>Fe</c><c>   1</c></rc>
    <rc><c>Fe</c><c>   1</c></rc>
    <rc><c>Fe</c><c>   1</c></rc>
    <rc><c>Fe</c><c>   1</c></rc>
    <rc><c>Fe</c><c>   1</c></rc>
    <rc><c>Fe</c><c>   1</c></rc>
    <rc><c>Fe</c><c>   1</c></rc>
    <rc><c>Fe</c><c>   1</c></rc>
    <rc><c>Fe</c><c>   1</c></rc>
    <rc><c>Fe</c><c>   1</c></rc>
    <rc><c>Fe</c><c>   1</c></rc>
    <rc><c>Fe</c><c>   1</c></rc>
    <rc><c>Fe</c><c>   1</c></rc>
    <rc><c>Fe</c><c>   1</c></rc>
    <rc><c>Fe</c><c>   1</c></rc>
    <rc><c>Fe</c><c>   1</c></rc>
    <rc><c>Fe</c><c>   1</c></rc>
    <rc><c>Fe</c><c>   1</c></rc>
    <rc><c>Fe</c><c>   1</c></rc>
    <rc><c>Fe</c><c>   1</c></rc>
    <rc><c>Fe</c><c>   1</c></rc>
    <rc><c>Fe</c><c>   1</c></rc>
    <rc><c>Fe</c><c>   1</c></rc>
    <rc><c>Fe</c><c>   1</c></rc>
    <rc><c>Fe</c><c>   1</c></rc>
    <rc><c>Fe</c><c>   1</c></rc>
    <rc><c>Fe</c><c>   1</c></rc>
    <rc><c>Fe</c><c>   1</c></rc>
    <rc><c>Fe</c><c>   1</c></rc>
    <rc><c>Fe</c><c>   1</c></rc>
    <rc><c>Fe</c><c>   1</c></rc>
    <rc><c>Fe</c><c>   1</c></rc>
    <rc><c>Fe</c><c>   1</c></rc>
    <rc><c>Fe</c><c>   1</c></rc>
    <rc><c>Fe</c><c>   1</c></rc>
    <rc><c>Fe</c><c>   1</c></rc>
    <rc><c>Fe</c><c>   1</c></rc>
    <rc><c>Fe</c><c>   1</c></rc>
    <rc><c>Fe</c><c>   1</c></rc>
    <rc><c>Fe</c><c>   1</c></rc>
    <rc><c>Fe</c><c>   1</c></rc>
    <rc><c>Fe</c><c>   1</c></rc>
    <rc><c>Fe</c><c>   1</c></rc>
    <rc><c>Fe</c><c>   1</c></rc>
    <rc><c>Fe</c><c>   1</c></rc>
    <rc><c>Fe</c><c>   1</c></rc>
    <rc><c>Fe</c><c>   1</c></rc>
    <rc><c>Fe</c><c>   1</c></rc>
    <rc><c>Fe</c><c>   1</c></rc>
    <rc><c>Fe</c><c>   1</c></rc>
    <rc><c>Fe</c><c>   1</c></rc>
    <rc><c>Fe</c><c>   1</c></rc>
    <rc><c>Fe</c><c>   1</c></rc>
    <rc><c>Fe</c><c>   1</c></rc>
    <rc><c>Fe</c><c>   1</c></rc>
    <rc><c>Fe</c><c>   1</c></rc>
    <rc><c>Fe</c><c>   1</c></rc>
    <rc><c>Fe</c><c>   1</c></rc>
    <rc><c>Fe</c><c>   1</c></rc>
    <rc><c>Fe</c><c>   1</c></rc>
    <rc><c>Fe</c><c>   1</c></rc>
    <rc><c>Fe</c><c>   1</c></rc>
    <rc><c>Fe</c><c>   1</c></rc>
    <rc><c>Fe</c><c>   1</c></rc>
    <rc><c>Fe</c><c>   1</c></rc>
    <rc><c>Fe</c><c>   1</c></rc>
    <rc><c>Fe</c><c>   1</c></rc>
    <rc><c>Fe</c><c>   1</c></rc>
    <rc><c>Fe</c><c>   1</c></rc>
    <rc><c>Fe</c><c>   1</c></rc>
    <rc><c>Fe</c><c>   1</c></rc>
    <rc><c>Fe</c><c>   1</c></rc>
    <rc><c>Fe</c><c>   1</c></rc>
    <rc><c>Fe</c><c>   1</c></rc>
    <rc><c>Fe</c><c>   1</c></rc>
    <rc><c>Fe</c><c>   1</c></rc>
    <rc><c>Fe</c><c>   1</c></rc>
    <rc><c>Fe</c><c>   1</c></rc>
    <rc><c>Fe</c><c>   1</c></rc>
    <rc><c>Fe</c><c>   1</c></rc>
    <rc><c>Fe</c><c>   1</c></rc>
    <rc><c>Fe</c><c>   1</c></rc>
    <rc><c>Fe</c><c>   1</c></rc>
    <rc><c>Fe</c><c>   1</c></rc>
    <rc><c>Fe</c><c>   1</c></rc>
    <rc><c>Fe</c><c>   1</c></rc>
    <rc><c>Fe</c><c>   1</c></rc>
    <rc><c>Fe</c><c>   1</c></rc>
    <rc><c>Fe</c><c>   1</c></rc>
    <rc><c>Fe</c><c>   1</c></rc>
    <rc><c>Fe</c><c>   1</c></rc>
    <rc><c>Fe</c><c>   1</c></rc>
    <rc><c>Fe</c><c>   1</c></rc>
    <rc><c>Fe</c><c>   1</c></rc>
    <rc><c>Fe</c><c>   1</c></rc>
    <rc><c>Fe</c><c>   1</c></rc>
    <rc><c>Fe</c><c>   1</c></rc>
    <rc><c>Fe</c><c>   1</c></rc>
    <rc><c>Fe</c><c>   1</c></rc>
    <rc><c>Fe</c><c>   1</c></rc>
    <rc><c>Fe</c><c>   1</c></rc>
    <rc><c>Fe</c><c>   1</c></rc>
    <rc><c>Fe</c><c>   1</c></rc>
    <rc><c>Fe</c><c>   1</c></rc>
    <rc><c>Fe</c><c>   1</c></rc>
    <rc><c>Fe</c><c>   1</c></rc>
    <rc><c>Fe</c><c>   1</c></rc>
    <rc><c>Fe</c><c>   1</c></rc>
    <rc><c>Fe</c><c>   1</c></rc>
    <rc><c>Fe</c><c>   1</c></rc>
    <rc><c>Fe</c><c>   1</c></rc>
    <rc><c>Fe</c><c>   1</c></rc>
    <rc><c>Fe</c><c>   1</c></rc>
    <rc><c>Fe</c><c>   1</c></rc>
    <rc><c>Fe</c><c>   1</c></rc>
    <rc><c>Fe</c><c>   1</c></rc>
    <rc><c>Fe</c><c>   1</c></rc>
    <rc><c>Fe</c><c>   1</c></rc>
    <rc><c>Fe</c><c>   1</c></rc>
    <rc><c>Fe</c><c>   1</c></rc>
    <rc><c>Fe</c><c>   1</c></rc>
    <rc><c>Fe</c><c>   1</c></rc>
    <rc><c>Fe</c><c>   1</c></rc>
    <rc><c>Fe</c><c>   1</c></rc>
    <rc><c>Fe</c><c>   1</c></rc>
    <rc><c>Fe</c><c>   1</c></rc>
    <rc><c>Fe</c><c>   1</c></rc>
    <rc><c>Fe</c><c>   1</c></rc>
    <rc><c>Fe</c><c>   1</c></rc>
    <rc><c>Fe</c><c>   1</c></rc>
    <rc><c>Fe</c><c>   1</c></rc>
    <rc><c>Fe</c><c>   1</c></rc>
    <rc><c>Fe</c><c>   1</c></rc>
    <rc><c>Fe</c><c>   1</c></rc>
    <rc><c>Fe</c><c>   1</c></rc>
    <rc><c>Fe</c><c>   1</c></rc>
    <rc><c>Fe</c><c>   1</c></rc>
    <rc><c>Fe</c><c>   1</c></rc>
    <rc><c>Fe</c><c>   1</c></rc>
    <rc><c>Fe</c><c>   1</c></rc>
    <rc><c>Fe</c><c>   1</c></rc>
    <rc><c>Fe</c><c>   1</c></rc>
    <rc><c>Fe</c><c>   1</c></rc>
    <rc><c>Fe</c><c>   1</c></rc>
    <rc><c>Fe</c><c>   1</c></rc>
    <rc><c>Fe</c><c>   1</c></rc>
    <rc><c>Fe</c><c>   1</c></rc>
    <rc><c>Mn</c><c>   2</c></rc>
    <rc><c>Mn</c><c>   2</c></rc>
    <rc><c>Mn</c><c>   2</c></rc>
    <rc><c>Mn</c><c>   2</c></rc>
    <rc><c>Mn</c><c>   2</c></rc>
    <rc><c>Mn</c><c>   2</c></rc>
    <rc><c>Mn</c><c>   2</c></rc>
    <rc><c>Mn</c><c>   2</c></rc>
    <rc><c>Mn</c><c>   2</c></rc>
    <rc><c>Mn</c><c>   2</c></rc>
    <rc><c>Mn</c><c>   2</c></rc>
    <rc><c>Mn</c><c>   2</c></rc>
    <rc><c>Mn</c><c>   2</c></rc>
    <rc><c>Mn</c><c>   2</c></rc>
    <rc><c>Mn</c><c>   2</c></rc>
   </set>
  </array>
  <array name="atomtypes" >
   <dimension dim="1">type</dimension>
   <field type="int">atomspertype</field>
   <field type="string">element</field>
   <field>mass</field>
   <field>valence</field>
   <field type="string">pseudopotential</field>
   <set>
    <rc><c> 273</c><c>Fe</c><c>     55.84700000</c><c>      8.00000000</c><c>  PAW_PBE Fe_GW 31Mar2010               </c></rc>
    <rc><c>  15</c><c>Mn</c><c>     54.93800000</c><c>      7.00000000</c><c>  PAW_PBE Mn_GW 31Mar2010               </c></rc>
   </set>
  </array>
 </atominfo>
 <structure name="initialpos" >
  <crystal>
   <varray name="basis" >
    <v>       9.72667800       0.00000000       0.00000000 </v>
    <v>       0.00000000       8.42355000       0.00000000 </v>
    <v>       0.00000000       0.00000000      45.00000000 </v>
   </varray>
   <i name="volume">   3686.99213101 </i>
   <varray name="rec_basis" >
    <v>       0.10281002       0.00000000       0.00000000 </v>
    <v>       0.00000000       0.11871479       0.00000000 </v>
    <v>       0.00000000       0.00000000       0.02222222 </v>
   </varray>
  </crystal>
  <varray name="positions" >
   <v>       0.43710082       0.29331377       0.74215622 </v>
   <v>       0.93766368       0.62507077       0.65363803 </v>
   <v>       0.43762859       0.79069106       0.60979628 </v>
   <v>       0.18758176       0.45909800       0.69810423 </v>
   <v>       0.18766084       0.11750302       0.16880214 </v>
   <v>       0.31170160       0.20546271       0.47876311 </v>
   <v>       0.56267377       0.53465975       0.25775386 </v>
   <v>       0.43730681       0.62257670       0.52130878 </v>
   <v>       0.18736904       0.12031551       0.43484171 </v>
   <v>       0.81230751       0.37274232       0.52140469 </v>
   <v>       0.68756393       0.12668698       0.78639143 </v>
   <v>       0.18744079       0.95686551       0.56526198 </v>
   <v>       0.31247134       0.20110540       0.21348450 </v>
   <v>       0.18747401       0.96066559       0.83126674 </v>
   <v>       0.31239243       0.70675830       0.56527898 </v>
   <v>       0.43768566       0.79336986       0.87335120 </v>
   <v>       0.81237868       0.70083108       0.21355329 </v>
   <v>       0.56244271       0.71006049       0.83113503 </v>
   <v>       0.06235502       0.54271329       0.74213895 </v>
   <v>       0.93742091       0.96035657       0.83115532 </v>
   <v>       0.43829640       0.29384345       0.87331641 </v>
   <v>       0.68797062       0.11786271       0.16884792 </v>
   <v>       0.93716194       0.45305483       0.34635590 </v>
   <v>       0.81260221       0.70909782       0.69806103 </v>
   <v>       0.06250794       0.37034500       0.43494257 </v>
   <v>       0.81247575       0.71004393       0.83113287 </v>
   <v>       0.18747128       0.45958639       0.83127135 </v>
   <v>       0.43730171       0.12491408       0.65386349 </v>
   <v>       0.81262654       0.54321263       0.74217720 </v>
   <v>       0.31240622       0.87497535       0.65371837 </v>
   <v>       0.06260524       0.70900029       0.69809020 </v>
   <v>       0.68747983       0.45984227       0.83119406 </v>
   <v>       0.68708001       0.78492754       0.12671300 </v>
   <v>       0.56226435       0.70694250       0.56487623 </v>
   <v>       0.68758589       0.79364227       0.87331925 </v>
   <v>       0.18721868       0.45645708       0.56513399 </v>
   <v>       0.93766009       0.12060442       0.43491018 </v>
   <v>       0.81240999       0.53408047       0.12651260 </v>
   <v>       0.31273099       0.87069907       0.43485350 </v>
   <v>       0.81252447       0.54125550       0.60978113 </v>
   <v>       0.31218854       0.87238368       0.52142930 </v>
   <v>       0.93746504       0.62071682       0.43486614 </v>
   <v>       0.31269459       0.37083621       0.43479039 </v>
   <v>       0.31254607       0.54098629       0.60984272 </v>
   <v>       0.06157179       0.54337620       0.87331005 </v>
   <v>       0.81261417       0.86757012       0.16883321 </v>
   <v>       0.06191324       0.03683192       0.39023151 </v>
   <v>       0.43725022       0.45287425       0.34627290 </v>
   <v>       0.93754931       0.45921471       0.69812109 </v>
   <v>       0.31259154       0.37251869       0.52144724 </v>
   <v>       0.81199246       0.70240540       0.34621263 </v>
   <v>       0.18772838       0.61810576       0.16883630 </v>
   <v>       0.31243928       0.36914029       0.30176861 </v>
   <v>       0.43749223       0.78724563       0.39028871 </v>
   <v>       0.18723317       0.28654889       0.39023280 </v>
   <v>       0.93788721       0.29327550       0.74215040 </v>
   <v>       0.68770392       0.28452283       0.25774463 </v>
   <v>       0.68787493       0.45275832       0.34619774 </v>
   <v>       0.81198547       0.20321375       0.34631457 </v>
   <v>       0.31258657       0.37688713       0.78637400 </v>
   <v>       0.81243504       0.03718097       0.39019167 </v>
   <v>       0.68716348       0.45128765       0.21363807 </v>
   <v>       0.93704208       0.28497608       0.12651169 </v>
   <v>       0.81249387       0.37661402       0.78632659 </v>
   <v>       0.93783220       0.78481457       0.12672509 </v>
   <v>       0.56265720       0.36794781       0.16877353 </v>
   <v>       0.81252270       0.03452387       0.25769273 </v>
   <v>       0.68752167       0.62670178       0.78639700 </v>
   <v>       0.43755031       0.12114746       0.43532101 </v>
   <v>       0.18778505       0.95499866       0.47875800 </v>
   <v>       0.43719651       0.29073536       0.60980673 </v>
   <v>       0.06301338       0.21086176       0.83123244 </v>
   <v>       0.68807467       0.45692486       0.56537370 </v>
   <v>       0.06260124       0.87244307       0.52143208 </v>
   <v>       0.68766197       0.62126970       0.43495212 </v>
   <v>       0.93725575       0.95527413       0.47872569 </v>
   <v>       0.93781387       0.45997743       0.83124815 </v>
   <v>       0.56255375       0.53438053       0.12667351 </v>
   <v>       0.93802385       0.29090515       0.60984107 </v>
   <v>       0.93782264       0.61853362       0.30180541 </v>
   <v>       0.68789698       0.62251040       0.52141996 </v>
   <v>       0.31162146       0.70556141       0.47870815 </v>
   <v>       0.93772230       0.61713225       0.16883924 </v>
   <v>       0.93781022       0.12523915       0.65380760 </v>
   <v>       0.81270786       0.54355700       0.87337299 </v>
   <v>       0.56265053       0.54087718       0.60984220 </v>
   <v>       0.68788798       0.95276679       0.34626687 </v>
   <v>       0.18752907       0.95083943       0.21352092 </v>
   <v>       0.18748064       0.45344460       0.34631164 </v>
   <v>       0.93772395       0.11899017       0.30181022 </v>
   <v>       0.06263215       0.87530102       0.65372696 </v>
   <v>       0.31196686       0.21083615       0.83122387 </v>
   <v>       0.43679509       0.28485443       0.12672894 </v>
   <v>       0.56258518       0.20982993       0.83107576 </v>
   <v>       0.18762379       0.78668434       0.39020250 </v>
   <v>       0.18758214       0.28484172       0.25774394 </v>
   <v>       0.06198477       0.53680829       0.39017784 </v>
   <v>       0.31278010       0.70297664       0.34633202 </v>
   <v>       0.06238254       0.20080939       0.21361497 </v>
   <v>       0.31295331       0.04146112       0.60981872 </v>
   <v>       0.43725708       0.62079107       0.43497414 </v>
   <v>       0.43754861       0.11751248       0.16877827 </v>
   <v>       0.43750491       0.78476633       0.25768658 </v>
   <v>       0.18753744       0.79090631       0.60983693 </v>
   <v>       0.68774376       0.78445349       0.25773102 </v>
   <v>       0.43707481       0.95439772       0.47867005 </v>
   <v>       0.93741581       0.79343467       0.87335705 </v>
   <v>       0.31259382       0.54272403       0.74215677 </v>
   <v>       0.56229608       0.04114535       0.60976490 </v>
   <v>       0.18749880       0.79337831       0.87334985 </v>
   <v>       0.81262144       0.20723225       0.56527406 </v>
   <v>       0.43746382       0.45108033       0.21364851 </v>
   <v>       0.56282236       0.37168485       0.43480385 </v>
   <v>       0.06250028       0.70491300       0.47868876 </v>
   <v>       0.06242060       0.04237777       0.87329410 </v>
   <v>       0.68752535       0.45905438       0.69822504 </v>
   <v>       0.06275510       0.37250691       0.52140885 </v>
   <v>       0.93749553       0.62697977       0.78634752 </v>
   <v>       0.18765089       0.62037489       0.43491945 </v>
   <v>       0.18708608       0.12215265       0.52148030 </v>
   <v>       0.81284831       0.70717514       0.56529645 </v>
   <v>       0.68746438       0.29340436       0.74222589 </v>
   <v>       0.56233998       0.54350528       0.87336176 </v>
   <v>       0.93774437       0.78460663       0.25773354 </v>
   <v>       0.68762312       0.29115539       0.60988551 </v>
   <v>       0.81248002       0.37489429       0.65366855 </v>
   <v>       0.68752765       0.29368593       0.87329507 </v>
   <v>       0.81263065       0.04316784       0.74223978 </v>
   <v>       0.93748479       0.12254959       0.52146707 </v>
   <v>       0.06255182       0.70675331       0.56520608 </v>
   <v>       0.43709869       0.45429159       0.47869304 </v>
   <v>       0.93707305       0.11793364       0.16879628 </v>
   <v>       0.56271811       0.20710146       0.56497450 </v>
   <v>       0.06263474       0.54118226       0.60984018 </v>
   <v>       0.93766449       0.79122533       0.60976411 </v>
   <v>       0.56259271       0.53723587       0.39017928 </v>
   <v>       0.81267120       0.04128130       0.60980379 </v>
   <v>       0.93729572       0.45516564       0.47869935 </v>
   <v>       0.43740889       0.61809286       0.16883313 </v>
   <v>       0.43786513       0.12665431       0.78625272 </v>
   <v>       0.68810527       0.45493090       0.47862021 </v>
   <v>       0.81239732       0.53431021       0.25771001 </v>
   <v>       0.31299434       0.20285536       0.34621279 </v>
   <v>       0.18752430       0.79286678       0.74222565 </v>
   <v>       0.81315135       0.20549972       0.47868072 </v>
   <v>       0.93681377       0.29390255       0.87332251 </v>
   <v>       0.18755554       0.12698995       0.78642120 </v>
   <v>       0.31250798       0.36734387       0.16889622 </v>
   <v>       0.06253646       0.20511886       0.47869136 </v>
   <v>       0.06251791       0.20914660       0.69806835 </v>
   <v>       0.68807575       0.12227131       0.52138121 </v>
   <v>       0.56240305       0.04319541       0.74223756 </v>
   <v>       0.18735915       0.45095073       0.21355527 </v>
   <v>       0.18745820       0.45507835       0.47870005 </v>
   <v>       0.43717663       0.95087426       0.21352646 </v>
   <v>       0.43752411       0.28668339       0.39024618 </v>
   <v>       0.06266112       0.20692522       0.56519872 </v>
   <v>       0.68820068       0.12130477       0.43487400 </v>
   <v>       0.31188853       0.20712552       0.56534529 </v>
   <v>       0.06251639       0.71059848       0.83110383 </v>
   <v>       0.43758594       0.28487961       0.25768963 </v>
   <v>       0.06244442       0.87040972       0.43501127 </v>
   <v>       0.06250763       0.53482919       0.25765666 </v>
   <v>       0.56243061       0.37502733       0.65374230 </v>
   <v>       0.68705629       0.28734353       0.39032462 </v>
   <v>       0.68747806       0.96003271       0.83118695 </v>
   <v>       0.81256270       0.87519304       0.65373811 </v>
   <v>       0.31247550       0.71062549       0.83111531 </v>
   <v>       0.68757838       0.95922269       0.69805230 </v>
   <v>       0.06233637       0.53446856       0.12667137 </v>
   <v>       0.56255334       0.03764353       0.39023579 </v>
   <v>       0.56241451       0.54320057       0.74220375 </v>
   <v>       0.31263790       0.53458117       0.25777171 </v>
   <v>       0.68734039       0.61706388       0.16892993 </v>
   <v>       0.43739135       0.78449868       0.12663920 </v>
   <v>       0.56250404       0.87671469       0.78638786 </v>
   <v>       0.56251368       0.87507645       0.65376651 </v>
   <v>       0.56273370       0.86843037       0.30173106 </v>
   <v>       0.56244360       0.70927322       0.69811068 </v>
   <v>       0.56259923       0.20913756       0.69816654 </v>
   <v>       0.56228654       0.37350265       0.52135127 </v>
   <v>       0.81237779       0.20986124       0.83107816 </v>
   <v>       0.56232052       0.87136729       0.43480564 </v>
   <v>       0.81254714       0.36851116       0.30182765 </v>
   <v>       0.93751361       0.62257825       0.52138164 </v>
   <v>       0.56215798       0.86775050       0.16871876 </v>
   <v>       0.56232992       0.20263491       0.34639417 </v>
   <v>       0.43759952       0.62700352       0.78635314 </v>
   <v>       0.31262819       0.04235939       0.87328819 </v>
   <v>       0.93738716       0.28455280       0.25777709 </v>
   <v>       0.43720850       0.61892142       0.30184885 </v>
   <v>       0.93737868       0.78649027       0.39018090 </v>
   <v>       0.43748757       0.45918692       0.69808816 </v>
   <v>       0.81247814       0.20914573       0.69812502 </v>
   <v>       0.06231703       0.70057658       0.21357576 </v>
   <v>       0.31269340       0.03442836       0.25766750 </v>
   <v>       0.18748505       0.29310537       0.74224838 </v>
   <v>       0.18723099       0.61886412       0.30181591 </v>
   <v>       0.81253456       0.87243126       0.52140672 </v>
   <v>       0.81265556       0.53705052       0.39011319 </v>
   <v>       0.06187211       0.86862774       0.30171654 </v>
   <v>       0.93766417       0.79305910       0.74228550 </v>
   <v>       0.81240739       0.20044835       0.21363254 </v>
   <v>       0.06272204       0.03485702       0.25764632 </v>
   <v>       0.68772206       0.62505631       0.65379533 </v>
   <v>       0.43732992       0.79295466       0.74227455 </v>
   <v>       0.68745940       0.12504924       0.65365274 </v>
   <v>       0.06252064       0.04318590       0.74212704 </v>
   <v>       0.93719379       0.95326523       0.34627305 </v>
   <v>       0.18754326       0.95915388       0.69808076 </v>
   <v>       0.31256146       0.20915440       0.69808314 </v>
   <v>       0.81315755       0.70521205       0.47866146 </v>
   <v>       0.06252954       0.03390672       0.12671428 </v>
   <v>       0.18759336       0.78453120       0.12660002 </v>
   <v>       0.43709349       0.95623816       0.56537952 </v>
   <v>       0.56278077       0.87313180       0.52134686 </v>
   <v>       0.31348692       0.54334271       0.87330790 </v>
   <v>       0.18728860       0.62537740       0.65376650 </v>
   <v>       0.68785956       0.28495268       0.12652631 </v>
   <v>       0.43715318       0.11879702       0.30178779 </v>
   <v>       0.56248647       0.70087882       0.21352206 </v>
   <v>       0.31238277       0.53466413       0.12666564 </v>
   <v>       0.56265308       0.70269800       0.34628068 </v>
   <v>       0.68701301       0.78679861       0.39028283 </v>
   <v>       0.68721431       0.61843779       0.30179552 </v>
   <v>       0.56255279       0.20106267       0.21355426 </v>
   <v>       0.93758522       0.95910195       0.69823439 </v>
   <v>       0.18815090       0.28479486       0.12673236 </v>
   <v>       0.93722644       0.12666992       0.78623925 </v>
   <v>       0.31241158       0.03446853       0.12661978 </v>
   <v>       0.56236911       0.03443319       0.25772617 </v>
   <v>       0.93763970       0.95076273       0.21346144 </v>
   <v>       0.56240210       0.03395413       0.12668863 </v>
   <v>       0.56256253       0.36861952       0.30182944 </v>
   <v>       0.43710285       0.46004474       0.83125997 </v>
   <v>       0.18758562       0.29122544       0.60986876 </v>
   <v>       0.81240749       0.87100536       0.43491385 </v>
   <v>       0.43750520       0.95926255       0.69820879 </v>
   <v>       0.93768409       0.45097567       0.21363569 </v>
   <v>       0.31223358       0.53647962       0.39022687 </v>
   <v>       0.06237040       0.04154418       0.60986494 </v>
   <v>       0.81258271       0.87668473       0.78638263 </v>
   <v>       0.68744467       0.95096956       0.21355531 </v>
   <v>       0.31247454       0.04323973       0.74214013 </v>
   <v>       0.18712778       0.95312953       0.34631120 </v>
   <v>       0.31255785       0.70918587       0.69811438 </v>
   <v>       0.81212695       0.37108911       0.43496931 </v>
   <v>       0.81232264       0.86869458       0.30180483 </v>
   <v>       0.43754182       0.62508208       0.65360871 </v>
   <v>       0.06292918       0.86795285       0.16879347 </v>
   <v>       0.06259891       0.37520126       0.65369481 </v>
   <v>       0.06214372       0.36907924       0.30182596 </v>
   <v>       0.31260497       0.86781952       0.16890441 </v>
   <v>       0.81277205       0.04319513       0.87328685 </v>
   <v>       0.18746127       0.12499872       0.65376092 </v>
   <v>       0.18751738       0.78472032       0.25769134 </v>
   <v>       0.06252700       0.37688710       0.78637391 </v>
   <v>       0.93782312       0.45690709       0.56521429 </v>
   <v>       0.18749510       0.11882972       0.30183298 </v>
   <v>       0.93762368       0.95665531       0.56515114 </v>
   <v>       0.31253862       0.87714410       0.78633587 </v>
   <v>       0.18735882       0.62239556       0.52144553 </v>
   <v>       0.18756738       0.62756228       0.78621577 </v>
   <v>       0.93764596       0.28707720       0.39030915 </v>
   <v>       0.56229827       0.04314432       0.87328056 </v>
   <v>       0.43754230       0.96034837       0.83116588 </v>
   <v>       0.81243359       0.03477288       0.12667498 </v>
   <v>       0.06255385       0.87709816       0.78632217 </v>
   <v>       0.06257938       0.36811609       0.16879973 </v>
   <v>       0.68773164       0.95495832       0.47869620 </v>
   <v>       0.31253116       0.37512975       0.65374758 </v>
   <v>       0.56256469       0.37660204       0.78632559 </v>
   <v>       0.31247915       0.70083144       0.21347973 </v>
   <v>       0.43712783       0.45670085       0.56544942 </v>
   <v>       0.43756212       0.12275887       0.52148697 </v>
   <v>       0.68766338       0.95739481       0.56537764 </v>
   <v>       0.43835312       0.95309391       0.34624114 </v>
   <v>       0.56272600       0.70491003       0.47868287 </v>
   <v>       0.31191616       0.86826659       0.30171697 </v>
   <v>       0.81263139       0.36775026       0.16816234 </v>
   <v>       0.06271815       0.20310901       0.34646765 </v>
   <v>       0.18756251       0.29356460       0.87307608 </v>
   <v>       0.68757343       0.79055102       0.61001661 </v>
   <v>       0.31182990       0.03702652       0.39009128 </v>
   <v>       0.68749130       0.79333795       0.74224231 </v>
   <v>       0.56237425       0.20500737       0.47869893 </v>
   <v>       0.68707802       0.11870646       0.30182768 </v>
   <v>       0.06265876       0.70325617       0.34628278 </v>
  </varray>
 </structure>
 <calculation>
  <scstep>
   <time name="dav">  144.53  144.53</time>
   <time name="total">  144.98  144.98</time>
   <energy>
    <i name="alphaZ">  16277.55763135 </i>
    <i name="ewald"> 763217.70958267 </i>
    <i name="hartreedc">-953458.37212500 </i>
    <i name="XCdc">  -6524.68075660 </i>
    <i name="pawpsdc"> 162148.49262465 </i>
    <i name="pawaedc">-159453.03229289 </i>
    <i name="eentropy">     -0.97127568 </i>
    <i name="bandstr">  39733.71950956 </i>
    <i name="atom"> 168497.18126305 </i>
    <i name="e_fr_energy">  30437.60416112 </i>
    <i name="e_wo_entrp">  30438.57543679 </i>
    <i name="e_0_energy">  30438.08979896 </i>
   </energy>
  </scstep>
  <scstep>
   <time name="dav">  142.01  142.01</time>
   <time name="total">  142.01  142.01</time>
   <energy>
    <i name="e_fr_energy">   1533.38638448 </i>
    <i name="e_wo_entrp">   1534.75053462 </i>
    <i name="e_0_energy">   1534.06845955 </i>
   </energy>
  </scstep>
  <scstep>
   <time name="dav">  174.99  174.99</time>
   <time name="total">  175.00  174.99</time>
   <energy>
    <i name="e_fr_energy">  -1896.83751692 </i>
    <i name="e_wo_entrp">  -1893.30879938 </i>
    <i name="e_0_energy">  -1895.07315815 </i>
   </energy>
  </scstep>
  <scstep>
   <time name="dav">  215.08  215.08</time>
   <time name="total">  215.09  215.08</time>
   <energy>
    <i name="e_fr_energy">  -2609.67984502 </i>
    <i name="e_wo_entrp">  -2606.22981891 </i>
    <i name="e_0_energy">  -2607.95483197 </i>
   </energy>
  </scstep>
  <scstep>
   <time name="dav">  206.39  206.38</time>
   <time name="total">  210.99  210.99</time>
   <energy>
    <i name="e_fr_energy">  -2739.75355942 </i>
    <i name="e_wo_entrp">  -2736.23344784 </i>
    <i name="e_0_energy">  -2737.99350363 </i>
   </energy>
  </scstep>
  <scstep>
   <time name="diag">   29.65   29.65</time>
   <time name="diis">   74.58   74.57</time>
   <time name="orth">    9.14    9.14</time>
   <time name="total">  118.86  118.86</time>
   <energy>
    <i name="e_fr_energy">  -7720.96493906 </i>
    <i name="e_wo_entrp">  -7717.73207903 </i>
    <i name="e_0_energy">  -7719.34850905 </i>
   </energy>
  </scstep>
  <scstep>
   <time name="diag">   29.89   29.89</time>
   <time name="diis">   76.77   76.77</time>
   <time name="orth">    8.62    8.62</time>
   <time name="total">  120.32  120.32</time>
   <energy>
    <i name="e_fr_energy">  -9800.15180120 </i>
    <i name="e_wo_entrp">  -9796.75949498 </i>
    <i name="e_0_energy">  -9798.45564809 </i>
   </energy>
  </scstep>
  <scstep>
[...]
    <v>       0.06254305       0.36950907       0.16867812 </v>
    <v>       0.68773166       0.95502894       0.47864062 </v>
    <v>       0.31254185       0.37399548       0.65384245 </v>
    <v>       0.56257118       0.37506113       0.78646059 </v>
    <v>       0.31245487       0.70255586       0.21336039 </v>
    <v>       0.43712206       0.45618955       0.56544910 </v>
    <v>       0.43749607       0.12257693       0.52146191 </v>
    <v>       0.68764357       0.95699207       0.56537037 </v>
    <v>       0.43837765       0.95387728       0.34618026 </v>
    <v>       0.56276325       0.70508148       0.47862398 </v>
    <v>       0.31188787       0.86953853       0.30164792 </v>
    <v>       0.81268321       0.36914366       0.16805332 </v>
    <v>       0.06269574       0.20389542       0.34642561 </v>
    <v>       0.18759738       0.29248836       0.87321292 </v>
    <v>       0.68754220       0.78973903       0.61007662 </v>
    <v>       0.31186802       0.03755471       0.39003522 </v>
    <v>       0.68750021       0.79185878       0.74239281 </v>
    <v>       0.56243727       0.20521799       0.47863718 </v>
    <v>       0.68705764       0.11998128       0.30176591 </v>
    <v>       0.06263561       0.70399731       0.34624176 </v>
   </varray>
  </structure>
  <varray name="forces" >
   <v>      -0.00025510      -0.00133277      -0.00135354 </v>
   <v>       0.00024625       0.00062146      -0.00123319 </v>
   <v>       0.00042082      -0.00397690       0.00397086 </v>
   <v>      -0.00113460       0.00248952       0.00026206 </v>
   <v>      -0.00055440       0.00080212      -0.00142414 </v>
   <v>       0.00563722      -0.00130373       0.00136133 </v>
   <v>      -0.00142311       0.00432302       0.00227778 </v>
   <v>       0.00096112      -0.00021414      -0.00048856 </v>
   <v>      -0.00038312       0.00440601       0.00071794 </v>
   <v>       0.00074749      -0.00291390      -0.00155112 </v>
   <v>      -0.00088767      -0.00420642      -0.00100963 </v>
   <v>       0.00005555      -0.00129753       0.00523163 </v>
   <v>       0.00252157       0.00599261      -0.00385787 </v>
   <v>       0.00110840      -0.00267863       0.00292093 </v>
   <v>       0.00015077      -0.00170773       0.00460760 </v>
   <v>       0.00421364      -0.00086239      -0.00363975 </v>
   <v>       0.00020861       0.00170705      -0.00303414 </v>
   <v>       0.00254693      -0.00278635       0.00037673 </v>
   <v>       0.00135050      -0.00083580       0.00097822 </v>
   <v>       0.00160594      -0.00400369       0.00124918 </v>
   <v>       0.00367185      -0.00198019      -0.00132733 </v>
   <v>      -0.00402591       0.00000873      -0.00162972 </v>
   <v>      -0.00103759      -0.00010949      -0.00000627 </v>
   <v>      -0.00022130      -0.00186681       0.00142609 </v>
   <v>      -0.00011196       0.00447053       0.00109270 </v>
   <v>       0.00159370      -0.00220177       0.00137937 </v>
   <v>       0.00068892      -0.00432969       0.00137013 </v>
   <v>      -0.00151531       0.00095657       0.00118861 </v>
   <v>       0.00132474      -0.00340597       0.00044794 </v>
   <v>      -0.00044098       0.00118427      -0.00104585 </v>
   <v>      -0.00068905       0.00080136       0.00079753 </v>
   <v>       0.00174629      -0.00274842       0.00262852 </v>
   <v>      -0.00464769       0.00523568      -0.00109229 </v>
   <v>       0.00084563      -0.00198868       0.00411578 </v>
   <v>       0.00204951      -0.00170118      -0.00161536 </v>
   <v>       0.00045066       0.00121835       0.00322852 </v>
   <v>       0.00206252       0.00506494      -0.00037146 </v>
   <v>      -0.00350162       0.00070638       0.00121501 </v>
   <v>      -0.00132643       0.00323893       0.00133228 </v>
   <v>      -0.00005876      -0.00221880       0.00143023 </v>
   <v>       0.00175517      -0.00073870       0.00161632 </v>
   <v>      -0.00036441       0.00540666      -0.00077907 </v>
   <v>      -0.00151288       0.00472064       0.00052723 </v>
   <v>      -0.00001801      -0.00258936       0.00157624 </v>
   <v>      -0.00516006      -0.00246988      -0.00290910 </v>
   <v>      -0.00307389       0.00219137      -0.00072943 </v>
   <v>       0.00328431       0.00375640      -0.00181647 </v>
   <v>      -0.00074279       0.00235939      -0.00255179 </v>
   <v>       0.00047740       0.00005837       0.00099098 </v>
   <v>       0.00246595       0.00166450       0.00079054 </v>
   <v>      -0.00108617      -0.00053062      -0.00047305 </v>
   <v>      -0.00079224       0.00050738      -0.00128720 </v>
   <v>       0.00093982      -0.00005317       0.00027728 </v>
   <v>      -0.00150431       0.00347871      -0.00312985 </v>
   <v>      -0.00009830       0.00132889       0.00016978 </v>
   <v>       0.00098825      -0.00029469       0.00019787 </v>
   <v>      -0.00197274       0.00522667      -0.00092390 </v>
   <v>      -0.00035728       0.00049801      -0.00065380 </v>
   <v>       0.00193471       0.00018126       0.00181721 </v>
   <v>      -0.00070517      -0.00228358      -0.00200491 </v>
   <v>       0.00062513      -0.00017681       0.00049302 </v>
   <v>      -0.00038241       0.00067766      -0.00038097 </v>
   <v>      -0.00248321       0.00546729       0.00433856 </v>
   <v>      -0.00031613      -0.00234181      -0.00068402 </v>
   <v>      -0.00223161       0.00848680      -0.00316305 </v>
   <v>      -0.00418391       0.00057878      -0.00308433 </v>
   <v>      -0.00095281       0.00325574      -0.00137970 </v>
   <v>       0.00061950      -0.00384173      -0.00008714 </v>
   <v>      -0.00167361       0.00163542       0.00010607 </v>
   <v>       0.00051158       0.00046303       0.00315441 </v>
   <v>      -0.00085720      -0.00172180       0.00124982 </v>
   <v>       0.00141840      -0.00294894       0.00345623 </v>
   <v>      -0.00183975      -0.00159843       0.00408285 </v>
   <v>       0.00031401      -0.00320587       0.00019171 </v>
   <v>      -0.00096785       0.00411335      -0.00371483 </v>
   <v>       0.00048607       0.00055184      -0.00021982 </v>
   <v>       0.00090415      -0.00153163       0.00011499 </v>
   <v>      -0.00190513      -0.00108610      -0.00479083 </v>
   <v>      -0.00088347      -0.00307740      -0.00060924 </v>
   <v>      -0.00085664      -0.00373133       0.00076681 </v>
   <v>      -0.00110301      -0.00129581      -0.00020573 </v>
   <v>      -0.00031516      -0.00021485       0.00130461 </v>
   <v>      -0.00072394       0.00090109      -0.00641439 </v>
   <v>       0.00032427       0.00427254      -0.00303100 </v>
   <v>      -0.00329449      -0.00015803       0.00062091 </v>
   <v>      -0.00045642      -0.00327459       0.00269988 </v>
   <v>      -0.00052464       0.00113872      -0.00185019 </v>
   <v>       0.00023553       0.00352653       0.00089575 </v>
   <v>       0.00058493       0.00001340      -0.00171530 </v>
   <v>       0.00002586      -0.00242826       0.00179561 </v>
   <v>       0.00031895       0.00327971      -0.00165953 </v>
   <v>      -0.00131800      -0.00192226       0.00290823 </v>
   <v>       0.00387772       0.00060466      -0.00175074 </v>
   <v>       0.00189276      -0.00164004       0.00089401 </v>
   <v>       0.00130130       0.00324914      -0.00019487 </v>
   <v>      -0.00137013       0.00327599      -0.00146786 </v>
   <v>       0.00119402       0.00173938       0.00100279 </v>
   <v>       0.00192597       0.00180036      -0.00394094 </v>
   <v>       0.00065959       0.00130291      -0.00388383 </v>
   <v>      -0.00020238      -0.00307573       0.00078281 </v>
   <v>      -0.00250504       0.00340257      -0.00116348 </v>
   <v>      -0.00058579       0.00261118       0.00170708 </v>
   <v>       0.00014758       0.00171881      -0.00042074 </v>
   <v>       0.00066458      -0.00324441       0.00025330 </v>
   <v>      -0.00107244       0.00380262      -0.00081808 </v>
   <v>       0.00029834       0.00318073       0.00238890 </v>
   <v>      -0.00693157      -0.00359409       0.00082285 </v>
   <v>       0.00025555      -0.00066088      -0.00048775 </v>
   <v>      -0.00076113      -0.00353621       0.00276540 </v>
   <v>      -0.00227809      -0.00230279      -0.00034972 </v>
   <v>       0.00111236      -0.00400104       0.00347158 </v>
   <v>       0.00261125       0.00135782       0.00530641 </v>
   <v>      -0.00105032       0.00291616       0.00114431 </v>
   <v>      -0.00223414       0.00265721       0.00224139 </v>
   <v>      -0.00586633      -0.00212782      -0.00105725 </v>
   <v>       0.00057021      -0.00142603      -0.00010895 </v>
   <v>      -0.00104761      -0.00099511      -0.00111816 </v>
   <v>      -0.00114215      -0.00321195       0.00017846 </v>
   <v>      -0.00036754       0.00538219       0.00204031 </v>
   <v>       0.00024297      -0.00191282       0.00126845 </v>
   <v>      -0.00031082      -0.00211205       0.00281452 </v>
   <v>       0.00099941      -0.00191145      -0.00365283 </v>
   <v>       0.00665477      -0.00121931      -0.00095420 </v>
   <v>      -0.00252202       0.00331375      -0.00063454 </v>
   <v>      -0.00057279      -0.00378649       0.00276558 </v>
   <v>       0.00101170       0.00062545      -0.00223016 </v>
   <v>       0.00278804      -0.00584463       0.00425653 </v>
   <v>       0.00146253      -0.00021447       0.00078039 </v>
   <v>       0.00187063      -0.00247513      -0.00113589 </v>
   <v>       0.00018303      -0.00073482       0.00344831 </v>
   <v>       0.00074914      -0.00130874       0.00019442 </v>
   <v>      -0.00277176      -0.00341552      -0.00169161 </v>
   <v>      -0.00001898      -0.00162395       0.00147638 </v>
   <v>      -0.00031901      -0.00353211      -0.00000579 </v>
   <v>      -0.00064359      -0.00349287       0.00181108 </v>
   <v>      -0.00085382      -0.00026238      -0.00205060 </v>
   <v>      -0.00057333      -0.00445250       0.00053261 </v>
   <v>       0.00103859      -0.00065304       0.00087341 </v>
   <v>       0.00019008      -0.00007728       0.00034429 </v>
   <v>      -0.00160668      -0.00339172      -0.00135513 </v>
   <v>      -0.00091117      -0.00155552      -0.00049693 </v>
   <v>      -0.00080409       0.00519428      -0.00074073 </v>
   <v>      -0.00070012      -0.00006599       0.00181851 </v>
   <v>      -0.00032277       0.00078672      -0.00060310 </v>
   <v>      -0.00044736      -0.00129639      -0.00069300 </v>
   <v>      -0.00554227      -0.00192109      -0.00069484 </v>
   <v>      -0.00173744      -0.00281015      -0.00195687 </v>
   <v>      -0.00108722       0.00279989      -0.00084482 </v>
   <v>      -0.00063986      -0.00009892       0.00282933 </v>
   <v>      -0.00044491       0.00260030      -0.00044594 </v>
   <v>      -0.00294546      -0.00136133      -0.00147328 </v>
   <v>      -0.00171242      -0.00207979      -0.00102131 </v>
   <v>       0.00365298       0.00123604       0.00190824 </v>
   <v>       0.00021658       0.00125951       0.00120655 </v>
   <v>       0.00140654       0.00537960      -0.00073301 </v>
   <v>      -0.00072349      -0.00005421      -0.00033491 </v>
   <v>      -0.00025375      -0.00267591       0.00315725 </v>
   <v>       0.00025515       0.00381291      -0.00179688 </v>
   <v>       0.00109370       0.00091168       0.00373335 </v>
   <v>       0.00126122      -0.00117629       0.00533307 </v>
   <v>      -0.00051849       0.00501815      -0.00109881 </v>
   <v>       0.00039175       0.00400386      -0.00043218 </v>
   <v>      -0.00066252       0.00430175       0.00222918 </v>
   <v>       0.00080017      -0.00123991       0.00157683 </v>
   <v>       0.00014519       0.00156630      -0.00191930 </v>
   <v>       0.00188283      -0.00245787      -0.00343624 </v>
   <v>       0.00224216       0.00135796       0.00072502 </v>
   <v>       0.00044853      -0.00171052       0.00225823 </v>
   <v>      -0.00007309      -0.00182436       0.00251809 </v>
   <v>       0.00304349       0.00786711      -0.00289344 </v>
   <v>      -0.00131950       0.00007695      -0.00264323 </v>
   <v>       0.00099396      -0.00354168      -0.00177077 </v>
   <v>       0.00038530       0.00289756       0.00051143 </v>
   <v>      -0.00297290      -0.00090606      -0.00295246 </v>
   <v>       0.00342705       0.00401974       0.00061266 </v>
   <v>      -0.00128765      -0.00327355      -0.00268188 </v>
   <v>      -0.00118168      -0.00069441       0.00189222 </v>
   <v>       0.00005911      -0.00212185       0.00133043 </v>
   <v>      -0.00043018      -0.00263949       0.00116021 </v>
   <v>      -0.00084833      -0.00090259      -0.00019579 </v>
   <v>      -0.00072436      -0.00600111      -0.00214152 </v>
   <v>       0.00062323      -0.00328364       0.00183291 </v>
   <v>      -0.00202982       0.00310098      -0.00374153 </v>
   <v>      -0.00171454      -0.00281323       0.00162060 </v>
   <v>       0.00144997      -0.00162156      -0.00079830 </v>
   <v>      -0.00227954       0.00518956       0.00065993 </v>
   <v>      -0.00072494       0.00361060      -0.00106946 </v>
   <v>      -0.00077376      -0.00324975      -0.00308774 </v>
   <v>       0.00138359      -0.00054669      -0.00175357 </v>
   <v>      -0.00061601       0.00339870      -0.00027660 </v>
   <v>       0.00071591      -0.00249903       0.00099787 </v>
   <v>      -0.00034947       0.00314475       0.00069692 </v>
   <v>      -0.00090784      -0.00093089       0.00237468 </v>
   <v>       0.00090251      -0.00091519       0.00014011 </v>
   <v>       0.00175602       0.00247502       0.00069790 </v>
   <v>       0.00002399       0.00485834      -0.00420072 </v>
   <v>       0.00153260      -0.00267882      -0.00137673 </v>
   <v>       0.00141201      -0.00336721      -0.00132695 </v>
   <v>       0.00003253      -0.00390427      -0.00125107 </v>
   <v>       0.00004501       0.00227632      -0.00095227 </v>
   <v>      -0.00025705      -0.00396937       0.00014499 </v>
   <v>       0.00121348      -0.00136820      -0.00022044 </v>
   <v>      -0.00002708       0.00034607       0.00011017 </v>
   <v>       0.00060212       0.00483932       0.00117570 </v>
   <v>      -0.00070714       0.00117045      -0.00004705 </v>
   <v>      -0.00004722      -0.00234796      -0.00189702 </v>
   <v>       0.00107943      -0.00023092      -0.00085407 </v>
   <v>       0.00092403       0.00055051       0.00331562 </v>
   <v>       0.00159818       0.00060898       0.00059974 </v>
   <v>       0.00003505       0.00316176       0.00101996 </v>
   <v>      -0.00040093       0.00166687       0.00040774 </v>
   <v>       0.00057048       0.00093597      -0.00079963 </v>
   <v>       0.00216169       0.00455343      -0.00026785 </v>
   <v>       0.00593076       0.00250953      -0.00016180 </v>
   <v>       0.00160422      -0.00273865       0.00565000 </v>
   <v>      -0.00144800      -0.00368865      -0.00107646 </v>
   <v>      -0.00001385      -0.00240135      -0.00481137 </v>
   <v>      -0.00099772       0.00356572      -0.00241843 </v>
   <v>      -0.00482068       0.00149860      -0.00033567 </v>
   <v>      -0.00081435       0.00023082       0.00157375 </v>
   <v>       0.00207118       0.00437084      -0.00210606 </v>
   <v>       0.01028336       0.00108057      -0.00302693 </v>
   <v>      -0.00195231       0.00035613      -0.00200039 </v>
   <v>      -0.00142449       0.00118314      -0.00130599 </v>
   <v>      -0.00082648      -0.00310973       0.00094141 </v>
   <v>       0.00090439       0.00017304      -0.00001795 </v>
   <v>       0.00110667       0.00236769       0.00295189 </v>
   <v>       0.00650674       0.00443078       0.00108857 </v>
   <v>       0.00006813      -0.00317034       0.00077369 </v>
   <v>       0.00816354       0.00187247       0.00175895 </v>
   <v>      -0.00018797       0.00399883      -0.00139962 </v>
   <v>       0.00126324       0.00143769       0.00205218 </v>
   <v>      -0.00037409       0.00477873      -0.00288229 </v>
   <v>      -0.00155298      -0.00060269       0.00095920 </v>
   <v>       0.00148356      -0.00289620       0.00090228 </v>
   <v>      -0.00041835      -0.00235831       0.00094073 </v>
   <v>      -0.00008028       0.00140676      -0.00164075 </v>
   <v>      -0.00090355       0.00072238       0.00053283 </v>
   <v>       0.00073329      -0.00015672      -0.00303820 </v>
   <v>      -0.00019151       0.00209257      -0.00330315 </v>
   <v>      -0.00134738      -0.00333444       0.00106960 </v>
   <v>       0.00127835      -0.00346867      -0.00149511 </v>
   <v>       0.00146283       0.00045818      -0.00036637 </v>
   <v>       0.00041457      -0.00146554      -0.00007076 </v>
   <v>       0.00227744       0.00220126       0.00074398 </v>
   <v>      -0.00120706       0.00013496       0.00066146 </v>
   <v>       0.00050887       0.00382207      -0.00323111 </v>
   <v>      -0.00148843      -0.00389465      -0.00095753 </v>
   <v>      -0.00175244       0.00060094       0.00088548 </v>
   <v>      -0.00255121      -0.00154317       0.00046429 </v>
   <v>       0.00178551       0.00215314      -0.00266966 </v>
   <v>       0.00054277      -0.00271311       0.00005267 </v>
   <v>      -0.00009026       0.00446005       0.00170919 </v>
   <v>      -0.00246038      -0.00305725      -0.00054973 </v>
   <v>       0.00062385       0.00247175      -0.00235864 </v>
   <v>      -0.00119311       0.00284149      -0.00299530 </v>
   <v>      -0.00078852      -0.00260222      -0.00152783 </v>
   <v>      -0.00067369      -0.00150446       0.00175771 </v>
   <v>       0.00228156      -0.00026785       0.00096729 </v>
   <v>      -0.00022704      -0.00132802       0.00496204 </v>
   <v>      -0.00087589      -0.00349756      -0.00289670 </v>
   <v>      -0.00085752      -0.00125825       0.00203512 </v>
   <v>      -0.00199157      -0.00250591       0.00132113 </v>
   <v>       0.00093087       0.00223314       0.00009818 </v>
   <v>       0.00602507      -0.00125403      -0.00335011 </v>
   <v>       0.00004178      -0.00344443       0.00030123 </v>
   <v>      -0.00440333       0.00403390      -0.00224864 </v>
   <v>      -0.00113765      -0.00307581      -0.00131839 </v>
   <v>      -0.00069501       0.00291664      -0.00253007 </v>
   <v>      -0.00057262      -0.00083161      -0.00025345 </v>
   <v>       0.00037307       0.00246380      -0.00025571 </v>
   <v>       0.00022054      -0.00240103      -0.00171655 </v>
   <v>       0.00225931       0.00177615       0.00181133 </v>
   <v>       0.00055952       0.00062023       0.00405980 </v>
   <v>       0.00308775      -0.00195344      -0.00154417 </v>
   <v>      -0.00003077      -0.00249368       0.00514765 </v>
   <v>      -0.00048521       0.00316734      -0.00018362 </v>
   <v>      -0.00029004       0.00091854      -0.00139798 </v>
   <v>       0.00113920      -0.00212363      -0.00522855 </v>
   <v>      -0.00567559      -0.00371733       0.00077659 </v>
   <v>       0.00072751       0.00075138      -0.00114477 </v>
   <v>      -0.00422180      -0.00519498      -0.00109663 </v>
   <v>       0.00138284      -0.00170583       0.00281473 </v>
   <v>      -0.00030932      -0.00107180      -0.00070910 </v>
   <v>       0.00033184      -0.00290848       0.00122624 </v>
   <v>      -0.00244482      -0.00184500       0.00429229 </v>
   <v>       0.00011493      -0.00093849       0.00116247 </v>
   <v>       0.00100193      -0.00190481      -0.00141109 </v>
  </varray>
  <varray name="stress" >
   <v>      -1.48608139       0.03773479       0.00072358 </v>
   <v>       0.03773451      -0.64170374      -1.82853518 </v>
   <v>       0.00072306      -1.82853518      -5.81384999 </v>
  </varray>
  <energy>
   <i name="e_fr_energy">  -2325.93807223 </i>
   <i name="e_wo_entrp">  -2323.18123945 </i>
   <i name="e_0_energy">     -5.51366556 </i>
  </energy>
  <time name="totalsc"> 1521.03 1521.02</time>
 </calculation>
