unknown system                          
            1
     9.726678    0.000000    0.000000
     0.000000    8.423550    0.000000
     0.000000    0.000000   45.000000
   Fe   Mn
 273  15
Direct configuration=     1
   0.43710082  0.29331377  0.74215622
   0.93766368  0.62507077  0.65363803
   0.43762859  0.79069106  0.60979628
   0.18758176  0.45909800  0.69810423
   0.18766084  0.11750302  0.16880214
   0.31170160  0.20546271  0.47876311
   0.56267377  0.53465975  0.25775386
   0.43730681  0.62257670  0.52130878
   0.18736904  0.12031551  0.43484171
   0.81230751  0.37274232  0.52140469
   0.68756393  0.12668698  0.78639143
   0.18744079  0.95686551  0.56526198
   0.31247134  0.20110540  0.21348450
   0.18747401  0.96066559  0.83126674
   0.31239243  0.70675830  0.56527898
   0.43768566  0.79336986  0.87335120
   0.81237868  0.70083108  0.21355329
   0.56244271  0.71006049  0.83113503
   0.06235502  0.54271329  0.74213895
   0.93742091  0.96035657  0.83115532
   0.43829640  0.29384345  0.87331641
   0.68797062  0.11786271  0.16884792
   0.93716194  0.45305483  0.34635590
   0.81260221  0.70909782  0.69806103
   0.06250794  0.37034500  0.43494257
   0.81247575  0.71004393  0.83113287
   0.18747128  0.45958639  0.83127135
   0.43730171  0.12491408  0.65386349
   0.81262654  0.54321263  0.74217720
   0.31240622  0.87497535  0.65371837
   0.06260524  0.70900029  0.69809020
   0.68747983  0.45984227  0.83119406
   0.68708001  0.78492754  0.12671300
   0.56226435  0.70694250  0.56487623
   0.68758589  0.79364227  0.87331925
   0.18721868  0.45645708  0.56513399
   0.93766009  0.12060442  0.43491018
   0.81240999  0.53408047  0.12651260
   0.31273099  0.87069907  0.43485350
   0.81252447  0.54125550  0.60978113
   0.31218854  0.87238368  0.52142930
   0.93746504  0.62071682  0.43486614
   0.31269459  0.37083621  0.43479039
   0.31254607  0.54098629  0.60984272
   0.06157179  0.54337620  0.87331005
   0.81261417  0.86757012  0.16883321
   0.06191324  0.03683192  0.39023151
   0.43725022  0.45287425  0.34627290
   0.93754931  0.45921471  0.69812109
   0.31259154  0.37251869  0.52144724
   0.81199246  0.70240540  0.34621263
   0.18772838  0.61810576  0.16883630
   0.31243928  0.36914029  0.30176861
   0.43749223  0.78724563  0.39028871
   0.18723317  0.28654889  0.39023280
   0.93788721  0.29327550  0.74215040
   0.68770392  0.28452283  0.25774463
   0.68787493  0.45275832  0.34619774
   0.81198547  0.20321375  0.34631457
   0.31258657  0.37688713  0.78637400
   0.81243504  0.03718097  0.39019167
   0.68716348  0.45128765  0.21363807
   0.93704208  0.28497608  0.12651169
   0.81249387  0.37661402  0.78632659
   0.93783220  0.78481457  0.12672509
   0.56265720  0.36794781  0.16877353
   0.81252270  0.03452387  0.25769273
   0.68752167  0.62670178  0.78639700
   0.43755031  0.12114746  0.43532101
   0.18778505  0.95499866  0.47875800
   0.43719651  0.29073536  0.60980673
   0.06301338  0.21086176  0.83123244
   0.68807467  0.45692486  0.56537370
   0.06260124  0.87244307  0.52143208
   0.68766197  0.62126970  0.43495212
   0.93725575  0.95527413  0.47872569
   0.93781387  0.45997743  0.83124815
   0.56255375  0.53438053  0.12667351
   0.93802385  0.29090515  0.60984107
   0.93782264  0.61853362  0.30180541
   0.68789698  0.62251040  0.52141996
   0.31162146  0.70556141  0.47870815
   0.93772230  0.61713225  0.16883924
   0.93781022  0.12523915  0.65380760
   0.81270786  0.54355700  0.87337299
   0.56265053  0.54087718  0.60984220
   0.68788798  0.95276679  0.34626687
   0.18752907  0.95083943  0.21352092
   0.18748064  0.45344460  0.34631164
   0.93772395  0.11899017  0.30181022
   0.06263215  0.87530102  0.65372696
   0.31196686  0.21083615  0.83122387
   0.43679509  0.28485443  0.12672894
   0.56258518  0.20982993  0.83107576
   0.18762379  0.78668434  0.39020250
   0.18758214  0.28484172  0.25774394
   0.06198477  0.53680829  0.39017784
   0.31278010  0.70297664  0.34633202
   0.06238254  0.20080939  0.21361497
   0.31295331  0.04146112  0.60981872
   0.43725708  0.62079107  0.43497414
   0.43754861  0.11751248  0.16877827
   0.43750491  0.78476633  0.25768658
   0.18753744  0.79090631  0.60983693
   0.68774376  0.78445349  0.25773102
   0.43707481  0.95439772  0.47867005
   0.93741581  0.79343467  0.87335705
   0.31259382  0.54272403  0.74215677
   0.56229608  0.04114535  0.60976490
   0.18749880  0.79337831  0.87334985
   0.81262144  0.20723225  0.56527406
   0.43746382  0.45108033  0.21364851
   0.56282236  0.37168485  0.43480385
   0.06250028  0.70491300  0.47868876
   0.06242060  0.04237777  0.87329410
   0.68752535  0.45905438  0.69822504
   0.06275510  0.37250691  0.52140885
   0.93749553  0.62697977  0.78634752
   0.18765089  0.62037489  0.43491945
   0.18708608  0.12215265  0.52148030
   0.81284831  0.70717514  0.56529645
   0.68746438  0.29340436  0.74222589
   0.56233998  0.54350528  0.87336176
   0.93774437  0.78460663  0.25773354
   0.68762312  0.29115539  0.60988551
   0.81248002  0.37489429  0.65366855
   0.68752765  0.29368593  0.87329507
   0.81263065  0.04316784  0.74223978
   0.93748479  0.12254959  0.52146707
   0.06255182  0.70675331  0.56520608
   0.43709869  0.45429159  0.47869304
   0.93707305  0.11793364  0.16879628
   0.56271811  0.20710146  0.56497450
   0.06263474  0.54118226  0.60984018
   0.93766449  0.79122533  0.60976411
   0.56259271  0.53723587  0.39017928
   0.81267120  0.04128130  0.60980379
   0.93729572  0.45516564  0.47869935
   0.43740889  0.61809286  0.16883313
   0.43786513  0.12665431  0.78625272
   0.68810527  0.45493090  0.47862021
   0.81239732  0.53431021  0.25771001
   0.31299434  0.20285536  0.34621279
   0.18752430  0.79286678  0.74222565
   0.81315135  0.20549972  0.47868072
   0.93681377  0.29390255  0.87332251
   0.18755554  0.12698995  0.78642120
   0.31250798  0.36734387  0.16889622
   0.06253646  0.20511886  0.47869136
   0.06251791  0.20914660  0.69806835
   0.68807575  0.12227131  0.52138121
   0.56240305  0.04319541  0.74223756
   0.18735915  0.45095073  0.21355527
   0.18745820  0.45507835  0.47870005
   0.43717663  0.95087426  0.21352646
   0.43752411  0.28668339  0.39024618
   0.06266112  0.20692522  0.56519872
   0.68820068  0.12130477  0.43487400
   0.31188853  0.20712552  0.56534529
   0.06251639  0.71059848  0.83110383
   0.43758594  0.28487961  0.25768963
   0.06244442  0.87040972  0.43501127
   0.06250763  0.53482919  0.25765666
   0.56243061  0.37502733  0.65374230
   0.68705629  0.28734353  0.39032462
   0.68747806  0.96003271  0.83118695
   0.81256270  0.87519304  0.65373811
   0.31247550  0.71062549  0.83111531
   0.68757838  0.95922269  0.69805230
   0.06233637  0.53446856  0.12667137
   0.56255334  0.03764353  0.39023579
   0.56241451  0.54320057  0.74220375
   0.31263790  0.53458117  0.25777171
   0.68734039  0.61706388  0.16892993
   0.43739135  0.78449868  0.12663920
   0.56250404  0.87671469  0.78638786
   0.56251368  0.87507645  0.65376651
   0.56273370  0.86843037  0.30173106
   0.56244360  0.70927322  0.69811068
   0.56259923  0.20913756  0.69816654
   0.56228654  0.37350265  0.52135127
   0.81237779  0.20986124  0.83107816
   0.56232052  0.87136729  0.43480564
   0.81254714  0.36851116  0.30182765
   0.93751361  0.62257825  0.52138164
   0.56215798  0.86775050  0.16871876
   0.56232992  0.20263491  0.34639417
   0.43759952  0.62700352  0.78635314
   0.31262819  0.04235939  0.87328819
   0.93738716  0.28455280  0.25777709
   0.43720850  0.61892142  0.30184885
   0.93737868  0.78649027  0.39018090
   0.43748757  0.45918692  0.69808816
   0.81247814  0.20914573  0.69812502
   0.06231703  0.70057658  0.21357576
   0.31269340  0.03442836  0.25766750
   0.18748505  0.29310537  0.74224838
   0.18723099  0.61886412  0.30181591
   0.81253456  0.87243126  0.52140672
   0.81265556  0.53705052  0.39011319
   0.06187211  0.86862774  0.30171654
   0.93766417  0.79305910  0.74228550
   0.81240739  0.20044835  0.21363254
   0.06272204  0.03485702  0.25764632
   0.68772206  0.62505631  0.65379533
   0.43732992  0.79295466  0.74227455
   0.68745940  0.12504924  0.65365274
   0.06252064  0.04318590  0.74212704
   0.93719379  0.95326523  0.34627305
   0.18754326  0.95915388  0.69808076
   0.31256146  0.20915440  0.69808314
   0.81315755  0.70521205  0.47866146
   0.06252954  0.03390672  0.12671428
   0.18759336  0.78453120  0.12660002
   0.43709349  0.95623816  0.56537952
   0.56278077  0.87313180  0.52134686
   0.31348692  0.54334271  0.87330790
   0.18728860  0.62537740  0.65376650
   0.68785956  0.28495268  0.12652631
   0.43715318  0.11879702  0.30178779
   0.56248647  0.70087882  0.21352206
   0.31238277  0.53466413  0.12666564
   0.56265308  0.70269800  0.34628068
   0.68701301  0.78679861  0.39028283
   0.68721431  0.61843779  0.30179552
   0.56255279  0.20106267  0.21355426
   0.93758522  0.95910195  0.69823439
   0.18815090  0.28479486  0.12673236
   0.93722644  0.12666992  0.78623925
   0.31241158  0.03446853  0.12661978
   0.56236911  0.03443319  0.25772617
   0.93763970  0.95076273  0.21346144
   0.56240210  0.03395413  0.12668863
   0.56256253  0.36861952  0.30182944
   0.43710285  0.46004474  0.83125997
   0.18758562  0.29122544  0.60986876
   0.81240749  0.87100536  0.43491385
   0.43750520  0.95926255  0.69820879
   0.93768409  0.45097567  0.21363569
   0.31223358  0.53647962  0.39022687
   0.06237040  0.04154418  0.60986494
   0.81258271  0.87668473  0.78638263
   0.68744467  0.95096956  0.21355531
   0.31247454  0.04323973  0.74214013
   0.18712778  0.95312953  0.34631120
   0.31255785  0.70918587  0.69811438
   0.81212695  0.37108911  0.43496931
   0.81232264  0.86869458  0.30180483
   0.43754182  0.62508208  0.65360871
   0.06292918  0.86795285  0.16879347
   0.06259891  0.37520126  0.65369481
   0.06214372  0.36907924  0.30182596
   0.31260497  0.86781952  0.16890441
   0.81277205  0.04319513  0.87328685
   0.18746127  0.12499872  0.65376092
   0.18751738  0.78472032  0.25769134
   0.06252700  0.37688710  0.78637391
   0.93782312  0.45690709  0.56521429
   0.18749510  0.11882972  0.30183298
   0.93762368  0.95665531  0.56515114
   0.31253862  0.87714410  0.78633587
   0.18735882  0.62239556  0.52144553
   0.18756738  0.62756228  0.78621577
   0.93764596  0.28707720  0.39030915
   0.56229827  0.04314432  0.87328056
   0.43754230  0.96034837  0.83116588
   0.81243359  0.03477288  0.12667498
   0.06255385  0.87709816  0.78632217
   0.06257938  0.36811609  0.16879973
   0.68773164  0.95495832  0.47869620
   0.31253116  0.37512975  0.65374758
   0.56256469  0.37660204  0.78632559
   0.31247915  0.70083144  0.21347973
   0.43712783  0.45670085  0.56544942
   0.43756212  0.12275887  0.52148697
   0.68766338  0.95739481  0.56537764
   0.43835312  0.95309391  0.34624114
   0.56272600  0.70491003  0.47868287
   0.31191616  0.86826659  0.30171697
   0.81263139  0.36775026  0.16816234
   0.06271815  0.20310901  0.34646765
   0.18756251  0.29356460  0.87307608
   0.68757343  0.79055102  0.61001661
   0.31182990  0.03702652  0.39009128
   0.68749130  0.79333795  0.74224231
   0.56237425  0.20500737  0.47869893
   0.68707802  0.11870646  0.30182768
   0.06265876  0.70325617  0.34628278
Direct configuration=     2
   0.43701417  0.29333361  0.74217504
   0.93770523  0.62505937  0.65366556
   0.43763115  0.79064420  0.60980940
   0.18759221  0.45908936  0.69812293
   0.18761513  0.11749023  0.16876629
   0.31160786  0.20544837  0.47875127
   0.56267647  0.53467814  0.25775274
   0.43721687  0.62254628  0.52129155
   0.18743789  0.12033661  0.43485809
   0.81232043  0.37269727  0.52139434
   0.68754881  0.12672628  0.78640695
   0.18751748  0.95687271  0.56524843
   0.31243531  0.20117198  0.21350698
   0.18749615  0.96064847  0.83123635
   0.31243760  0.70673652  0.56527218
   0.43762219  0.79335272  0.87332645
   0.81239027  0.70073049  0.21355631
   0.56237307  0.71000832  0.83110456
   0.06243185  0.54265646  0.74215771
   0.93748658  0.96038401  0.83112505
   0.43826543  0.29388800  0.87329268
   0.68800223  0.11785505  0.16882263
   0.93720366  0.45305747  0.34636651
   0.81264718  0.70907812  0.69807233
   0.06255741  0.37035450  0.43495507
   0.81251915  0.70999705  0.83110513
   0.18749954  0.45959756  0.83123229
   0.43725018  0.12492460  0.65387889
   0.81267747  0.54317710  0.74218762
   0.31240282  0.87497489  0.65374198
   0.06264793  0.70895180  0.69810098
   0.68745536  0.45979801  0.83117102
   0.68709836  0.78486212  0.12668331
   0.56226469  0.70692179  0.56487543
   0.68754937  0.79361746  0.87329780
   0.18728628  0.45644641  0.56512398
   0.93766343  0.12061548  0.43492462
   0.81241593  0.53405073  0.12648212
   0.31275834  0.87073353  0.43486034
   0.81247293  0.54125859  0.60978999
   0.31218056  0.87237327  0.52141936
   0.93747671  0.62074250  0.43487871
   0.31271485  0.37085973  0.43479929
   0.31258255  0.54095577  0.60985953
   0.06161743  0.54335467  0.87328579
   0.81261528  0.86749465  0.16880379
   0.06195127  0.03683626  0.39023563
   0.43723429  0.45288066  0.34628375
   0.93762169  0.45919492  0.69813710
   0.31253990  0.37258869  0.52143063
   0.81197992  0.70240528  0.34622599
   0.18770822  0.61812872  0.16882062
   0.31248029  0.36911887  0.30179084
   0.43748355  0.78723948  0.39029304
   0.18727363  0.28654706  0.39023544
   0.93798547  0.29328436  0.74216657
   0.68766874  0.28459079  0.25774600
   0.68781329  0.45276859  0.34620768
   0.81197736  0.20318483  0.34632678
   0.31253730  0.37690372  0.78638128
   0.81239830  0.03716414  0.39019593
   0.68720971  0.45135725  0.21364887
   0.93705165  0.28499597  0.12647530
   0.81255720  0.37657299  0.78634182
   0.93780934  0.78479371  0.12670954
   0.56265112  0.36805299  0.16875763
   0.81246849  0.03456920  0.25769536
   0.68749772  0.62661407  0.78640902
   0.43751043  0.12114160  0.43532645
   0.18780517  0.95508154  0.47875739
   0.43718221  0.29073727  0.60981737
   0.06304295  0.21086606  0.83119614
   0.68804237  0.45690650  0.56536519
   0.06262421  0.87244403  0.52140604
   0.68763251  0.62129064  0.43495439
   0.93726767  0.95528600  0.47873304
   0.93787782  0.45996519  0.83121533
   0.56261615  0.53446623  0.12666230
   0.93801754  0.29091555  0.60985755
   0.93779157  0.61852743  0.30182012
   0.68794146  0.62250344  0.52141310
   0.31164348  0.70547861  0.47870606
   0.93772261  0.61712873  0.16882448
   0.93785877  0.12524541  0.65383609
   0.81273379  0.54348243  0.87335241
   0.56260393  0.54087030  0.60985094
   0.68784124  0.95275633  0.34627802
   0.18755112  0.95084055  0.21352658
   0.18752432  0.45342817  0.34632663
   0.93771992  0.11899975  0.30183377
   0.06267386  0.87529331  0.65375644
   0.31196941  0.21084463  0.83118856
   0.43676722  0.28485863  0.12670736
   0.56254599  0.20985126  0.83104380
   0.18766213  0.78665582  0.39020533
   0.18762262  0.28487675  0.25774608
   0.06203835  0.53681674  0.39017848
   0.31281608  0.70297321  0.34634553
   0.06235636  0.20092404  0.21361610
   0.31299193  0.04147285  0.60983419
   0.43720837  0.62080014  0.43497913
   0.43750641  0.11748077  0.16874923
   0.43750036  0.78480052  0.25769547
   0.18760469  0.79086410  0.60985882
   0.68770441  0.78445233  0.25773503
   0.43700877  0.95437488  0.47865581
   0.93748185  0.79341721  0.87333087
   0.31255916  0.54266729  0.74217621
   0.56224854  0.04114334  0.60977554
   0.18752229  0.79336449  0.87332304
   0.81256159  0.20725829  0.56525868
   0.43749206  0.45116503  0.21366104
   0.56277716  0.37170162  0.43480369
   0.06249821  0.70493065  0.47869303
   0.06246964  0.04240362  0.87327074
   0.68751239  0.45904009  0.69823786
   0.06272653  0.37252921  0.52138887
   0.93763179  0.62689847  0.78636019
   0.18770618  0.62039571  0.43492712
   0.18710189  0.12215342  0.52145448
   0.81279445  0.70714888  0.56528188
   0.68744635  0.29339373  0.74223817
   0.56228284  0.54344285  0.87334168
   0.93771840  0.78457515  0.25772933
   0.68755176  0.29115692  0.60989053
   0.81249188  0.37489575  0.65368888
   0.68750545  0.29367244  0.87327669
   0.81267584  0.04317658  0.74225198
   0.93746568  0.12259775  0.52144250
   0.06256558  0.70674012  0.56518801
   0.43700110  0.45437043  0.47868507
   0.93710899  0.11794485  0.16876738
   0.56272961  0.20711292  0.56498286
   0.06269137  0.54114354  0.60986310
   0.93764538  0.79119367  0.60978399
   0.56253011  0.53723738  0.39018159
   0.81262744  0.04128014  0.60981901
   0.93732899  0.45516461  0.47870922
   0.43739560  0.61812085  0.16881351
   0.43780031  0.12667470  0.78626397
   0.68806307  0.45493565  0.47862378
   0.81237142  0.53433225  0.25770033
   0.31302417  0.20285542  0.34622111
   0.18754826  0.79280384  0.74224563
   0.81318287  0.20546748  0.47868953
   0.93683090  0.29393413  0.87329868
   0.18755979  0.12700952  0.78643264
   0.31244665  0.36742271  0.16887319
   0.06257144  0.20506736  0.47869745
   0.06256266  0.20917430  0.69808742
   0.68815567  0.12229126  0.52137170
   0.56233477  0.04319446  0.74225228
   0.18730712  0.45100800  0.21356336
   0.18756588  0.45508869  0.47870425
   0.43715501  0.95083930  0.21354980
   0.43751128  0.28670258  0.39024793
   0.06268526  0.20693396  0.56518045
   0.68817006  0.12129783  0.43487686
   0.31191947  0.20712911  0.56535043
   0.06259992  0.71057888  0.83106444
   0.43757676  0.28490320  0.25770358
   0.06249219  0.87042952  0.43502357
   0.06249422  0.53483631  0.25764494
   0.56237628  0.37503228  0.65375583
   0.68700732  0.28732448  0.39033051
   0.68745517  0.96007822  0.83115513
   0.81257243  0.87517373  0.65375631
   0.31243424  0.71059681  0.83107139
   0.68756935  0.95922828  0.69806579
   0.06230209  0.53439574  0.12666218
   0.56252857  0.03764390  0.39023764
   0.56233276  0.54316477  0.74221529
   0.31266698  0.53459064  0.25777143
   0.68735979  0.61708121  0.16890614
   0.43738628  0.78451231  0.12661994
   0.56240901  0.87669458  0.78639968
   0.56247311  0.87506999  0.65377850
   0.56269332  0.86844905  0.30174867
   0.56237476  0.70924359  0.69812404
   0.56254098  0.20915062  0.69818197
   0.56235415  0.37355166  0.52134840
   0.81239658  0.20988251  0.83104679
   0.56228157  0.87141518  0.43480883
   0.81251368  0.36851297  0.30184114
   0.93750530  0.62255679  0.52136416
   0.56215823  0.86764719  0.16868233
   0.56227258  0.20262677  0.34639964
   0.43746711  0.62691962  0.78636761
   0.31260447  0.04238867  0.87326411
   0.93736816  0.28463570  0.25776722
   0.43722032  0.61892388  0.30187055
   0.93738919  0.78647233  0.39018223
   0.43741539  0.45917558  0.69810619
   0.81253087  0.20916121  0.69814119
   0.06230808  0.70052852  0.21357119
   0.31272851  0.03446646  0.25768135
   0.18750666  0.29314033  0.74226637
   0.18728085  0.61886468  0.30183627
   0.81250371  0.87239181  0.52138611
   0.81263519  0.53705553  0.39011658
   0.06191701  0.86862762  0.30173777
   0.93772730  0.79302554  0.74229536
   0.81244561  0.20055674  0.21364050
   0.06278240  0.03489353  0.25765115
   0.68769400  0.62506330  0.65380451
   0.43727282  0.79290905  0.74228429
   0.68743436  0.12505413  0.65367027
   0.06256490  0.04324247  0.74214335
   0.93720639  0.95325536  0.34628804
   0.18755305  0.95917149  0.69809125
   0.31252001  0.20918307  0.69810184
   0.81315144  0.70528800  0.47866558
   0.06254895  0.03395827  0.12668904
   0.18761408  0.78457432  0.12658971
   0.43708584  0.95620504  0.56538237
   0.56280744  0.87311074  0.52133820
   0.31346714  0.54332125  0.87328355
   0.18732434  0.62535736  0.65379179
   0.68797514  0.28501562  0.12649375
   0.43715136  0.11879695  0.30180447
   0.56250238  0.70080637  0.21352919
   0.31237360  0.53469843  0.12664909
   0.56260095  0.70271087  0.34629235
   0.68696638  0.78679808  0.39028389
   0.68717730  0.61844371  0.30180670
   0.56259106  0.20115995  0.21357793
   0.93763606  0.95911632  0.69824693
   0.18806839  0.28475861  0.12670126
   0.93729357  0.12669505  0.78625157
   0.31233092  0.03442639  0.12659211
   0.56231677  0.03445844  0.25774335
   0.93764577  0.95078593  0.21346052
   0.56241295  0.03386701  0.12666317
   0.56250705  0.36860841  0.30184527
   0.43705508  0.46002429  0.83122305
   0.18766705  0.29123916  0.60989071
   0.81236385  0.87102409  0.43492663
   0.43745132  0.95925887  0.69822191
   0.93767819  0.45103211  0.21363737
   0.31226670  0.53647822  0.39023011
   0.06242080  0.04154618  0.60988857
   0.81264850  0.87668172  0.78639229
   0.68745473  0.95097083  0.21356933
   0.31245952  0.04328223  0.74215651
   0.18717145  0.95311626  0.34631921
   0.31253319  0.70913055  0.69812787
   0.81210125  0.37108035  0.43497599
   0.81228133  0.86866664  0.30182236
   0.43749075  0.62506262  0.65362490
   0.06293271  0.86792653  0.16876613
   0.06266981  0.37520550  0.65372318
   0.06218939  0.36906969  0.30184360
   0.31257775  0.86775353  0.16887741
   0.81279241  0.04324066  0.87326327
   0.18749302  0.12503277  0.65378624
   0.18757136  0.78474441  0.25769145
   0.06259242  0.37690001  0.78638224
   0.93777775  0.45690363  0.56519382
   0.18757448  0.11882454  0.30185409
   0.93760021  0.95665408  0.56513211
   0.31249016  0.87709865  0.78635452
   0.18741056  0.62237694  0.52142691
   0.18757662  0.62749831  0.78622792
   0.93766609  0.28706570  0.39030752
   0.56224294  0.04319976  0.87325825
   0.43748716  0.96036554  0.83113013
   0.81249908  0.03479966  0.12665264
   0.06262295  0.87706443  0.78633881
   0.06256107  0.36815620  0.16877494
   0.68776354  0.95490898  0.47869356
   0.31251546  0.37514526  0.65376807
   0.56247631  0.37656883  0.78634045
   0.31247528  0.70081718  0.21348406
   0.43713162  0.45667923  0.56545104
   0.43748178  0.12271913  0.52148211
   0.68759952  0.95738307  0.56536381
   0.43833845  0.95308291  0.34624456
   0.56270360  0.70492288  0.47867985
   0.31197826  0.86831276  0.30173643
   0.81270091  0.36782388  0.16813092
   0.06277783  0.20312159  0.34648496
   0.18759012  0.29360131  0.87304310
   0.68750466  0.79051075  0.61003189
   0.31187318  0.03702185  0.39010119
   0.68746444  0.79331471  0.74225197
   0.56239562  0.20501346  0.47868199
   0.68697937  0.11872660  0.30185044
   0.06269995  0.70322802  0.34630278
Direct configuration=     3
   0.43702179  0.29333186  0.74217338
   0.93770158  0.62506037  0.65366314
   0.43763093  0.79064832  0.60980825
   0.18759129  0.45909012  0.69812128
   0.18761914  0.11749135  0.16876944
   0.31161610  0.20544963  0.47875231
   0.56267623  0.53467653  0.25775284
   0.43722478  0.62254896  0.52129306
   0.18743184  0.12033475  0.43485665
   0.81231929  0.37270123  0.52139525
   0.68755014  0.12672283  0.78640559
   0.18751074  0.95687208  0.56524962
   0.31243848  0.20116612  0.21350500
   0.18749420  0.96064998  0.83123902
   0.31243363  0.70673844  0.56527278
   0.43762777  0.79335423  0.87332862
   0.81238925  0.70073933  0.21355604
   0.56237919  0.71001291  0.83110724
   0.06242510  0.54266146  0.74215606
   0.93748081  0.96038160  0.83112771
   0.43826816  0.29388408  0.87329477
   0.68799945  0.11785572  0.16882485
   0.93720000  0.45305724  0.34636558
   0.81264323  0.70907986  0.69807134
   0.06255306  0.37035366  0.43495397
   0.81251533  0.71000117  0.83110757
   0.18749706  0.45959658  0.83123573
   0.43725471  0.12492368  0.65387754
   0.81267300  0.54318022  0.74218671
   0.31240312  0.87497493  0.65373991
   0.06264418  0.70895607  0.69810003
   0.68745751  0.45980190  0.83117305
   0.68709675  0.78486787  0.12668592
   0.56226466  0.70692361  0.56487550
   0.68755258  0.79361964  0.87329969
   0.18728034  0.45644734  0.56512486
   0.93766314  0.12061451  0.43492335
   0.81241541  0.53405334  0.12648480
   0.31275594  0.87073050  0.43485974
   0.81247746  0.54125832  0.60978921
   0.31218126  0.87237419  0.52142024
   0.93747568  0.62074024  0.43487761
   0.31271307  0.37085766  0.43479851
   0.31257935  0.54095845  0.60985805
   0.06161342  0.54335657  0.87328792
   0.81261519  0.86750128  0.16880637
   0.06194793  0.03683588  0.39023527
   0.43723569  0.45288010  0.34628280
   0.93761533  0.45919666  0.69813570
   0.31254444  0.37258254  0.52143209
   0.81198102  0.70240529  0.34622482
   0.18771000  0.61812670  0.16882200
   0.31247669  0.36912075  0.30178888
   0.43748431  0.78724002  0.39029266
   0.18727008  0.28654722  0.39023521
   0.93797684  0.29328358  0.74216514
   0.68767183  0.28458482  0.25774588
   0.68781870  0.45276769  0.34620680
   0.81197808  0.20318737  0.34632570
   0.31254163  0.37690226  0.78638064
   0.81240153  0.03716562  0.39019556
   0.68720565  0.45135113  0.21364792
   0.93705081  0.28499422  0.12647850
   0.81255164  0.37657659  0.78634048
   0.93781135  0.78479554  0.12671091
   0.56265165  0.36804375  0.16875903
   0.81247326  0.03456522  0.25769513
   0.68749982  0.62662178  0.78640796
   0.43751394  0.12114212  0.43532597
   0.18780340  0.95507426  0.47875745
   0.43718347  0.29073710  0.60981644
   0.06304035  0.21086568  0.83119933
   0.68804521  0.45690812  0.56536594
   0.06262219  0.87244394  0.52140833
   0.68763509  0.62128880  0.43495419
   0.93726663  0.95528495  0.47873240
   0.93787220  0.45996627  0.83121821
   0.56261067  0.53445870  0.12666329
   0.93801810  0.29091463  0.60985610
   0.93779430  0.61852797  0.30181883
   0.68793755  0.62250405  0.52141370
   0.31164154  0.70548589  0.47870624
   0.93772258  0.61712904  0.16882578
   0.93785451  0.12524486  0.65383359
   0.81273151  0.54348898  0.87335422
   0.56260802  0.54087090  0.60985017
   0.68784535  0.95275725  0.34627704
   0.18754918  0.95084045  0.21352608
   0.18752048  0.45342961  0.34632531
   0.93772027  0.11899891  0.30183170
   0.06267020  0.87529399  0.65375385
   0.31196918  0.21084388  0.83119166
   0.43676967  0.28485826  0.12670926
   0.56254943  0.20984939  0.83104661
   0.18765876  0.78665832  0.39020508
   0.18761906  0.28487367  0.25774589
   0.06203364  0.53681600  0.39017843
   0.31281292  0.70297351  0.34634434
   0.06235866  0.20091397  0.21361600
   0.31298854  0.04147182  0.60983283
   0.43721265  0.62079934  0.43497870
   0.43751012  0.11748356  0.16875178
   0.43750076  0.78479751  0.25769469
   0.18759878  0.79086781  0.60985690
   0.68770786  0.78445243  0.25773468
   0.43701458  0.95437688  0.47865706
   0.93747604  0.79341875  0.87333317
   0.31256221  0.54267227  0.74217450
   0.56225272  0.04114352  0.60977460
   0.18752023  0.79336570  0.87332540
   0.81256685  0.20725600  0.56526003
   0.43748958  0.45115759  0.21365994
   0.56278113  0.37170015  0.43480371
   0.06249839  0.70492910  0.47869266
   0.06246533  0.04240135  0.87327280
   0.68751353  0.45904134  0.69823673
   0.06272904  0.37252725  0.52139063
   0.93761981  0.62690561  0.78635908
   0.18770132  0.62039388  0.43492645
   0.18710050  0.12215335  0.52145675
   0.81279918  0.70715119  0.56528316
   0.68744794  0.29339466  0.74223709
   0.56228786  0.54344834  0.87334344
   0.93772068  0.78457791  0.25772970
   0.68755803  0.29115678  0.60989009
   0.81249083  0.37489562  0.65368709
   0.68750740  0.29367363  0.87327830
   0.81267187  0.04317581  0.74225091
   0.93746736  0.12259352  0.52144466
   0.06256437  0.70674128  0.56518960
   0.43700968  0.45436350  0.47868577
   0.93710583  0.11794387  0.16876992
   0.56272860  0.20711192  0.56498213
   0.06268639  0.54114695  0.60986108
   0.93764706  0.79119646  0.60978224
   0.56253561  0.53723725  0.39018138
   0.81263129  0.04128024  0.60981767
   0.93732607  0.45516470  0.47870835
   0.43739677  0.61811839  0.16881523
   0.43780600  0.12667290  0.78626298
   0.68806678  0.45493523  0.47862347
   0.81237370  0.53433031  0.25770118
   0.31302155  0.20285541  0.34622037
   0.18754616  0.79280937  0.74224387
   0.81318010  0.20547031  0.47868875
   0.93682939  0.29393135  0.87330078
   0.18755942  0.12700780  0.78643163
   0.31245204  0.36741578  0.16887522
   0.06256836  0.20507188  0.47869691
   0.06255872  0.20917186  0.69808574
   0.68814864  0.12228951  0.52137254
   0.56234077  0.04319454  0.74225099
   0.18731169  0.45100297  0.21356265
   0.18755642  0.45508778  0.47870388
   0.43715691  0.95084237  0.21354775
   0.43751241  0.28670089  0.39024778
   0.06268314  0.20693319  0.56518206
   0.68817275  0.12129844  0.43487661
   0.31191675  0.20712879  0.56534998
   0.06259258  0.71058061  0.83106790
   0.43757757  0.28490112  0.25770235
   0.06248799  0.87042778  0.43502249
   0.06249540  0.53483569  0.25764597
   0.56238105  0.37503185  0.65375464
   0.68701162  0.28732615  0.39032999
   0.68745718  0.96007422  0.83115793
   0.81257157  0.87517543  0.65375471
   0.31243787  0.71059933  0.83107525
   0.68757014  0.95922779  0.69806461
   0.06230510  0.53440214  0.12666299
   0.56253075  0.03764387  0.39023748
   0.56233995  0.54316791  0.74221428
   0.31266442  0.53458981  0.25777145
   0.68735808  0.61707969  0.16890823
   0.43738672  0.78451111  0.12662163
   0.56241736  0.87669635  0.78639864
   0.56247667  0.87507056  0.65377744
   0.56269687  0.86844741  0.30174712
   0.56238081  0.70924619  0.69812286
   0.56254610  0.20914947  0.69818062
   0.56234821  0.37354736  0.52134865
   0.81239493  0.20988064  0.83104955
   0.56228500  0.87141097  0.43480855
   0.81251662  0.36851281  0.30183995
   0.93750603  0.62255867  0.52136569
   0.56215820  0.86765627  0.16868553
   0.56227762  0.20262749  0.34639916
   0.43747875  0.62692700  0.78636633
   0.31260655  0.04238609  0.87326623
   0.93736983  0.28462841  0.25776809
   0.43721928  0.61892366  0.30186865
   0.93738827  0.78647391  0.39018212
   0.43742173  0.45917657  0.69810460
   0.81252623  0.20915985  0.69813976
   0.06230887  0.70053275  0.21357159
   0.31272543  0.03446311  0.25768013
   0.18750476  0.29313726  0.74226479
   0.18727647  0.61886463  0.30183448
   0.81250642  0.87239528  0.52138792
   0.81263698  0.53705509  0.39011628
   0.06191307  0.86862763  0.30173591
   0.93772175  0.79302849  0.74229449
   0.81244225  0.20054722  0.21363980
   0.06277710  0.03489033  0.25765072
   0.68769647  0.62506269  0.65380370
   0.43727784  0.79291306  0.74228343