unknown system                          
           1
     9.726678    0.000000    0.000000
     0.000000    8.423550    0.000000
     0.000000    0.000000   45.000000
   Fe   Mn
 274  14
Direct configuration=     1
   0.06326554  0.03443204  0.12544886
   0.31300181  0.87179439  0.65400857
   0.18677384  0.11778286  0.78732932
   0.43754797  0.29118750  0.38972428
   0.31470011  0.70732073  0.83139339
   0.81394526  0.20827594  0.83261102
   0.18765059  0.95898820  0.83232456
   0.56300161  0.20737150  0.56502437
   0.06239787  0.03564000  0.74271269
   0.81260837  0.87094846  0.52108956
   0.18945672  0.28559311  0.74257470
   0.93657478  0.45637481  0.34631102
   0.93588179  0.29088343  0.38996895
   0.81157206  0.03581825  0.87447208
   0.18607960  0.78675543  0.60999337
   0.56206540  0.04087883  0.38996830
   0.93937870  0.95911553  0.83255776
   0.31391875  0.53522295  0.87452049
   0.68857171  0.28603675  0.74265810
   0.18879906  0.61952093  0.16784119
   0.81149071  0.20612813  0.47890429
   0.81259052  0.53620239  0.61015550
   0.31257466  0.87318145  0.43468435
   0.81274353  0.04088467  0.25747625
   0.68742626  0.95563935  0.34605559
   0.93630136  0.12024218  0.16860804
   0.06297841  0.87116308  0.52114394
   0.56180783  0.54112365  0.25721744
   0.68640542  0.79011049  0.87447184
   0.56360828  0.37011812  0.16794623
   0.43749369  0.78724829  0.74284685
   0.81246052  0.70697711  0.56495488
   0.56300290  0.86787138  0.78701521
   0.68641722  0.12096063  0.52113846
   0.81384847  0.37089133  0.65402452
   0.93804702  0.45909376  0.83224119
   0.06189820  0.20595532  0.69850835
   0.43654654  0.95586252  0.69832991
   0.31236777  0.20589747  0.83214516
   0.43756018  0.62186898  0.65400935
   0.31138937  0.53657367  0.60999349
   0.93732026  0.45718845  0.56502794
   0.68760360  0.78812190  0.74304612
   0.93686930  0.79099675  0.12564722
   0.68755205  0.78956428  0.38964011
   0.93795980  0.78653562  0.74290647
   0.06301900  0.20630116  0.34601591
   0.81151301  0.04079379  0.39003711
   0.43760114  0.11721754  0.78729879
   0.06221634  0.20752113  0.21281435
   0.06141860  0.36996963  0.16799975
   0.93556423  0.79144758  0.25731587
   0.56265356  0.20516687  0.69843033
   0.68699994  0.95563491  0.69843426
   0.43685650  0.79068190  0.12537117
   0.43728685  0.95694270  0.56476886
   0.81227146  0.36792004  0.78718906
   0.68512671  0.29146360  0.25745518
   0.18796484  0.45712066  0.56496668
   0.06313943  0.87025051  0.16800331
   0.18784824  0.28728224  0.61018323
   0.56385979  0.70663815  0.34629971
   0.31254631  0.20594931  0.69860242
   0.56171508  0.53490211  0.87446155
   0.06278005  0.70685627  0.56493026
   0.68784372  0.61669541  0.78715153
   0.31179480  0.54064432  0.38974867
   0.18760859  0.62071546  0.52112284
   0.56308847  0.87411621  0.43501300
   0.43710464  0.45704106  0.56488022
   0.43746911  0.28716703  0.74273601
   0.81224718  0.87734008  0.30154219
   0.81182976  0.70655810  0.34638455
   0.43786725  0.45605521  0.83160383
   0.68749718  0.95577418  0.47877938
   0.68684854  0.45667318  0.69836312
   0.56298148  0.87125069  0.52114862
   0.56344204  0.37101048  0.65378293
   0.81259569  0.87142505  0.65390362
   0.81262986  0.37376917  0.43462429
   0.81293084  0.54077315  0.25741116
   0.68879033  0.45719405  0.83174327
   0.18873950  0.79023735  0.12538715
   0.68782943  0.29083281  0.38961968
   0.31329575  0.37122708  0.65379389
   0.31282599  0.20576565  0.34600385
   0.81279637  0.53681337  0.74286363
   0.68816456  0.95896442  0.83241866
   0.56264780  0.87179320  0.65380977
   0.31242479  0.70744014  0.56513098
   0.31226292  0.53523830  0.12537476
   0.68738766  0.95821268  0.21282063
   0.31243391  0.20729412  0.56514120
   0.18684070  0.95645241  0.47875300
   0.68802065  0.95706681  0.56508375
   0.43680840  0.78616956  0.61010559
   0.68740613  0.61799967  0.16812311
   0.31255846  0.87544555  0.30143477
   0.31268225  0.70565823  0.47875549
   0.93595093  0.28725645  0.61013253
   0.43778144  0.62641011  0.30171929
   0.81226434  0.86928391  0.16846173
   0.56319726  0.20746082  0.21282508
   0.93705291  0.61791049  0.16809522
   0.93913948  0.79023763  0.87457749
   0.56278169  0.36747303  0.78717500
   0.06195433  0.37147483  0.52118300
   0.31251886  0.36888835  0.16839869
   0.68790013  0.12489542  0.30145088
   0.43992539  0.95753541  0.83173743
   0.18698510  0.29105529  0.12549594
   0.18580143  0.29180852  0.25752681
   0.31246984  0.37340706  0.43486668
   0.56366798  0.03446838  0.12546158
   0.43635268  0.28692609  0.61003636
   0.18683251  0.45823254  0.34655907
   0.43750662  0.29126314  0.12552089
   0.68676537  0.79158724  0.25730410
   0.43713597  0.12138318  0.52114973
   0.18816456  0.29171583  0.87474121
   0.18762339  0.12173450  0.65378661
   0.93799221  0.12185345  0.65387348
   0.31268060  0.20805340  0.21283653
   0.06275879  0.03963640  0.38971446
   0.18769885  0.11714917  0.16744610
   0.06230376  0.53552012  0.61024256
   0.93732759  0.29101235  0.25737213
   0.56246087  0.53603645  0.61006378
   0.93748166  0.95760095  0.56495951
   0.68726816  0.62507523  0.30144916
   0.93651935  0.62367532  0.43498739
   0.93716683  0.61707168  0.78712174
   0.56161683  0.70489717  0.69815001
   0.06312871  0.70986934  0.83240157
   0.93788730  0.12531317  0.30144336
   0.93733547  0.78541467  0.61025637
   0.43540792  0.79163603  0.25729345
   0.31220011  0.36797002  0.78707145
   0.43749560  0.45799488  0.21275395
   0.18811365  0.12086210  0.52120740
   0.81232208  0.70565732  0.69840453
   0.06150766  0.03639403  0.61002519
   0.56325744  0.20705841  0.83185036
   0.31126639  0.87098489  0.52109803
   0.68815198  0.29076369  0.12544326
   0.18745228  0.95831429  0.21306441
   0.68579098  0.28741196  0.61014726
   0.31131546  0.03639966  0.61033087
   0.93757841  0.11713867  0.78727026
   0.43758882  0.79126835  0.87448000
   0.81243879  0.03715152  0.74299124
   0.93670404  0.45618935  0.69850687
   0.18790911  0.62183750  0.65386551
   0.31249597  0.70486712  0.69839806
   0.93665065  0.29032089  0.12546683
   0.43739235  0.45575496  0.47876659
   0.06255338  0.70572770  0.47868412
   0.93654537  0.12428605  0.43535615
   0.43724137  0.12569673  0.30172919
   0.18759774  0.12378713  0.43466252
   0.56218215  0.03455979  0.87467909
   0.18752278  0.95760774  0.56509269
   0.68866659  0.79135475  0.12563056
   0.56346205  0.53386702  0.12549272
   0.31250384  0.04013329  0.38983599
   0.68833485  0.12002576  0.16859677
   0.81265173  0.20834499  0.21265740
   0.06409139  0.54151932  0.25727341
   0.56209739  0.70585239  0.47866816
   0.06301356  0.20698000  0.56488258
   0.56229981  0.37719523  0.30160902
   0.43670862  0.95665152  0.34622773
   0.18756624  0.95579661  0.69849355
   0.43577741  0.61938575  0.16782293
   0.93766279  0.45807451  0.21314098
   0.06175177  0.53386243  0.12548211
   0.81328295  0.37153249  0.52118751
   0.93749172  0.62533605  0.30136280
   0.31304449  0.04082548  0.25706869
   0.68735135  0.78605088  0.61015886
   0.18950879  0.45866351  0.83192308
   0.43686541  0.11731176  0.16760593
   0.31189485  0.37087775  0.52108112
   0.43754648  0.61730315  0.78727046
   0.06161131  0.04103607  0.25732366
   0.56247176  0.70756240  0.56523798
   0.93756764  0.28533929  0.74249940
   0.93679099  0.29136750  0.87473451
   0.18773172  0.45820423  0.21280529
   0.93736620  0.79080040  0.38978715
   0.68767226  0.29216764  0.87486209
   0.56250575  0.87018403  0.16799821
   0.43753342  0.45610751  0.69865008
   0.93852054  0.95629958  0.34616137
   0.68658783  0.62159198  0.52111857
   0.06270783  0.87206577  0.65394844
   0.06187555  0.86800699  0.78708582
   0.06267757  0.37057206  0.65394340
   0.68782511  0.45565399  0.47888280
   0.18761081  0.79188690  0.25727298
   0.43742218  0.12293588  0.43464404
   0.81329325  0.03381636  0.12545338
   0.93707685  0.62109437  0.52125424
   0.06271809  0.87299093  0.43463218
   0.81254999  0.53338249  0.12526421
   0.43727872  0.45677948  0.34642360
   0.81273840  0.20737742  0.34648544
   0.31283907  0.70558360  0.34601578
   0.68726582  0.12196809  0.65384018
   0.56320702  0.87628760  0.30176132
   0.06336701  0.53567544  0.74269289
   0.93822125  0.95800807  0.21278316
   0.81248245  0.70793771  0.21278539
   0.06194932  0.87531711  0.30177612
   0.18755796  0.12634733  0.30175635
   0.06197989  0.70641535  0.34628641
   0.81146946  0.03625536  0.60987879
   0.06278752  0.37298330  0.43461351
   0.56249427  0.20721317  0.34632154
   0.81289247  0.37638832  0.30162134
   0.56328777  0.04204320  0.25727196
   0.56262923  0.54050074  0.38988273
   0.06280971  0.20594971  0.47869250
   0.31316760  0.86756513  0.78698559
   0.93796546  0.95575553  0.69840136
   0.06302378  0.37601403  0.30137588
   0.68774263  0.62182160  0.65403677
   0.68743557  0.45719906  0.56496839
   0.43778818  0.95840053  0.21309375
   0.31251515  0.20584857  0.47871830
   0.43826063  0.12115944  0.65370012
   0.68742707  0.62298558  0.43465992
   0.81266512  0.20559881  0.69848277
   0.81217002  0.70595431  0.47868837
   0.81174307  0.87389605  0.43490054
   0.93744096  0.95549566  0.47887246
   0.56247190  0.20598944  0.47875217
   0.18736100  0.62391368  0.43480278
   0.31241418  0.03741089  0.74271942
   0.93759316  0.62188735  0.65384113
   0.56417954  0.70757156  0.83200924
   0.31280989  0.37400052  0.30147378
   0.56243493  0.70778035  0.21273202
   0.18724187  0.45576504  0.47874181
   0.31387244  0.03610168  0.87435327
   0.18652809  0.45644424  0.69852802
   0.81214323  0.53339131  0.87469941
   0.18756287  0.29061245  0.38988467
   0.43676341  0.62386390  0.43480141
   0.06262334  0.70790478  0.21281147
   0.56220672  0.37455967  0.43533333
   0.43798160  0.62207033  0.52121607
   0.81230119  0.71013753  0.83164272
   0.06263541  0.36835362  0.78718244
   0.43760066  0.29228513  0.87475437
   0.31333356  0.03439422  0.12542355
   0.68738497  0.12121488  0.43455366
   0.18668169  0.95744511  0.34628640
   0.06389778  0.20789636  0.83251663
   0.56231210  0.03550110  0.61025544
   0.68747342  0.45802777  0.21306053
   0.18755664  0.78675422  0.74283886
   0.18746378  0.62675123  0.30182153
   0.43640965  0.79135899  0.39007216
   0.43508589  0.29234155  0.25737405
   0.06331696  0.53518948  0.87443448
   0.56404447  0.03567900  0.74273173
   0.18691479  0.79136896  0.87451202
   0.93745337  0.45580450  0.47874283
   0.56325928  0.53742695  0.74229147
   0.81211850  0.20686436  0.56485029
   0.18723177  0.61681675  0.78713536
   0.06293483  0.54052839  0.38974062
   0.06296618  0.70520885  0.69844480
   0.31276147  0.54234435  0.25687749
   0.31248564  0.70546267  0.21340342
   0.31258906  0.86972274  0.16698301
   0.81320775  0.53929589  0.39013487
   0.68625029  0.45477345  0.34603517
   0.68510550  0.11837422  0.78665054
   0.43731880  0.95653381  0.47881128
   0.06406582  0.03235825  0.87440596
   0.18667265  0.79285599  0.39016422
   0.81247187  0.37016610  0.16748504
   0.56255417  0.37081964  0.52127086
   0.93724487  0.12090222  0.52120515
   0.81181015  0.86784999  0.78663578
   0.31299069  0.53523947  0.74279485
Direct configuration=     2
   0.06315846  0.03486689  0.12552482
   0.31291411  0.87176626  0.65400712
   0.18679883  0.11812693  0.78729616
   0.43762223  0.29114921  0.38980265
   0.31444694  0.70714899  0.83147413
   0.81388766  0.20800070  0.83259074
   0.18762563  0.95852259  0.83230741
   0.56292218  0.20709172  0.56509700
   0.06239225  0.03579870  0.74274477
   0.81246748  0.87117609  0.52119673
   0.18907081  0.28583565  0.74262402
   0.93676542  0.45644723  0.34623626
   0.93610349  0.29076042  0.39001435
   0.81158199  0.03647371  0.87445955
   0.18629470  0.78689326  0.60994059
   0.56201339  0.04081738  0.39001828
   0.93931951  0.95881489  0.83253581
   0.31380980  0.53580582  0.87443069
   0.68848260  0.28628022  0.74267666
   0.18859564  0.61969310  0.16783148
   0.81154774  0.20612751  0.47882423
   0.81252143  0.53638621  0.61009815
   0.31247821  0.87321076  0.43471563
   0.81267051  0.04093585  0.25745274
   0.68739811  0.95596886  0.34602439
   0.93644354  0.12028567  0.16848968
   0.06295894  0.87133329  0.52123408
   0.56197584  0.54116446  0.25722260
   0.68659578  0.78960284  0.87442888
   0.56346281  0.37021909  0.16787811
   0.43748159  0.78718954  0.74284055
   0.81247364  0.70673760  0.56500618
   0.56283952  0.86803417  0.78700119
   0.68666946  0.12108644  0.52123140
   0.81361954  0.37097795  0.65402726
   0.93808650  0.45872360  0.83225070
   0.06198117  0.20570433  0.69850736
   0.43664186  0.95564569  0.69835255
   0.31247232  0.20598976  0.83220395
   0.43756442  0.62180820  0.65400914
   0.31152481  0.53678688  0.60994944
   0.93735834  0.45690799  0.56508581
   0.68768595  0.78799699  0.74300080
   0.93690385  0.79039598  0.12575436
   0.68749186  0.78961004  0.38973314
   0.93797789  0.78658221  0.74288155
   0.06292682  0.20648235  0.34599541
   0.81170928  0.04073287  0.39008561
   0.43750319  0.11765065  0.78725364
   0.06219044  0.20737116  0.21285588
   0.06156616  0.37009696  0.16792903
   0.93581038  0.79138182  0.25730972
   0.56261291  0.20509448  0.69843774
   0.68710133  0.95547464  0.69845126
   0.43699623  0.79005601  0.12540573
   0.43728537  0.95675750  0.56481352
   0.81241495  0.36803520  0.78714558
   0.68541916  0.29141218  0.25742595
   0.18784131  0.45690450  0.56501590
   0.06310674  0.87036826  0.16795203
   0.18768712  0.28728251  0.61012160
   0.56361096  0.70671679  0.34625125
   0.31257601  0.20571866  0.69858450
   0.56188391  0.53559948  0.87435165
   0.06273161  0.70663262  0.56498942
   0.68779949  0.61710261  0.78713560
   0.31190114  0.54066110  0.38984219
   0.18765934  0.62109454  0.52120988
   0.56287952  0.87390645  0.43497126
   0.43712203  0.45691104  0.56495034
   0.43758421  0.28720785  0.74273592
   0.81229534  0.87704634  0.30152261
   0.81192434  0.70658038  0.34630323
   0.43793727  0.45607852  0.83172543
   0.68759524  0.95592776  0.47869392
   0.68692653  0.45640875  0.69837765
   0.56283087  0.87133725  0.52121774
   0.56330403  0.37101704  0.65380328
   0.81263763  0.87142307  0.65392056
   0.81262226  0.37367469  0.43464183
   0.81283674  0.54076930  0.25739098
   0.68875557  0.45704998  0.83184070
   0.18857651  0.78970018  0.12541104
   0.68771730  0.29074870  0.38972933
   0.31316214  0.37128189  0.65382470
   0.31276654  0.20601786  0.34597942
   0.81284802  0.53676304  0.74286610
   0.68816020  0.95855701  0.83240787
   0.56267033  0.87173779  0.65382718
   0.31242559  0.70709757  0.56517167
   0.31232196  0.53577440  0.12543508
   0.68729666  0.95810848  0.21288431
   0.31245988  0.20711445  0.56518426
   0.18685213  0.95641373  0.47865800
   0.68805871  0.95688893  0.56513173
   0.43684270  0.78638276  0.61004699
   0.68734482  0.61824123  0.16807191
   0.31253077  0.87542257  0.30142620
   0.31261141  0.70557827  0.47867322
   0.93617574  0.28720760  0.61006138
   0.43776988  0.62618036  0.30167146
   0.81232621  0.86943982  0.16832761
   0.56313867  0.20734195  0.21285402
   0.93716209  0.61818311  0.16805363
   0.93889706  0.78964342  0.87453912
   0.56267118  0.36774075  0.78713771
   0.06207468  0.37169647  0.52124956
   0.31249497  0.36901397  0.16826961
   0.68784350  0.12507362  0.30146739
   0.43969506  0.95722649  0.83183080
   0.18711886  0.29054751  0.12560816
   0.18600131  0.29163504  0.25748788
   0.31242314  0.37336085  0.43482177
   0.56357969  0.03494465  0.12554574
   0.43649525  0.28699228  0.60997671
   0.18689341  0.45803830  0.34644616
   0.43744819  0.29072222  0.12563261
   0.68683034  0.79156980  0.25729333
   0.43706117  0.12162528  0.52122862
   0.18835805  0.29113449  0.87467710
   0.18760626  0.12173533  0.65382834
   0.93792567  0.12173331  0.65387677
   0.31266735  0.20787314  0.21284616
   0.06264978  0.03982251  0.38980365
   0.18757557  0.11766108  0.16750947
   0.06228158  0.53581204  0.61015440
   0.93729620  0.29099222  0.25734403
   0.56239207  0.53630695  0.60999696
   0.93749332  0.95723498  0.56501747
   0.68728575  0.62520691  0.30144503
   0.93669024  0.62363312  0.43494661
   0.93723050  0.61752091  0.78710992
   0.56165626  0.70482443  0.69820030
   0.06318919  0.70942940  0.83238975
   0.93782857  0.12538507  0.30145476
   0.93729383  0.78578605  0.61017982
   0.43575920  0.79167067  0.25730276
   0.31225312  0.36813887  0.78703994
   0.43761706  0.45778117  0.21279334
   0.18802332  0.12105351  0.52126955
   0.81234978  0.70557061  0.69843669
   0.06159218  0.03661180  0.60996691
   0.56324665  0.20696489  0.83191678
   0.31146020  0.87118493  0.52117827
   0.68804581  0.29014913  0.12551703
   0.18742576  0.95827931  0.21307305
   0.68603686  0.28741478  0.61008338
   0.31147007  0.03651205  0.61023476
   0.93765811  0.11762517  0.78725948
   0.43762636  0.79064295  0.87439379
   0.81251507  0.03710316  0.74295072
   0.93684125  0.45593420  0.69853006
   0.18786388  0.62174779  0.65388547
   0.31245047  0.70484150  0.69842846
   0.93679277  0.28978379  0.12553614
   0.43731105  0.45585549  0.47870663
   0.06253974  0.70567712  0.47863767
   0.93667685  0.12399757  0.43528979
   0.43732986  0.12555768  0.30167662
   0.18761302  0.12366146  0.43465328
   0.56229077  0.03526244  0.87460931
   0.18739740  0.95737403  0.56515557
   0.68861843  0.79070168  0.12573836
   0.56343424  0.53436741  0.12555833
   0.31252661  0.04022334  0.38990632
   0.68823922  0.12011287  0.16847723
   0.81261661  0.20810694  0.21272989
   0.06370278  0.54147702  0.25726919
   0.56213381  0.70567610  0.47861996
   0.06295451  0.20685093  0.56495508
   0.56223879  0.37682120  0.30157308
   0.43678401  0.95665128  0.34617482
   0.18753083  0.95562400  0.69851715
   0.43600339  0.61960652  0.16780473
   0.93772354  0.45796488  0.21315273
   0.06174845  0.53433922  0.12555163
   0.81313968  0.37173596  0.52127256
   0.93750528  0.62530441  0.30136562
   0.31292268  0.04081352  0.25710608
   0.68729508  0.78628995  0.61008774
   0.18925543  0.45833275  0.83198632
   0.43707100  0.11780902  0.16765771
   0.31193258  0.37111793  0.52118282
   0.43750562  0.61766638  0.78720719
   0.06174360  0.04099274  0.25730798
   0.56243900  0.70715006  0.56527332
   0.93761585  0.28565556  0.74256450
   0.93678444  0.29087238  0.87468385
   0.18756799  0.45797344  0.21283648
   0.93730029  0.79082811  0.38987360
   0.68772576  0.29154660  0.87477541
   0.56243331  0.87034022  0.16794237
   0.43751820  0.45582122  0.69863940
   0.93834632  0.95647730  0.34611528
   0.68674383  0.62187462  0.52121029
   0.06265340  0.87196368  0.65397011
   0.06204879  0.86816662  0.78707050
   0.06268531  0.37069271  0.65394903
   0.68783494  0.45567626  0.47879159
   0.18744401  0.79189709  0.25728794
   0.43742166  0.12308919  0.43463456
   0.81324115  0.03454511  0.12557775
   0.93714731  0.62140072  0.52130099
   0.06268446  0.87302945  0.43464397
   0.81256264  0.53410648  0.12531388
   0.43715352  0.45678662  0.34633796
   0.81278573  0.20730324  0.34639581
   0.31275364  0.70599218  0.34601222
   0.68734161  0.12182247  0.65386859
   0.56306791  0.87612123  0.30172416
   0.06318959  0.53582839  0.74271538
   0.93825517  0.95794180  0.21284401
   0.81247472  0.70765095  0.21283266
   0.06198762  0.87525499  0.30173185
   0.18755720  0.12612413  0.30169141
   0.06206072  0.70658817  0.34624332
   0.81162643  0.03645996  0.60984666
   0.06271254  0.37305993  0.43461676
   0.56237094  0.20710425  0.34624214
   0.81283805  0.37614239  0.30158860
   0.56311382  0.04190497  0.25727178
   0.56252874  0.54048782  0.38994923
   0.06279818  0.20595565  0.47864231
   0.31314405  0.86764826  0.78694468
   0.93784954  0.95552430  0.69841668
   0.06294274  0.37593352  0.30138716
   0.68774537  0.62171011  0.65403534
   0.68749710  0.45698940  0.56502772
   0.43783472  0.95833836  0.21309877
   0.31237106  0.20578369  0.47863094
   0.43815364  0.12128248  0.65374448
   0.68736379  0.62310754  0.43466829
   0.81260860  0.20545511  0.69847370
   0.81216680  0.70580860  0.47863504
   0.81192810  0.87373979  0.43486209
   0.93746667  0.95544583  0.47879379
   0.56256601  0.20583610  0.47866592
   0.18734216  0.62383471  0.43479844
   0.31243887  0.03729327  0.74272094
   0.93758205  0.62181644  0.65385681
   0.56399373  0.70728470  0.83205639
   0.31273627  0.37422649  0.30149540
   0.56241407  0.70767638  0.21277052
   0.18720373  0.45572152  0.47865745
   0.31393015  0.03684808  0.87429620
   0.18667641  0.45612759  0.69852057
   0.81218866  0.53416082  0.87460672
   0.18751520  0.29057007  0.38994234
   0.43682508  0.62389333  0.43478082
   0.06258686  0.70777648  0.21283602
   0.56225670  0.37431619  0.43526902
   0.43777526  0.62227465  0.52127347
   0.81244903  0.70950414  0.83168639
   0.06268525  0.36859027  0.78714972
   0.43746162  0.29171432  0.87465889
   0.31326712  0.03497685  0.12539601
   0.68727908  0.12151199  0.43456324
   0.18679078  0.95734909  0.34621808
   0.06375237  0.20766989  0.83247656
   0.56223189  0.03580058  0.61017123
   0.68743015  0.45789384  0.21307824
   0.18757862  0.78674743  0.74282236
   0.18745938  0.62644665  0.30177918
   0.43663438  0.79125237  0.39011025
   0.43541743  0.29207807  0.25733839
   0.06330308  0.53586776  0.87437570
   0.56388712  0.03590744  0.74274525
   0.18710034  0.79058590  0.87446441
   0.93745957  0.45564761  0.47866827
   0.56322841  0.53744968  0.74235112
   0.81207625  0.20674988  0.56492517
   0.18725968  0.61726053  0.78711414
   0.06293817  0.54049183  0.38984052
   0.06292344  0.70510772  0.69845978
   0.31269058  0.54210029  0.25693773
   0.31247252  0.70575393  0.21336192
   0.31257630  0.86986259  0.16703062
   0.81307904  0.53945452  0.39015440
   0.68637883  0.45512007  0.34599610
   0.68540902  0.11865700  0.78667607
   0.43730872  0.95629781  0.47875126
   0.06396547  0.03323516  0.87437913
   0.18676406  0.79253878  0.39016361
   0.81246531  0.37030521  0.16744995
   0.56252671  0.37114109  0.52131108
   0.93724900  0.12111691  0.52124127
   0.81195682  0.86782626  0.78665080
   0.31296301  0.53548930  0.74281540
Direct configuration=     3
   0.06287068  0.03603558  0.12572896
   0.31267839  0.87169065  0.65400323
   0.18686599  0.11905167  0.78720706
   0.43782180  0.29104628  0.39001328
   0.31376651  0.70668742  0.83169110
   0.81373283  0.20726098  0.83253624
   0.18755854  0.95727121  0.83226130
   0.56270870  0.20633977  0.56529221
   0.06237713  0.03622520  0.74283097
   0.81208885  0.87178786  0.52148474
   0.18803363  0.28648749  0.74275658
   0.93727779  0.45664186  0.34603535
   0.93669931  0.29042980  0.39013637
   0.81160866  0.03823530  0.87442588
   0.18687278  0.78726368  0.60979873
   0.56187363  0.04065221  0.39015261
   0.93916043  0.95800690  0.83247683
   0.31351699  0.53737235  0.87418934
   0.68824311  0.28693456  0.74272654
   0.18804893  0.62015585  0.16780539
   0.81170103  0.20612584  0.47860906
   0.81233575  0.53688025  0.60994403
   0.31221900  0.87328954  0.43479969
   0.81247427  0.04107340  0.25738955
   0.68732246  0.95685446  0.34594055
   0.93682563  0.12040256  0.16817156
   0.06290660  0.87179077  0.52147632
   0.56242740  0.54127415  0.25723647
   0.68710740  0.78823851  0.87431341
   0.56307184  0.37049047  0.16769504
   0.43744906  0.78703164  0.74282359
   0.81250888  0.70609390  0.56514406
   0.56240044  0.86847169  0.78696351
   0.68734739  0.12142456  0.52148117
   0.81300427  0.37121075  0.65403459
   0.93819260  0.45772877  0.83227628
   0.06220418  0.20502976  0.69850471
   0.43689804  0.95506295  0.69841338
   0.31275333  0.20623778  0.83236194
   0.43757582  0.62164487  0.65400856
   0.31188882  0.53735991  0.60983105
   0.93746068  0.45615421  0.56524136
   0.68790726  0.78766129  0.74287899
   0.93699669  0.78878135  0.12604232
   0.68733012  0.78973304  0.38998317
   0.93802652  0.78670743  0.74281458
   0.06267906  0.20696933  0.34594031
   0.81223679  0.04056913  0.39021596
   0.43723996  0.11881468  0.78713227
   0.06212083  0.20696809  0.21296750
   0.06196275  0.37043915  0.16773898
   0.93647196  0.79120507  0.25729317
   0.56250366  0.20489992  0.69845766
   0.68737384  0.95504391  0.69849696
   0.43737177  0.78837387  0.12549860
   0.43728138  0.95625976  0.56493354
   0.81280057  0.36834472  0.78702873
   0.68620515  0.29127399  0.25734741
   0.18750932  0.45632356  0.56514819
   0.06301886  0.87068472  0.16781419
   0.18725408  0.28728326  0.60995596
   0.56294223  0.70692813  0.34612101
   0.31265585  0.20509877  0.69853633
   0.56233767  0.53747371  0.87405629
   0.06260141  0.70603154  0.56514840
   0.68768062  0.61819701  0.78709280
   0.31218695  0.54070620  0.39009351
   0.18779573  0.62211333  0.52144381
   0.56231795  0.87334273  0.43485908
   0.43716877  0.45656160  0.56513879
   0.43789355  0.28731754  0.74273568
   0.81242477  0.87625689  0.30146999
   0.81217852  0.70664028  0.34608466
   0.43812546  0.45614119  0.83205224
   0.68785878  0.95634052  0.47846425
   0.68713613  0.45569809  0.69841671
   0.56242608  0.87156988  0.52140351
   0.56293312  0.37103469  0.65385799
   0.81275036  0.87141776  0.65396609
   0.81260183  0.37342078  0.43468897
   0.81258384  0.54075894  0.25733675
   0.68866215  0.45666278  0.83210255
   0.18813846  0.78825648  0.12547523
   0.68741596  0.29052265  0.39002404
   0.31280306  0.37142921  0.65390751
   0.31260678  0.20669571  0.34591375
   0.81298685  0.53662776  0.74287274
   0.68814848  0.95746209  0.83237890
   0.56273089  0.87158888  0.65387397
   0.31242773  0.70617689  0.56528102
   0.31248063  0.53721523  0.12559719
   0.68705210  0.95782843  0.21305546
   0.31252968  0.20663158  0.56529999
   0.18688284  0.95630978  0.47840269
   0.68816102  0.95641085  0.56526066
   0.43693491  0.78695577  0.60988951
   0.68718006  0.61889047  0.16793430
   0.31245634  0.87536082  0.30140318
   0.31242103  0.70536336  0.47845211
   0.93677995  0.28707630  0.60987014
   0.43773882  0.62556286  0.30154293
   0.81249248  0.86985885  0.16796716
   0.56298119  0.20702249  0.21293179
   0.93745551  0.61891578  0.16794186
   0.93824551  0.78804642  0.87443598
   0.56237415  0.36846027  0.78703749
   0.06239815  0.37229215  0.52142842
   0.31243075  0.36935157  0.16792267
   0.68769127  0.12555253  0.30151177
   0.43907604  0.95639624  0.83208173
   0.18747837  0.28918279  0.12590978
   0.18653850  0.29116881  0.25738325
   0.31229764  0.37323667  0.43470108
   0.56334238  0.03622469  0.12577192
   0.43687843  0.28717018  0.60981637
   0.18705707  0.45751625  0.34614270
   0.43729115  0.28926844  0.12593287
   0.68700496  0.79152293  0.25726438
   0.43686015  0.12227597  0.52144067
   0.18887806  0.28957210  0.87450480
   0.18756021  0.12173758  0.65394050
   0.93774687  0.12141043  0.65388560
   0.31263174  0.20738867  0.21287204
   0.06235679  0.04032270  0.39004334
   0.18724427  0.11903687  0.16767976
   0.06222198  0.53659660  0.60991747
   0.93721185  0.29093812  0.25726852
   0.56220714  0.53703393  0.60981737
   0.93752465  0.95625143  0.56517323
   0.68733302  0.62556084  0.30143392
   0.93714954  0.62351970  0.43483699
   0.93740163  0.61872823  0.78707816
   0.56176222  0.70462893  0.69833544
   0.06335173  0.70824703  0.83235798
   0.93767072  0.12557829  0.30148542
   0.93718193  0.78678416  0.60997410
   0.43670328  0.79176378  0.25732776
   0.31239559  0.36859267  0.78695524
   0.43794350  0.45720678  0.21289921
   0.18778057  0.12156796  0.52143657
   0.81242423  0.70533758  0.69852313
   0.06181934  0.03719706  0.60981026
   0.56321764  0.20671357  0.83209530
   0.31198106  0.87172254  0.52139391
   0.68776048  0.28849745  0.12571530
   0.18735449  0.95818530  0.21309625
   0.68669767  0.28742237  0.60991169
   0.31188559  0.03681410  0.60997645
   0.93787232  0.11893268  0.78723050
   0.43772724  0.78896215  0.87416209
   0.81272006  0.03697318  0.74284184
   0.93721002  0.45524846  0.69859238
   0.18774231  0.62150669  0.65393912
   0.31232817  0.70477264  0.69851015
   0.93717474  0.28834028  0.12572243
   0.43709255  0.45612566  0.47854549
   0.06250307  0.70554117  0.47851283
   0.93703020  0.12322226  0.43511146
   0.43756768  0.12518397  0.30153535
   0.18765408  0.12332372  0.43462846
   0.56258271  0.03715088  0.87442178
   0.18706042  0.95674593  0.56532457
   0.68848899  0.78894651  0.12602809
   0.56335950  0.53571224  0.12573464
   0.31258780  0.04046534  0.39009531
   0.68798223  0.12034698  0.16815596
   0.81252224  0.20746716  0.21292470
   0.06265833  0.54136334  0.25725783
   0.56223169  0.70520232  0.47849044
   0.06279580  0.20650403  0.56514992
   0.56207480  0.37581597  0.30147646
   0.43698664  0.95665065  0.34603263
   0.18743568  0.95516011  0.69858055
   0.43661071  0.62019984  0.16775584
   0.93788680  0.45767023  0.21318434
   0.06173955  0.53562064  0.12573846
   0.81275463  0.37228281  0.52150113
   0.93754174  0.62521936  0.30137320
   0.31259529  0.04078139  0.25720658
   0.68714384  0.78693247  0.60989660
   0.18857449  0.45744381  0.83215628
   0.43762356  0.11914546  0.16779685
   0.31203400  0.37176342  0.52145613
   0.43739582  0.61864257  0.78703716
   0.06209916  0.04087627  0.25726583
   0.56235094  0.70604188  0.56536829
   0.93774542  0.28650557  0.74273949
   0.93676684  0.28954169  0.87454770
   0.18712795  0.45735316  0.21292030
   0.93712317  0.79090259  0.39010595
   0.68786955  0.28987750  0.87454243
   0.56223863  0.87075998  0.16779228
   0.43747727  0.45505180  0.69861071
   0.93787809  0.95695496  0.34599141
   0.68716310  0.62263425  0.52145677
   0.06250712  0.87168930  0.65402833
   0.06251439  0.86859564  0.78702932
   0.06270611  0.37101697  0.65396414
   0.68786135  0.45573613  0.47854647
   0.18699574  0.79192449  0.25732814
   0.43742028  0.12350123  0.43460909
   0.81310112  0.03650367  0.12591201
   0.93733670  0.62222405  0.52142663
   0.06259407  0.87313299  0.43467566
   0.81259664  0.53605227  0.12544737
   0.43681705  0.45680582  0.34610779