 288 288   0   0
  0.1280206E+02  0.9726678E-09  0.8423550E-09  0.4500000E-08  0.2500000E-15
  1.000000000000000E-004
  CAR 
 unknown system                          
      6.79981018     -6.05162683  301      4.29845445      1.00000000
     -6.052  0.0000E+00  0.0000E+00
     -6.009  0.0000E+00  0.0000E+00
     -5.966  0.0000E+00  0.0000E+00
     -5.923  0.0000E+00  0.0000E+00
     -5.880  0.0000E+00  0.0000E+00
     -5.837  0.0000E+00  0.0000E+00
     -5.795  0.0000E+00  0.0000E+00
     -5.752  0.0000E+00  0.0000E+00
     -5.709  0.0000E+00  0.0000E+00
     -5.666  0.0000E+00  0.0000E+00
     -5.623  0.0000E+00  0.0000E+00
     -5.580  0.0000E+00  0.0000E+00
     -5.538  0.0000E+00  0.0000E+00
     -5.495  0.0000E+00  0.0000E+00
     -5.452  0.0000E+00  0.0000E+00
     -5.409  0.1944E-15  0.8327E-17
     -5.366  0.4438E-14  0.1985E-15
     -5.323  0.9570E-13  0.4298E-14
     -5.281  0.1745E-11  0.7907E-13
     -5.238  0.2710E-10  0.1240E-11
     -5.195  0.3582E-09  0.1659E-10
     -5.152  0.4030E-08  0.1892E-09
     -5.109  0.3861E-07  0.1843E-08
     -5.066  0.3152E-06  0.1534E-07
     -5.024  0.2193E-05  0.1093E-06
     -4.981  0.1302E-04  0.6671E-06
     -4.938  0.6609E-04  0.3498E-05
     -4.895  0.2873E-03  0.1580E-04
     -4.852  0.1073E-02  0.6178E-04
     -4.809  0.3463E-02  0.2101E-03
     -4.766  0.9720E-02  0.6265E-03
     -4.724  0.2395E-01  0.1652E-02
     -4.681  0.5239E-01  0.3897E-02
     -4.638  0.1031E+00  0.8315E-02
     -4.595  0.1850E+00  0.1624E-01
     -4.552  0.3055E+00  0.2933E-01
     -4.509  0.4683E+00  0.4939E-01
     -4.467  0.6701E+00  0.7809E-01
     -4.424  0.8989E+00  0.1166E+00
     -4.381  0.1136E+01  0.1653E+00
     -4.338  0.1358E+01  0.2234E+00
     -4.295  0.1543E+01  0.2895E+00
     -4.252  0.1680E+01  0.3615E+00
     -4.210  0.1770E+01  0.4373E+00
     -4.167  0.1834E+01  0.5159E+00
     -4.124  0.1900E+01  0.5973E+00
     -4.081  0.2002E+01  0.6830E+00
     -4.038  0.2159E+01  0.7755E+00
     -3.995  0.2373E+01  0.8771E+00
     -3.953  0.2621E+01  0.9894E+00
     -3.910  0.2863E+01  0.1112E+01
     -3.867  0.3054E+01  0.1243E+01
     -3.824  0.3163E+01  0.1378E+01
     -3.781  0.3181E+01  0.1515E+01
     -3.738  0.3135E+01  0.1649E+01
     -3.696  0.3074E+01  0.1781E+01
     -3.653  0.3050E+01  0.1911E+01
     -3.610  0.3107E+01  0.2044E+01
     -3.567  0.3253E+01  0.2184E+01
     -3.524  0.3468E+01  0.2332E+01
     -3.481  0.3709E+01  0.2491E+01
     -3.439  0.3927E+01  0.2659E+01
     -3.396  0.4086E+01  0.2834E+01
     -3.353  0.4170E+01  0.3013E+01
     -3.310  0.4190E+01  0.3193E+01
     -3.267  0.4176E+01  0.3371E+01
     -3.224  0.4170E+01  0.3550E+01
     -3.181  0.4212E+01  0.3730E+01
     -3.139  0.4324E+01  0.3916E+01
     -3.096  0.4503E+01  0.4109E+01
     -3.053  0.4726E+01  0.4311E+01
     -3.010  0.4954E+01  0.4523E+01
     -2.967  0.5148E+01  0.4744E+01
     -2.924  0.5281E+01  0.4970E+01
     -2.882  0.5346E+01  0.5199E+01
     -2.839  0.5369E+01  0.5429E+01
     -2.796  0.5395E+01  0.5660E+01
     -2.753  0.5461E+01  0.5894E+01
     -2.710  0.5571E+01  0.6133E+01
     -2.667  0.5677E+01  0.6376E+01
     -2.625  0.5712E+01  0.6621E+01
     -2.582  0.5641E+01  0.6862E+01
     -2.539  0.5506E+01  0.7098E+01
     -2.496  0.5419E+01  0.7330E+01
     -2.453  0.5510E+01  0.7566E+01
     -2.410  0.5855E+01  0.7817E+01
     -2.368  0.6416E+01  0.8092E+01
     -2.325  0.7041E+01  0.8394E+01
     -2.282  0.7514E+01  0.8716E+01
     -2.239  0.7671E+01  0.9044E+01
     -2.196  0.7490E+01  0.9365E+01
     -2.153  0.7121E+01  0.9670E+01
     -2.111  0.6806E+01  0.9962E+01
     -2.068  0.6754E+01  0.1025E+02
     -2.025  0.7037E+01  0.1055E+02
     -1.982  0.7575E+01  0.1088E+02
     -1.939  0.8182E+01  0.1123E+02
     -1.896  0.8658E+01  0.1160E+02
     -1.853  0.8886E+01  0.1198E+02
     -1.811  0.8877E+01  0.1236E+02
     -1.768  0.8758E+01  0.1273E+02
     -1.725  0.8677E+01  0.1311E+02
     -1.682  0.8721E+01  0.1348E+02
     -1.639  0.8889E+01  0.1386E+02
     -1.596  0.9132E+01  0.1425E+02
     -1.554  0.9406E+01  0.1465E+02
     -1.511  0.9691E+01  0.1507E+02
     -1.468  0.9977E+01  0.1550E+02
     -1.425  0.1024E+02  0.1594E+02
     -1.382  0.1043E+02  0.1638E+02
     -1.339  0.1056E+02  0.1684E+02
     -1.297  0.1070E+02  0.1729E+02
     -1.254  0.1104E+02  0.1777E+02
     -1.211  0.1174E+02  0.1827E+02
     -1.168  0.1280E+02  0.1882E+02
     -1.125  0.1400E+02  0.1942E+02
     -1.082  0.1497E+02  0.2006E+02
     -1.040  0.1548E+02  0.2072E+02
     -0.997  0.1553E+02  0.2139E+02
     -0.954  0.1546E+02  0.2205E+02
     -0.911  0.1571E+02  0.2272E+02
     -0.868  0.1658E+02  0.2343E+02
     -0.825  0.1813E+02  0.2421E+02
     -0.783  0.2019E+02  0.2507E+02
     -0.740  0.2266E+02  0.2604E+02
     -0.697  0.2561E+02  0.2714E+02
     -0.654  0.2923E+02  0.2839E+02
     -0.611  0.3352E+02  0.2983E+02
     -0.568  0.3818E+02  0.3147E+02
     -0.526  0.4265E+02  0.3329E+02
     -0.483  0.4642E+02  0.3528E+02
     -0.440  0.4930E+02  0.3739E+02
     -0.397  0.5148E+02  0.3960E+02
     -0.354  0.5324E+02  0.4188E+02
     -0.311  0.5475E+02  0.4422E+02
     -0.268  0.5602E+02  0.4662E+02
     -0.226  0.5693E+02  0.4906E+02
     -0.183  0.5741E+02  0.5152E+02
     -0.140  0.5756E+02  0.5399E+02
     -0.097  0.5759E+02  0.5646E+02
     -0.054  0.5775E+02  0.5893E+02
     -0.011  0.5820E+02  0.6142E+02
      0.031  0.5913E+02  0.6396E+02
      0.074  0.6069E+02  0.6656E+02
      0.117  0.6306E+02  0.6926E+02
      0.160  0.6620E+02  0.7209E+02
      0.203  0.6982E+02  0.7508E+02
      0.246  0.7350E+02  0.7823E+02
      0.288  0.7687E+02  0.8152E+02
      0.331  0.7974E+02  0.8494E+02
      0.374  0.8211E+02  0.8846E+02
      0.417  0.8400E+02  0.9206E+02
      0.460  0.8543E+02  0.9572E+02
      0.503  0.8635E+02  0.9942E+02
      0.545  0.8670E+02  0.1031E+03
      0.588  0.8655E+02  0.1068E+03
      0.631  0.8602E+02  0.1105E+03
      0.674  0.8521E+02  0.1142E+03
      0.717  0.8407E+02  0.1178E+03
      0.760  0.8253E+02  0.1213E+03
      0.802  0.8066E+02  0.1248E+03
      0.845  0.7882E+02  0.1281E+03
      0.888  0.7742E+02  0.1315E+03
      0.931  0.7668E+02  0.1347E+03
      0.974  0.7646E+02  0.1380E+03
      1.017  0.7637E+02  0.1413E+03
      1.060  0.7602E+02  0.1445E+03
      1.102  0.7524E+02  0.1478E+03
      1.145  0.7423E+02  0.1509E+03
      1.188  0.7341E+02  0.1541E+03
      1.231  0.7315E+02  0.1572E+03
      1.274  0.7347E+02  0.1604E+03
      1.317  0.7388E+02  0.1635E+03
      1.359  0.7373E+02  0.1667E+03
      1.402  0.7266E+02  0.1698E+03
      1.445  0.7088E+02  0.1728E+03
      1.488  0.6902E+02  0.1758E+03
      1.531  0.6779E+02  0.1787E+03
      1.574  0.6758E+02  0.1816E+03
      1.616  0.6846E+02  0.1845E+03
      1.659  0.7020E+02  0.1875E+03
      1.702  0.7249E+02  0.1906E+03
      1.745  0.7499E+02  0.1939E+03
      1.788  0.7749E+02  0.1972E+03
      1.831  0.7983E+02  0.2006E+03
      1.873  0.8192E+02  0.2041E+03
      1.916  0.8377E+02  0.2077E+03
      1.959  0.8543E+02  0.2114E+03
      2.002  0.8702E+02  0.2151E+03
      2.045  0.8859E+02  0.2189E+03
      2.088  0.9020E+02  0.2227E+03
      2.130  0.9183E+02  0.2267E+03
      2.173  0.9348E+02  0.2307E+03
      2.216  0.9517E+02  0.2348E+03
      2.259  0.9709E+02  0.2389E+03
      2.302  0.9951E+02  0.2432E+03
      2.345  0.1027E+03  0.2476E+03
      2.387  0.1065E+03  0.2521E+03
      2.430  0.1109E+03  0.2569E+03
      2.473  0.1154E+03  0.2618E+03
      2.516  0.1197E+03  0.2670E+03
      2.559  0.1234E+03  0.2723E+03
      2.602  0.1263E+03  0.2777E+03
      2.645  0.1284E+03  0.2832E+03
      2.687  0.1296E+03  0.2887E+03
      2.730  0.1303E+03  0.2943E+03
      2.773  0.1312E+03  0.2999E+03
      2.816  0.1327E+03  0.3056E+03
      2.859  0.1354E+03  0.3114E+03
      2.902  0.1388E+03  0.3174E+03
      2.944  0.1417E+03  0.3234E+03
      2.987  0.1425E+03  0.3295E+03
      3.030  0.1397E+03  0.3355E+03
      3.073  0.1332E+03  0.3412E+03
      3.116  0.1241E+03  0.3465E+03
      3.159  0.1143E+03  0.3514E+03
      3.201  0.1054E+03  0.3559E+03
      3.244  0.9849E+02  0.3602E+03
      3.287  0.9398E+02  0.3642E+03
      3.330  0.9156E+02  0.3681E+03
      3.373  0.9062E+02  0.3720E+03
      3.416  0.9037E+02  0.3759E+03
      3.458  0.8998E+02  0.3797E+03
      3.501  0.8883E+02  0.3835E+03
      3.544  0.8686E+02  0.3872E+03
      3.587  0.8464E+02  0.3909E+03
      3.630  0.8311E+02  0.3944E+03
      3.673  0.8309E+02  0.3980E+03
      3.715  0.8476E+02  0.4016E+03
      3.758  0.8767E+02  0.4054E+03
      3.801  0.9104E+02  0.4093E+03
      3.844  0.9420E+02  0.4133E+03
      3.887  0.9684E+02  0.4175E+03
      3.930  0.9901E+02  0.4217E+03
      3.972  0.1008E+03  0.4260E+03
      4.015  0.1023E+03  0.4304E+03
      4.058  0.1034E+03  0.4348E+03
      4.101  0.1039E+03  0.4393E+03
      4.144  0.1037E+03  0.4437E+03
      4.187  0.1029E+03  0.4481E+03
      4.230  0.1017E+03  0.4525E+03
      4.272  0.1005E+03  0.4568E+03
      4.315  0.9960E+02  0.4611E+03
      4.358  0.9928E+02  0.4653E+03
      4.401  0.9952E+02  0.4696E+03
      4.444  0.1000E+03  0.4739E+03
      4.487  0.1005E+03  0.4782E+03
      4.529  0.1004E+03  0.4825E+03
      4.572  0.9974E+02  0.4867E+03
      4.615  0.9883E+02  0.4910E+03
      4.658  0.9823E+02  0.4952E+03
      4.701  0.9849E+02  0.4994E+03
      4.744  0.9989E+02  0.5037E+03
      4.786  0.1023E+03  0.5081E+03
      4.829  0.1053E+03  0.5126E+03
      4.872  0.1085E+03  0.5172E+03
      4.915  0.1112E+03  0.5220E+03
      4.958  0.1129E+03  0.5268E+03
      5.001  0.1128E+03  0.5317E+03
      5.043  0.1098E+03  0.5364E+03
      5.086  0.1027E+03  0.5408E+03
      5.129  0.9115E+02  0.5447E+03
      5.172  0.7569E+02  0.5479E+03
      5.215  0.5803E+02  0.5504E+03
      5.258  0.4062E+02  0.5521E+03
      5.300  0.2570E+02  0.5532E+03
      5.343  0.1458E+02  0.5539E+03
      5.386  0.7371E+01  0.5542E+03
      5.429  0.3304E+01  0.5543E+03
      5.472  0.1309E+01  0.5544E+03
      5.515  0.4571E+00  0.5544E+03
      5.558  0.1404E+00  0.5544E+03
      5.600  0.3791E-01  0.5544E+03
      5.643  0.8984E-02  0.5544E+03
      5.686  0.1868E-02  0.5544E+03
      5.729  0.3402E-03  0.5544E+03
      5.772  0.5424E-04  0.5544E+03
      5.815  0.7559E-05  0.5544E+03
      5.857  0.9191E-06  0.5544E+03
      5.900  0.9730E-07  0.5544E+03
      5.943  0.8949E-08  0.5544E+03
      5.986  0.7133E-09  0.5544E+03
      6.029  0.4916E-10  0.5544E+03
      6.072  0.2922E-11  0.5544E+03
      6.114  0.1486E-12  0.5544E+03
      6.157  0.6350E-14  0.5544E+03
      6.200  0.1944E-15  0.5544E+03
      6.243  0.0000E+00  0.5544E+03
      6.286  0.0000E+00  0.5544E+03
      6.329  0.0000E+00  0.5544E+03
      6.371  0.0000E+00  0.5544E+03
      6.414  0.0000E+00  0.5544E+03
      6.457  0.0000E+00  0.5544E+03
      6.500  0.0000E+00  0.5544E+03
      6.543  0.0000E+00  0.5544E+03
      6.586  0.0000E+00  0.5544E+03
      6.628  0.0000E+00  0.5544E+03
      6.671  0.0000E+00  0.5544E+03
      6.714  0.0000E+00  0.5544E+03
      6.757  0.0000E+00  0.5544E+03
      6.800  0.0000E+00  0.5544E+03
