       N       E                     dE             d eps       ncg     rms          rms(c)
DAV:   1     0.292375168094E+05    0.29238E+05   -0.86596E+05 27944   0.197E+03
DAV:   2     0.119812675196E+04   -0.28039E+05   -0.27426E+05 27720   0.605E+02
DAV:   3    -0.194108024415E+04   -0.31392E+04   -0.27275E+04 39074   0.280E+02
DAV:   4    -0.261107174025E+04   -0.66999E+03   -0.61020E+03 50974   0.976E+01
DAV:   5    -0.273120792363E+04   -0.12014E+03   -0.11251E+03 48370   0.397E+01    0.203E+02
RMM:   6    -0.609710020885E+04   -0.33659E+04   -0.12855E+04 48504   0.254E+02    0.674E+02
RMM:   7    -0.404598411056E+04    0.20511E+04   -0.35092E+03 48666   0.102E+02    0.393E+02
RMM:   8    -0.619864907796E+04   -0.21527E+04   -0.12046E+04 46023   0.260E+02    0.759E+02
RMM:   9    -0.754824125669E+04   -0.13496E+04   -0.10124E+04 49907   0.129E+02    0.738E+02
RMM:  10    -0.936406740769E+04   -0.18158E+04   -0.86770E+03 49731   0.177E+02    0.717E+02
RMM:  11    -0.123387319846E+05   -0.29747E+04   -0.85224E+03 38170   0.192E+02    0.654E+02
RMM:  12    -0.871581381067E+04    0.36229E+04   -0.59437E+03 34317   0.141E+02    0.569E+02
RMM:  13    -0.505018085250E+04    0.36656E+04   -0.36926E+03 27721   0.136E+02    0.453E+02
RMM:  14    -0.489551931902E+04    0.15466E+03   -0.25090E+03 33468   0.913E+01    0.402E+02
RMM:  15    -0.334521364628E+04    0.15503E+04   -0.63879E+02 30001   0.495E+01    0.335E+02
RMM:  16    -0.282387202109E+04    0.52134E+03   -0.69401E+02 27839   0.530E+01    0.261E+02
RMM:  17    -0.302353563756E+04   -0.19966E+03   -0.20353E+03 44294   0.449E+01    0.315E+02
RMM:  18    -0.261918181339E+04    0.40435E+03   -0.10471E+03 35537   0.476E+01    0.234E+02
RMM:  19    -0.247217324313E+04    0.14701E+03   -0.81316E+02 43664   0.236E+01    0.156E+02
RMM:  20    -0.260476145743E+04   -0.13259E+03   -0.35057E+02 34659   0.235E+01    0.214E+02
RMM:  21    -0.243113524146E+04    0.17363E+03   -0.33557E+02 36927   0.213E+01    0.129E+02
RMM:  22    -0.240249205511E+04    0.28643E+02   -0.16476E+02 33152   0.158E+01    0.110E+02
RMM:  23    -0.237001288123E+04    0.32479E+02   -0.53417E+01 38206   0.796E+00    0.900E+01
RMM:  24    -0.236625771725E+04    0.37552E+01   -0.49330E+01 31101   0.110E+01    0.863E+01
RMM:  25    -0.237470187828E+04   -0.84442E+01   -0.56534E+01 32963   0.110E+01    0.950E+01
RMM:  26    -0.237030707933E+04    0.43948E+01   -0.38151E+01 33946   0.848E+00    0.896E+01
RMM:  27    -0.236506064674E+04    0.52464E+01   -0.21208E+01 36905   0.517E+00    0.848E+01
RMM:  28    -0.235968122258E+04    0.53794E+01   -0.97239E+00 38109   0.328E+00    0.794E+01
RMM:  29    -0.235456854964E+04    0.51127E+01   -0.76799E+00 35577   0.286E+00    0.742E+01
RMM:  30    -0.234901804148E+04    0.55505E+01   -0.51130E+00 33658   0.257E+00    0.674E+01
RMM:  31    -0.234351042202E+04    0.55076E+01   -0.60869E+00 31778   0.361E+00    0.631E+01
RMM:  32    -0.233648497455E+04    0.70254E+01   -0.75474E+00 32125   0.410E+00    0.546E+01
RMM:  33    -0.233410927440E+04    0.23757E+01   -0.85191E+00 32120   0.428E+00    0.531E+01
RMM:  34    -0.233145956544E+04    0.26497E+01   -0.64369E+00 34205   0.340E+00    0.487E+01
RMM:  35    -0.232967839719E+04    0.17812E+01   -0.39411E+00 31304   0.313E+00    0.456E+01
RMM:  36    -0.232730311181E+04    0.23753E+01   -0.51997E+00 36834   0.286E+00    0.396E+01
RMM:  37    -0.232447309634E+04    0.28300E+01   -0.41982E+00 40520   0.197E+00    0.324E+01
RMM:  38    -0.232256923311E+04    0.19039E+01   -0.26810E+00 36542   0.156E+00    0.274E+01
RMM:  39    -0.232213871501E+04    0.43052E+00   -0.23064E+00 41206   0.107E+00    0.255E+01
RMM:  40    -0.232217155898E+04   -0.32844E-01   -0.11802E+00 45415   0.432E-01    0.251E+01
RMM:  41    -0.232219873864E+04   -0.27180E-01   -0.25731E-01 33366   0.393E-01    0.251E+01
RMM:  42    -0.232280032332E+04   -0.60158E+00   -0.38261E-01 29491   0.116E+00    0.267E+01
RMM:  43    -0.232313187486E+04   -0.33155E+00   -0.10119E+00 30808   0.161E+00    0.280E+01
RMM:  44    -0.232372996162E+04   -0.59809E+00   -0.20787E+00 29499   0.264E+00    0.302E+01
RMM:  45    -0.232343991641E+04    0.29005E+00   -0.35880E+00 35275   0.248E+00    0.307E+01
RMM:  46    -0.232145791828E+04    0.19820E+01   -0.19413E+00 33540   0.201E+00    0.258E+01
RMM:  47    -0.232012640830E+04    0.13315E+01   -0.97029E-01 30354   0.174E+00    0.215E+01
RMM:  48    -0.231945719348E+04    0.66921E+00   -0.15793E+00 41470   0.118E+00    0.186E+01
RMM:  49    -0.231878328743E+04    0.67391E+00   -0.14963E+00 38127   0.124E+00    0.155E+01
RMM:  50    -0.231863490318E+04    0.14838E+00   -0.13552E+00 40824   0.999E-01    0.137E+01
RMM:  51    -0.232436207557E+04   -0.57272E+01   -0.58120E+00 31667   0.328E+00    0.332E+01
RMM:  52    -0.232454865996E+04   -0.18658E+00   -0.55391E+00 45313   0.801E-01    0.337E+01
RMM:  53    -0.232418331179E+04    0.36535E+00   -0.86534E-01 33946   0.622E-01    0.339E+01
RMM:  54    -0.232418336974E+04   -0.57953E-04   -0.51690E-01 45199   0.212E-01    0.341E+01
RMM:  55    -0.232452612826E+04   -0.34276E+00   -0.27690E-01 38384   0.266E-01    0.352E+01
RMM:  56    -0.232400223641E+04    0.52389E+00   -0.29204E+00 29967   0.290E+00    0.339E+01
RMM:  57    -0.232125674063E+04    0.27455E+01   -0.19768E+00 32765   0.203E+00    0.261E+01
RMM:  58    -0.232051271077E+04    0.74403E+00   -0.30843E+00 33140   0.237E+00    0.221E+01
RMM:  59    -0.231988649046E+04    0.62622E+00   -0.31275E+00 32494   0.257E+00    0.184E+01
RMM:  60    -0.231947547612E+04    0.41101E+00   -0.26770E+00 33799   0.214E+00    0.154E+01
RMM:  61    -0.232462858660E+04   -0.51531E+01   -0.65587E+00 31734   0.374E+00    0.333E+01
RMM:  62    -0.232373953165E+04    0.88905E+00   -0.47012E+00 32448   0.319E+00    0.301E+01
RMM:  63    -0.232335180479E+04    0.38773E+00   -0.44054E+00 40618   0.196E+00    0.294E+01
RMM:  64    -0.232227359152E+04    0.10782E+01   -0.13032E+00 35324   0.136E+00    0.265E+01
RMM:  65    -0.232175156157E+04    0.52203E+00   -0.55855E-01 36688   0.860E-01    0.254E+01
RMM:  66    -0.232106769976E+04    0.68386E+00   -0.57739E-01 30763   0.126E+00    0.230E+01
RMM:  67    -0.232092115433E+04    0.14655E+00   -0.22773E-01 28664   0.109E+00    0.229E+01
RMM:  68    -0.232073978276E+04    0.18137E+00   -0.18632E-01 29051   0.894E-01    0.221E+01
RMM:  69    -0.231999673064E+04    0.74305E+00   -0.29027E-01 30996   0.865E-01    0.188E+01
RMM:  70    -0.231945732519E+04    0.53941E+00   -0.20804E-01 34582   0.620E-01    0.163E+01
RMM:  71    -0.232135671445E+04   -0.18994E+01   -0.14411E+00 29855   0.208E+00    0.248E+01
RMM:  72    -0.232005805375E+04    0.12987E+01   -0.56206E-01 27787   0.185E+00    0.193E+01
RMM:  73    -0.231946916876E+04    0.58888E+00   -0.18707E-01 28785   0.887E-01    0.166E+01
RMM:  74    -0.231959064413E+04   -0.12148E+00   -0.15686E-01 28959   0.784E-01    0.168E+01
RMM:  75    -0.231949030183E+04    0.10034E+00   -0.13505E-01 30116   0.643E-01    0.160E+01
RMM:  76    -0.231939049797E+04    0.99804E-01   -0.89334E-01 28547   0.185E+00    0.157E+01
RMM:  77    -0.231872708322E+04    0.66341E+00   -0.31016E-01 27747   0.143E+00    0.118E+01
RMM:  78    -0.231875311581E+04   -0.26033E-01   -0.24474E-01 37886   0.539E-01    0.120E+01
RMM:  79    -0.231874363882E+04    0.94770E-02   -0.12861E-01 33528   0.484E-01    0.116E+01
RMM:  80    -0.231869241757E+04    0.51221E-01   -0.13117E-01 39434   0.379E-01    0.110E+01
RMM:  81    -0.231854953899E+04    0.14288E+00   -0.53041E-01 32773   0.101E+00    0.993E+00
RMM:  82    -0.231837815771E+04    0.17138E+00   -0.16438E-01 29518   0.757E-01    0.818E+00
RMM:  83    -0.231826813249E+04    0.11003E+00   -0.23316E-01 40375   0.454E-01    0.673E+00
RMM:  84    -0.231819662648E+04    0.71506E-01   -0.11806E-01 37819   0.356E-01    0.572E+00
RMM:  85    -0.231816517898E+04    0.31447E-01   -0.87144E-02 41218   0.276E-01    0.501E+00
RMM:  86    -0.231817625949E+04   -0.11081E-01   -0.80482E-02 31422   0.446E-01    0.519E+00
RMM:  87    -0.231813272150E+04    0.43538E-01   -0.30878E-02 28785   0.390E-01    0.431E+00
RMM:  88    -0.231810092814E+04    0.31793E-01   -0.65942E-02 40786   0.211E-01    0.355E+00
RMM:  89    -0.231808606055E+04    0.14868E-01   -0.39063E-02 42687   0.146E-01    0.303E+00
RMM:  90    -0.231806972635E+04    0.16334E-01   -0.24521E-02 38376   0.147E-01    0.251E+00
RMM:  91    -0.231807649564E+04   -0.67693E-02   -0.54484E-02 31485   0.371E-01    0.282E+00
RMM:  92    -0.231806707178E+04    0.94239E-02   -0.14621E-02 27896   0.306E-01    0.230E+00
RMM:  93    -0.231806338223E+04    0.36896E-02   -0.13930E-02 34800   0.151E-01    0.211E+00
RMM:  94    -0.231805611652E+04    0.72657E-02   -0.15877E-02 39068   0.141E-01    0.177E+00
RMM:  95    -0.231804947738E+04    0.66391E-02   -0.15895E-02 39987   0.120E-01    0.139E+00
RMM:  96    -0.231804299429E+04    0.64831E-02   -0.49446E-02 32380   0.339E-01    0.104E+00
RMM:  97    -0.231804024737E+04    0.27469E-02   -0.27871E-02 40889   0.174E-01    0.507E-01
RMM:  98    -0.231804077908E+04   -0.53172E-03   -0.14526E-02 39978   0.972E-02    0.424E-01
RMM:  99    -0.231804121394E+04   -0.43486E-03   -0.60378E-03 35648   0.890E-02    0.439E-01
RMM: 100    -0.231804158723E+04   -0.37329E-03   -0.34209E-03 33188   0.791E-02
   1 F= -.23180416E+04 E0= -.23152666E+04  d E =-.231804E+04
       N       E                     dE             d eps       ncg     rms          rms(c)
DAV:   1    -0.231818209398E+04   -0.14088E+00   -0.33629E+01 29260   0.607E+00    0.112E+00
RMM:   2    -0.233011353311E+04   -0.11931E+02   -0.17006E+00 29971   0.214E+00    0.466E+01
RMM:   3    -0.231909613969E+04    0.11017E+02   -0.40097E-01 29150   0.125E+00    0.112E+01
RMM:   4    -0.232093126045E+04   -0.18351E+01   -0.28239E-01 31601   0.803E-01    0.222E+01
RMM:   5    -0.231880365540E+04    0.21276E+01   -0.22503E-01 27929   0.962E-01    0.977E+00
RMM:   6    -0.231854878329E+04    0.25487E+00   -0.25858E-01 28991   0.920E-01    0.778E+00
RMM:   7    -0.231900202206E+04   -0.45324E+00   -0.56704E-01 31255   0.113E+00    0.121E+01
RMM:   8    -0.231842634911E+04    0.57567E+00   -0.21991E-01 27911   0.970E-01    0.547E+00
RMM:   9    -0.231823833392E+04    0.18802E+00   -0.86273E-02 27757   0.673E-01    0.197E+00
RMM:  10    -0.231822990589E+04    0.84280E-02   -0.51877E-02 30016   0.383E-01    0.176E+00
RMM:  11    -0.231823338584E+04   -0.34799E-02   -0.62942E-02 33859   0.324E-01    0.176E+00
RMM:  12    -0.231822971551E+04    0.36703E-02   -0.30786E-02 30590   0.288E-01    0.154E+00
RMM:  13    -0.231821819960E+04    0.11516E-01   -0.11235E-02 28090   0.231E-01    0.617E-01
RMM:  14    -0.231821706906E+04    0.11305E-02   -0.10202E-02 34175   0.127E-01    0.367E-01
RMM:  15    -0.231821786959E+04   -0.80054E-03   -0.76290E-03 37211   0.100E-01    0.485E-01
RMM:  16    -0.231821726339E+04    0.60620E-03   -0.34649E-03 31878   0.885E-02    0.302E-01
RMM:  17    -0.231821717893E+04    0.84465E-04   -0.27230E-03 38915   0.535E-02    0.230E-01
RMM:  18    -0.231821723363E+04   -0.54701E-04   -0.11074E-03 31160   0.546E-02    0.249E-01
RMM:  19    -0.231821704232E+04    0.19131E-03   -0.67988E-04 29331   0.490E-02    0.158E-01
RMM:  20    -0.231821704558E+04   -0.32667E-05   -0.73878E-04 37774   0.294E-02    0.135E-01
RMM:  21    -0.231821707169E+04   -0.26102E-04   -0.37141E-04 32351   0.289E-02    0.132E-01
RMM:  22    -0.231821702141E+04    0.50278E-04   -0.18820E-04 30171   0.250E-02    0.798E-02
RMM:  23    -0.231821700744E+04    0.13971E-04   -0.13906E-04 33627   0.143E-02    0.464E-02
RMM:  24    -0.231821701479E+04   -0.73570E-05   -0.95656E-05 40093   0.879E-03    0.424E-02
RMM:  25    -0.231821702087E+04   -0.60720E-05   -0.38002E-05 33388   0.782E-03    0.311E-02
RMM:  26    -0.231821702258E+04   -0.17135E-05   -0.20571E-05 30672   0.513E-03    0.213E-02
RMM:  27    -0.231821702569E+04   -0.31152E-05   -0.11236E-05 25450   0.374E-03    0.195E-02
RMM:  28    -0.231821703585E+04   -0.10156E-04   -0.75962E-06 24301   0.445E-03    0.188E-02
RMM:  29    -0.231821703974E+04   -0.38945E-05   -0.34448E-06 18362   0.343E-03    0.150E-02
RMM:  30    -0.231821704191E+04   -0.21689E-05   -0.27686E-06 18164   0.250E-03    0.142E-02
RMM:  31    -0.231821704613E+04   -0.42170E-05   -0.21060E-06 16820   0.266E-03    0.872E-03
RMM:  32    -0.231821704750E+04   -0.13737E-05   -0.14647E-06 16257   0.185E-03    0.518E-03
RMM:  33    -0.231821704945E+04   -0.19487E-05   -0.12098E-06 15925   0.143E-03    0.504E-03
RMM:  34    -0.231821705280E+04   -0.33504E-05   -0.10918E-06 15775   0.157E-03    0.402E-03
RMM:  35    -0.231821705401E+04   -0.12111E-05   -0.87143E-07 15581   0.110E-03    0.297E-03
RMM:  36    -0.231821705577E+04   -0.17602E-05   -0.77768E-07 15395   0.101E-03    0.266E-03
RMM:  37    -0.231821705839E+04   -0.26152E-05   -0.76673E-07 15484   0.109E-03    0.258E-03
RMM:  38    -0.231821706005E+04   -0.16603E-05   -0.68790E-07 15293   0.941E-04    0.182E-03
RMM:  39    -0.231821706148E+04   -0.14287E-05   -0.61575E-07 15170   0.808E-04    0.152E-03
RMM:  40    -0.231821706298E+04   -0.15056E-05   -0.59564E-07 14976   0.757E-04    0.172E-03
RMM:  41    -0.231821706393E+04   -0.94896E-06   -0.52799E-07 14862   0.758E-04
   2 F= -.23182171E+04 E0= -.23154385E+04  d E =-.175477E+00
       N       E                     dE             d eps       ncg     rms          rms(c)
DAV:   1    -0.231814913907E+04    0.67924E-01   -0.30211E+02 27720   0.183E+01    0.343E+00
RMM:   2    -0.233079430655E+04   -0.12645E+02   -0.82602E+00 27842   0.609E+00    0.477E+01
RMM:   3    -0.232911255863E+04    0.16817E+01   -0.40069E+00 38803   0.235E+00    0.418E+01
RMM:   4    -0.233570256239E+04   -0.65900E+01   -0.15528E+00 27962   0.268E+00    0.557E+01
RMM:   5    -0.232025414157E+04    0.15448E+02   -0.12447E+00 34444   0.160E+00    0.154E+01
RMM:   6    -0.232232215872E+04   -0.20680E+01   -0.21196E+00 30174   0.231E+00    0.254E+01
RMM:   7    -0.232131460744E+04    0.10076E+01   -0.13157E+00 28094   0.225E+00    0.228E+01
RMM:   8    -0.231991929414E+04    0.13953E+01   -0.69136E-01 27963   0.165E+00    0.157E+01
RMM:   9    -0.231882751147E+04    0.10918E+01   -0.38996E-01 27734   0.148E+00    0.658E+00
RMM:  10    -0.231899302249E+04   -0.16551E+00   -0.49430E-01 28702   0.134E+00    0.895E+00
RMM:  11    -0.231874689989E+04    0.24612E+00   -0.29753E-01 28589   0.107E+00    0.590E+00
RMM:  12    -0.231859127392E+04    0.15563E+00   -0.12274E-01 27762   0.814E-01    0.264E+00
RMM:  13    -0.231856582046E+04    0.25453E-01   -0.73385E-02 30123   0.457E-01    0.178E+00
RMM:  14    -0.231856772148E+04   -0.19010E-02   -0.77642E-02 35595   0.318E-01    0.162E+00
RMM:  15    -0.231856895828E+04   -0.12368E-02   -0.46757E-02 32952   0.304E-01    0.161E+00
RMM:  16    -0.231855801361E+04    0.10945E-01   -0.16387E-02 29441   0.246E-01    0.818E-01
RMM:  17    -0.231855903261E+04   -0.10190E-02   -0.20577E-02 35829   0.172E-01    0.833E-01
RMM:  18    -0.231855799090E+04    0.10417E-02   -0.10635E-02 30525   0.175E-01    0.694E-01
RMM:  19    -0.231855717005E+04    0.82084E-03   -0.72520E-03 33445   0.119E-01    0.550E-01
RMM:  20    -0.231855710814E+04    0.61912E-04   -0.45328E-03 34080   0.900E-02    0.516E-01
RMM:  21    -0.231855607127E+04    0.10369E-02   -0.16518E-03 29212   0.806E-02    0.287E-01
RMM:  22    -0.231855599388E+04    0.77385E-04   -0.16700E-03 37923   0.432E-02    0.225E-01
RMM:  23    -0.231855603209E+04   -0.38209E-04   -0.84098E-04 34119   0.371E-02    0.222E-01
RMM:  24    -0.231855592143E+04    0.11066E-03   -0.40421E-04 31184   0.323E-02    0.164E-01
RMM:  25    -0.231855583865E+04    0.82776E-04   -0.25441E-04 31991   0.242E-02    0.997E-02
RMM:  26    -0.231855584155E+04   -0.29019E-05   -0.27629E-04 38885   0.161E-02    0.879E-02
RMM:  27    -0.231855583536E+04    0.61943E-05   -0.12904E-04 34111   0.141E-02    0.751E-02
RMM:  28    -0.231855582757E+04    0.77926E-05   -0.71597E-05 34415   0.996E-03    0.580E-02
RMM:  29    -0.231855582803E+04   -0.46461E-06   -0.50774E-05 37210   0.515E-03    0.524E-02
RMM:  30    -0.231855581916E+04    0.88759E-05   -0.15718E-05 29155   0.531E-03    0.310E-02
RMM:  31    -0.231855581719E+04    0.19681E-05   -0.84167E-06 24076   0.403E-03    0.227E-02
RMM:  32    -0.231855581686E+04    0.32326E-06   -0.67655E-06 23948   0.434E-03
   3 F= -.23185558E+04 E0= -.23157647E+04  d E =-.514230E+00
       N       E                     dE             d eps       ncg     rms          rms(c)
DAV:   1    -0.231622167826E+04    0.23341E+01   -0.12073E+03 27720   0.370E+01    0.758E+00
RMM:   2    -0.237171989890E+04   -0.55498E+02   -0.44817E+01 27834   0.135E+01    0.974E+01
RMM:   3    -0.238992244103E+04   -0.18203E+02   -0.21470E+01 38454   0.552E+00    0.105E+02
RMM:   4    -0.241761623598E+04   -0.27694E+02   -0.98768E+00 29209   0.588E+00    0.124E+02
RMM:   5    -0.232518233249E+04    0.92434E+02   -0.57948E+00 31490   0.402E+00    0.326E+01
RMM:   6    -0.233227494515E+04   -0.70926E+01   -0.82893E+00 32710   0.409E+00    0.481E+01
RMM:   7    -0.233140780949E+04    0.86714E+00   -0.63976E+00 29101   0.456E+00    0.462E+01
RMM:   8    -0.232392095304E+04    0.74869E+01   -0.37367E+00 27793   0.409E+00    0.314E+01
RMM:   9    -0.232038315745E+04    0.35378E+01   -0.23293E+00 27758   0.353E+00    0.185E+01
RMM:  10    -0.231964390317E+04    0.73925E+00   -0.19006E+00 27998   0.297E+00    0.150E+01
RMM:  11    -0.231897171969E+04    0.67218E+00   -0.79635E-01 27761   0.207E+00    0.107E+01
RMM:  12    -0.231851490601E+04    0.45681E+00   -0.40529E-01 28524   0.119E+00    0.504E+00
RMM:  13    -0.231847727221E+04    0.37634E-01   -0.41459E-01 31477   0.941E-01    0.436E+00
RMM:  14    -0.231851592012E+04   -0.38648E-01   -0.41104E-01 33729   0.861E-01    0.478E+00
RMM:  15    -0.231846499765E+04    0.50922E-01   -0.15056E-01 29136   0.715E-01    0.396E+00
RMM:  16    -0.231845821988E+04    0.67778E-02   -0.15566E-01 37694   0.393E-01    0.359E+00
RMM:  17    -0.231844441818E+04    0.13802E-01   -0.78969E-02 36028   0.344E-01    0.293E+00
RMM:  18    -0.231842397335E+04    0.20445E-01   -0.31035E-02 29295   0.340E-01    0.208E+00
RMM:  19    -0.231841699961E+04    0.69737E-02   -0.36222E-02 30755   0.312E-01    0.179E+00
RMM:  20    -0.231841977646E+04   -0.27768E-02   -0.19875E-02 29824   0.256E-01    0.210E+00
RMM:  21    -0.231842055671E+04   -0.78025E-03   -0.11637E-02 31595   0.165E-01    0.211E+00
RMM:  22    -0.231842075913E+04   -0.20242E-03   -0.11053E-02 42269   0.761E-02    0.208E+00
RMM:  23    -0.231841742637E+04    0.33328E-02   -0.26512E-03 34676   0.580E-02    0.189E+00
RMM:  24    -0.231841103945E+04    0.63869E-02   -0.25220E-03 30288   0.870E-02    0.147E+00
RMM:  25    -0.231840217581E+04    0.88636E-02   -0.40622E-03 28459   0.125E-01    0.548E-01
RMM:  26    -0.231840170490E+04    0.47091E-03   -0.27404E-03 29023   0.102E-01    0.527E-01
RMM:  27    -0.231840208127E+04   -0.37637E-03   -0.25857E-03 33739   0.661E-02    0.584E-01
RMM:  28    -0.231840173344E+04    0.34782E-03   -0.12563E-03 32266   0.533E-02    0.496E-01
RMM:  29    -0.231840132337E+04    0.41008E-03   -0.55432E-04 30551   0.407E-02    0.397E-01
RMM:  30    -0.231840118396E+04    0.13940E-03   -0.66515E-04 35276   0.320E-02    0.351E-01
RMM:  31    -0.231840074184E+04    0.44212E-03   -0.39728E-04 30611   0.330E-02    0.170E-01
RMM:  32    -0.231840065303E+04    0.88812E-04   -0.27613E-04 32375   0.241E-02    0.103E-01
RMM:  33    -0.231840067439E+04   -0.21356E-04   -0.26506E-04 36161   0.195E-02    0.112E-01
RMM:  34    -0.231840063644E+04    0.37947E-04   -0.88504E-05 30165   0.166E-02    0.770E-02
RMM:  35    -0.231840062256E+04    0.13880E-04   -0.48772E-05 30944   0.115E-02    0.583E-02
RMM:  36    -0.231840062431E+04   -0.17480E-05   -0.54090E-05 37830   0.759E-03    0.556E-02
RMM:  37    -0.231840061517E+04    0.91309E-05   -0.21859E-05 30113   0.777E-03    0.347E-02
RMM:  38    -0.231840061175E+04    0.34249E-05   -0.15534E-05 29404   0.548E-03    0.217E-02
RMM:  39    -0.231840061200E+04   -0.24633E-06   -0.10502E-05 26133   0.415E-03    0.207E-02
RMM:  40    -0.231840061077E+04    0.12216E-05   -0.49642E-06 20922   0.416E-03    0.146E-02
RMM:  41    -0.231840061045E+04    0.32762E-06   -0.28382E-06 18511   0.260E-03
   4 F= -.23184006E+04 E0= -.23155917E+04  d E =-.359023E+00
       N       E                     dE             d eps       ncg     rms          rms(c)
DAV:   1    -0.231787317199E+04    0.52744E+00   -0.49536E+02 27720   0.235E+01    0.426E+00
RMM:   2    -0.233150523189E+04   -0.13632E+02   -0.13221E+01 27862   0.736E+00    0.479E+01
RMM:   3    -0.233321344916E+04   -0.17082E+01   -0.50185E+00 39726   0.242E+00    0.515E+01
RMM:   4    -0.234375690542E+04   -0.10543E+02   -0.23394E+00 29321   0.272E+00    0.672E+01
RMM:   5    -0.232152601831E+04    0.22231E+02   -0.16776E+00 28515   0.248E+00    0.213E+01
RMM:   6    -0.232301734046E+04   -0.14913E+01   -0.35468E+00 31421   0.285E+00    0.279E+01
RMM:   7    -0.232066960764E+04    0.23477E+01   -0.18681E+00 27913   0.277E+00    0.192E+01
RMM:   8    -0.232037637335E+04    0.29323E+00   -0.84214E-01 28120   0.190E+00    0.182E+01
RMM:   9    -0.231968358493E+04    0.69279E+00   -0.53414E-01 28187   0.140E+00    0.139E+01
RMM:  10    -0.231914826445E+04    0.53532E+00   -0.60924E-01 27847   0.162E+00    0.985E+00
RMM:  11    -0.231894336917E+04    0.20490E+00   -0.57617E-01 29637   0.133E+00    0.727E+00
RMM:  12    -0.231875717725E+04    0.18619E+00   -0.22629E-01 27863   0.107E+00    0.507E+00
RMM:  13    -0.231869994971E+04    0.57228E-01   -0.13935E-01 29647   0.675E-01    0.393E+00
RMM:  14    -0.231868271601E+04    0.17234E-01   -0.16566E-01 34108   0.524E-01    0.336E+00
RMM:  15    -0.231863467634E+04    0.48040E-01   -0.47883E-02 28051   0.446E-01    0.149E+00
RMM:  16    -0.231863426781E+04    0.40853E-03   -0.45177E-02 33607   0.273E-01    0.140E+00
RMM:  17    -0.231863528730E+04   -0.10195E-02   -0.32615E-02 37405   0.204E-01    0.138E+00
RMM:  18    -0.231862880254E+04    0.64848E-02   -0.97980E-03 30111   0.171E-01    0.805E-01
RMM:  19    -0.231862828984E+04    0.51270E-03   -0.10315E-02 38077   0.106E-01    0.666E-01
RMM:  20    -0.231862869442E+04   -0.40458E-03   -0.61272E-03 32662   0.110E-01    0.666E-01
RMM:  21    -0.231862759425E+04    0.11002E-02   -0.24585E-03 29553   0.948E-02    0.483E-01
RMM:  22    -0.231862754879E+04    0.45459E-04   -0.28250E-03 36060   0.590E-02    0.443E-01
RMM:  23    -0.231862691733E+04    0.63146E-03   -0.12591E-03 31291   0.564E-02    0.264E-01
RMM:  24    -0.231862664605E+04    0.27128E-03   -0.57430E-04 29990   0.456E-02    0.155E-01
RMM:  25    -0.231862665266E+04   -0.66140E-05   -0.67135E-04 38200   0.252E-02    0.132E-01
RMM:  26    -0.231862664495E+04    0.77158E-05   -0.31822E-04 33995   0.226E-02    0.115E-01
RMM:  27    -0.231862659943E+04    0.45512E-04   -0.13639E-04 31927   0.174E-02    0.614E-02
RMM:  28    -0.231862660052E+04   -0.10897E-05   -0.13777E-04 39889   0.105E-02    0.482E-02
RMM:  29    -0.231862660212E+04   -0.16000E-05   -0.58754E-05 36155   0.827E-03    0.467E-02
RMM:  30    -0.231862660613E+04   -0.40095E-05   -0.26214E-05 31526   0.712E-03    0.534E-02
RMM:  31    -0.231862660482E+04    0.13120E-05   -0.22822E-05 32793   0.574E-03    0.483E-02
RMM:  32    -0.231862659592E+04    0.89013E-05   -0.97113E-06 26246   0.510E-03    0.228E-02
RMM:  33    -0.231862659357E+04    0.23459E-05   -0.38936E-06 19609   0.404E-03    0.115E-02
RMM:  34    -0.231862659355E+04    0.21071E-07   -0.29151E-06 18979   0.250E-03
   5 F= -.23186266E+04 E0= -.23158279E+04  d E =-.585006E+00
