       N       E                     dE             d eps       ncg     rms          rms(c)
DAV:   1     0.290871744471E+05    0.29087E+05   -0.86167E+05 27930   0.196E+03
DAV:   2     0.118964778706E+04   -0.27898E+05   -0.27278E+05 27720   0.601E+02
DAV:   3    -0.194974756169E+04   -0.31394E+04   -0.27205E+04 38934   0.279E+02
DAV:   4    -0.261934985166E+04   -0.66960E+03   -0.60930E+03 50918   0.973E+01
DAV:   5    -0.273912407054E+04   -0.11977E+03   -0.11212E+03 48314   0.398E+01    0.204E+02
RMM:   6    -0.516219112836E+04   -0.24231E+04   -0.99578E+03 47768   0.229E+02    0.561E+02
RMM:   7    -0.356099054447E+04    0.16012E+04   -0.39992E+03 28394   0.136E+02    0.350E+02
RMM:   8    -0.793898930690E+04   -0.43780E+04   -0.12311E+04 42383   0.284E+02    0.836E+02
RMM:   9    -0.103322891315E+05   -0.23933E+04   -0.13895E+04 48133   0.153E+02    0.798E+02
RMM:  10    -0.113504585826E+05   -0.10182E+04   -0.99267E+03 47624   0.168E+02    0.845E+02
RMM:  11    -0.698021381121E+04    0.43702E+04   -0.29661E+03 50035   0.993E+01    0.529E+02
RMM:  12    -0.561993557488E+04    0.13603E+04   -0.14749E+04 47225   0.298E+02    0.852E+02
RMM:  13    -0.556142134861E+04    0.58514E+02   -0.84318E+03 45571   0.194E+02    0.798E+02
RMM:  14    -0.872750803017E+04   -0.31661E+04   -0.90326E+03 50490   0.213E+02    0.939E+02
RMM:  15    -0.916514384750E+04   -0.43764E+03   -0.73935E+03 49422   0.195E+02    0.118E+03
RMM:  16    -0.893417825201E+04    0.23097E+03   -0.77099E+03 49194   0.207E+02    0.920E+02
RMM:  17    -0.942873999790E+04   -0.49456E+03   -0.54744E+03 47835   0.147E+02    0.733E+02
RMM:  18    -0.487089468616E+04    0.45578E+04   -0.41574E+03 37456   0.155E+02    0.491E+02
RMM:  19    -0.398470670185E+04    0.88619E+03   -0.32834E+03 48523   0.747E+01    0.429E+02
RMM:  20    -0.383373457780E+04    0.15097E+03   -0.20103E+03 39976   0.540E+01    0.384E+02
RMM:  21    -0.305102347142E+04    0.78271E+03   -0.21243E+03 43902   0.443E+01    0.304E+02
RMM:  22    -0.269548729196E+04    0.35554E+03   -0.11946E+03 41246   0.286E+01    0.247E+02
RMM:  23    -0.248301983458E+04    0.21247E+03   -0.50928E+02 34258   0.275E+01    0.208E+02
RMM:  24    -0.242525903391E+04    0.57761E+02   -0.76608E+02 37735   0.343E+01    0.170E+02
RMM:  25    -0.237198388569E+04    0.53275E+02   -0.68880E+02 40423   0.274E+01    0.125E+02
RMM:  26    -0.235622664309E+04    0.15757E+02   -0.47846E+02 39414   0.199E+01    0.114E+02
RMM:  27    -0.237871899634E+04   -0.22492E+02   -0.49752E+02 43057   0.177E+01    0.106E+02
RMM:  28    -0.237294023503E+04    0.57788E+01   -0.21794E+02 36700   0.138E+01    0.996E+01
RMM:  29    -0.238429056159E+04   -0.11350E+02   -0.14876E+02 37779   0.110E+01    0.100E+02
RMM:  30    -0.235609943099E+04    0.28191E+02   -0.75786E+01 41979   0.687E+00    0.773E+01
RMM:  31    -0.235864471603E+04   -0.25453E+01   -0.33301E+01 35781   0.539E+00    0.767E+01
RMM:  32    -0.235490968976E+04    0.37350E+01   -0.26080E+01 37629   0.521E+00    0.737E+01
RMM:  33    -0.234536978404E+04    0.95399E+01   -0.17576E+01 36655   0.419E+00    0.611E+01
RMM:  34    -0.234607109513E+04   -0.70131E+00   -0.14718E+01 33511   0.499E+00    0.653E+01
RMM:  35    -0.234805077231E+04   -0.19797E+01   -0.10324E+01 33899   0.431E+00    0.702E+01
RMM:  36    -0.234437670848E+04    0.36741E+01   -0.76036E+00 43767   0.180E+00    0.640E+01
RMM:  37    -0.234193597280E+04    0.24407E+01   -0.26047E+00 36864   0.123E+00    0.600E+01
RMM:  38    -0.233988170443E+04    0.20543E+01   -0.32870E+00 31258   0.285E+00    0.544E+01
RMM:  39    -0.234070950589E+04   -0.82780E+00   -0.36575E+00 30291   0.318E+00    0.532E+01
RMM:  40    -0.234331547887E+04   -0.26060E+01   -0.29180E+00 31741   0.275E+00    0.575E+01
RMM:  41    -0.234438171094E+04   -0.10662E+01   -0.36336E+00 35442   0.239E+00    0.604E+01
RMM:  42    -0.234254858007E+04    0.18331E+01   -0.32728E+00 31770   0.263E+00    0.589E+01
RMM:  43    -0.233549358950E+04    0.70550E+01   -0.42882E+00 38509   0.213E+00    0.490E+01
RMM:  44    -0.233264976132E+04    0.28438E+01   -0.19318E+00 34002   0.175E+00    0.448E+01
RMM:  45    -0.233117720647E+04    0.14726E+01   -0.11913E+00 30915   0.176E+00    0.417E+01
RMM:  46    -0.233057951884E+04    0.59769E+00   -0.77855E-01 30736   0.142E+00    0.404E+01
RMM:  47    -0.233069389632E+04   -0.11438E+00   -0.54397E-01 31149   0.117E+00    0.408E+01
RMM:  48    -0.233108006651E+04   -0.38617E+00   -0.62730E-01 39947   0.834E-01    0.411E+01
RMM:  49    -0.233234858642E+04   -0.12685E+01   -0.32973E-01 31041   0.871E-01    0.432E+01
RMM:  50    -0.233299722510E+04   -0.64864E+00   -0.53710E-01 32006   0.110E+00    0.443E+01
RMM:  51    -0.245183893528E+04   -0.11884E+03   -0.82142E+01 31142   0.134E+01    0.141E+02
RMM:  52    -0.243113203413E+04    0.20707E+02   -0.45005E+01 28444   0.135E+01    0.134E+02
RMM:  53    -0.241180819798E+04    0.19324E+02   -0.49482E+01 36651   0.820E+00    0.117E+02
RMM:  54    -0.242209992010E+04   -0.10292E+02   -0.14652E+01 28224   0.831E+00    0.128E+02
RMM:  55    -0.240929467009E+04    0.12805E+02   -0.22130E+01 29691   0.816E+00    0.121E+02
RMM:  56    -0.240387572667E+04    0.54189E+01   -0.47000E+01 29440   0.125E+01    0.116E+02
RMM:  57    -0.241607283173E+04   -0.12197E+02   -0.29068E+01 29205   0.104E+01    0.125E+02
RMM:  58    -0.238106185304E+04    0.35011E+02   -0.16405E+01 28470   0.843E+00    0.996E+01
RMM:  59    -0.237742023895E+04    0.36416E+01   -0.10082E+01 29144   0.663E+00    0.960E+01
RMM:  60    -0.237217846276E+04    0.52418E+01   -0.12958E+01 30803   0.559E+00    0.904E+01
RMM:  61    -0.234566902221E+04    0.26509E+02   -0.11304E+01 28706   0.684E+00    0.606E+01
RMM:  62    -0.233515708182E+04    0.10512E+02   -0.77500E+00 30328   0.474E+00    0.448E+01
RMM:  63    -0.232715915925E+04    0.79979E+01   -0.86798E+00 33046   0.400E+00    0.269E+01
RMM:  64    -0.232682476344E+04    0.33440E+00   -0.76439E+00 32021   0.387E+00    0.255E+01
RMM:  65    -0.232870633046E+04   -0.18816E+01   -0.86891E+00 33654   0.386E+00    0.303E+01
RMM:  66    -0.233310537031E+04   -0.43990E+01   -0.15705E+01 28015   0.772E+00    0.380E+01
RMM:  67    -0.233027240946E+04    0.28330E+01   -0.71943E+00 28998   0.514E+00    0.330E+01
RMM:  68    -0.232947753674E+04    0.79487E+00   -0.52927E+00 29264   0.433E+00    0.303E+01
RMM:  69    -0.232807459037E+04    0.14029E+01   -0.59274E+00 30174   0.418E+00    0.253E+01
RMM:  70    -0.232621964016E+04    0.18550E+01   -0.37669E+00 30740   0.315E+00    0.196E+01
RMM:  71    -0.233479436038E+04   -0.85747E+01   -0.35847E+00 27923   0.406E+00    0.452E+01
RMM:  72    -0.233030087294E+04    0.44935E+01   -0.22012E+00 28290   0.310E+00    0.338E+01
RMM:  73    -0.232828789452E+04    0.20130E+01   -0.12377E+00 28287   0.243E+00    0.280E+01
RMM:  74    -0.232570284401E+04    0.25851E+01   -0.13924E+00 31272   0.182E+00    0.174E+01
RMM:  75    -0.232456071255E+04    0.11421E+01   -0.57055E-01 28790   0.163E+00    0.968E+00
RMM:  76    -0.232619447207E+04   -0.16338E+01   -0.21977E+00 28120   0.305E+00    0.196E+01
RMM:  77    -0.232477496600E+04    0.14195E+01   -0.94508E-01 27775   0.265E+00    0.114E+01
RMM:  78    -0.232460075914E+04    0.17421E+00   -0.39659E-01 30667   0.103E+00    0.997E+00
RMM:  79    -0.232435416116E+04    0.24660E+00   -0.30930E-01 30306   0.961E-01    0.712E+00
RMM:  80    -0.232424979951E+04    0.10436E+00   -0.26111E-01 31672   0.755E-01    0.536E+00
RMM:  81    -0.232444621559E+04   -0.19642E+00   -0.52204E-01 29186   0.142E+00    0.789E+00
RMM:  82    -0.232422339695E+04    0.22282E+00   -0.24851E-01 28250   0.127E+00    0.455E+00
RMM:  83    -0.232421795002E+04    0.54469E-02   -0.14130E-01 29022   0.790E-01    0.443E+00
RMM:  84    -0.232420593955E+04    0.12010E-01   -0.10009E-01 29086   0.665E-01    0.407E+00
RMM:  85    -0.232415265723E+04    0.53282E-01   -0.60213E-02 29314   0.494E-01    0.245E+00
RMM:  86    -0.232425171236E+04   -0.99055E-01   -0.29037E-01 30497   0.915E-01    0.466E+00
RMM:  87    -0.232414256198E+04    0.10915E+00   -0.86739E-02 28259   0.736E-01    0.171E+00
RMM:  88    -0.232414025289E+04    0.23091E-02   -0.50874E-02 32854   0.304E-01    0.144E+00
RMM:  89    -0.232414852497E+04   -0.82721E-02   -0.28219E-02 30788   0.270E-01    0.177E+00
RMM:  90    -0.232414942360E+04   -0.89863E-03   -0.17816E-02 30220   0.235E-01    0.175E+00
RMM:  91    -0.232414499503E+04    0.44286E-02   -0.27011E-02 30998   0.269E-01    0.144E+00
RMM:  92    -0.232413767651E+04    0.73185E-02   -0.11045E-02 29364   0.214E-01    0.820E-01
RMM:  93    -0.232413889838E+04   -0.12219E-02   -0.16246E-02 35851   0.137E-01    0.828E-01
RMM:  94    -0.232413732452E+04    0.15739E-02   -0.73104E-03 33772   0.113E-01    0.559E-01
RMM:  95    -0.232413651491E+04    0.80961E-03   -0.45318E-03 36006   0.752E-02    0.362E-01
RMM:  96    -0.232414289843E+04   -0.63835E-02   -0.12467E-02 29760   0.204E-01    0.109E+00
RMM:  97    -0.232413948073E+04    0.34177E-02   -0.50583E-03 28207   0.169E-01    0.752E-01
RMM:  98    -0.232413939322E+04    0.87515E-04   -0.18191E-03 29103   0.927E-02    0.753E-01
RMM:  99    -0.232413858043E+04    0.81278E-03   -0.16942E-03 31122   0.644E-02    0.624E-01
RMM: 100    -0.232413788989E+04    0.69054E-03   -0.14576E-03 30017   0.672E-02
   1 F= -.23241379E+04 E0= -.23213733E+04  d E =-.232414E+04
       N       E                     dE             d eps       ncg     rms          rms(c)
DAV:   1    -0.232428129049E+04   -0.14271E+00   -0.34961E+01 29848   0.618E+00    0.113E+00
RMM:   2    -0.233135796040E+04   -0.70767E+01   -0.95519E-01 28125   0.190E+00    0.364E+01
RMM:   3    -0.232547455196E+04    0.58834E+01   -0.55696E-01 38243   0.871E-01    0.133E+01
RMM:   4    -0.232631915542E+04   -0.84460E+00   -0.28574E-01 28403   0.108E+00    0.187E+01
RMM:   5    -0.232477965283E+04    0.15395E+01   -0.17835E-01 29186   0.765E-01    0.931E+00
RMM:   6    -0.232456008800E+04    0.21956E+00   -0.23535E-01 32238   0.738E-01    0.672E+00
RMM:   7    -0.232517536880E+04   -0.61528E+00   -0.52530E-01 31789   0.104E+00    0.120E+01
RMM:   8    -0.232447426404E+04    0.70110E+00   -0.19132E-01 27733   0.922E-01    0.502E+00
RMM:   9    -0.232434195100E+04    0.13231E+00   -0.66667E-02 27872   0.556E-01    0.203E+00
RMM:  10    -0.232432882727E+04    0.13124E-01   -0.48641E-02 30072   0.370E-01    0.148E+00
RMM:  11    -0.232433540170E+04   -0.65744E-02   -0.50399E-02 32055   0.328E-01    0.175E+00
RMM:  12    -0.232432621029E+04    0.91914E-02   -0.20835E-02 28900   0.262E-01    0.114E+00
RMM:  13    -0.232431955157E+04    0.66587E-02   -0.90716E-03 28891   0.190E-01    0.507E-01
RMM:  14    -0.232431964252E+04   -0.90958E-04   -0.95666E-03 35672   0.113E-01    0.444E-01
RMM:  15    -0.232431995795E+04   -0.31543E-03   -0.58839E-03 32840   0.109E-01    0.449E-01
RMM:  16    -0.232431924611E+04    0.71184E-03   -0.21478E-03 29497   0.885E-02    0.274E-01
RMM:  17    -0.232431923714E+04    0.89760E-05   -0.23616E-03 38301   0.489E-02    0.225E-01
RMM:  18    -0.232431924708E+04   -0.99411E-05   -0.10105E-03 31512   0.490E-02    0.211E-01
RMM:  19    -0.232431909816E+04    0.14892E-03   -0.50498E-04 30577   0.390E-02    0.115E-01
RMM:  20    -0.232431912406E+04   -0.25897E-04   -0.51245E-04 37548   0.237E-02    0.109E-01
RMM:  21    -0.232431916298E+04   -0.38926E-04   -0.25740E-04 31519   0.246E-02    0.114E-01
RMM:  22    -0.232431912043E+04    0.42556E-04   -0.11175E-04 30145   0.190E-02    0.519E-02
RMM:  23    -0.232431912780E+04   -0.73721E-05   -0.13375E-04 40488   0.903E-03    0.431E-02
RMM:  24    -0.232431913810E+04   -0.10302E-04   -0.49848E-05 33760   0.828E-03    0.359E-02
RMM:  25    -0.232431914009E+04   -0.19839E-05   -0.24330E-05 30239   0.634E-03    0.177E-02
RMM:  26    -0.232431914488E+04   -0.47928E-05   -0.18963E-05 28009   0.378E-03    0.183E-02
RMM:  27    -0.232431915584E+04   -0.10963E-04   -0.95410E-06 23648   0.431E-03    0.177E-02
RMM:  28    -0.232431916022E+04   -0.43791E-05   -0.56996E-06 19072   0.337E-03    0.141E-02
RMM:  29    -0.232431916359E+04   -0.33698E-05   -0.49043E-06 18692   0.249E-03    0.128E-02
RMM:  30    -0.232431917053E+04   -0.69353E-05   -0.39144E-06 17153   0.271E-03    0.736E-03
RMM:  31    -0.232431917287E+04   -0.23464E-05   -0.30347E-06 16333   0.193E-03    0.538E-03
RMM:  32    -0.232431917529E+04   -0.24183E-05   -0.25704E-06 15998   0.159E-03    0.501E-03
RMM:  33    -0.232431917880E+04   -0.35135E-05   -0.22765E-06 15903   0.158E-03    0.369E-03
RMM:  34    -0.232431918020E+04   -0.13957E-05   -0.19538E-06 15680   0.114E-03    0.329E-03
RMM:  35    -0.232431918306E+04   -0.28586E-05   -0.17825E-06 15540   0.107E-03    0.304E-03
RMM:  36    -0.232431918638E+04   -0.33177E-05   -0.16948E-06 15661   0.111E-03    0.273E-03
RMM:  37    -0.232431918881E+04   -0.24338E-05   -0.15646E-06 15456   0.988E-04    0.216E-03
RMM:  38    -0.232431919044E+04   -0.16280E-05   -0.13973E-06 15390   0.874E-04    0.165E-03
RMM:  39    -0.232431919167E+04   -0.12322E-05   -0.12445E-06 14918   0.744E-04    0.162E-03
RMM:  40    -0.232431919246E+04   -0.79186E-06   -0.11129E-06 14932   0.746E-04
   2 F= -.23243192E+04 E0= -.23215483E+04  d E =-.181303E+00
       N       E                     dE             d eps       ncg     rms          rms(c)
DAV:   1    -0.232421481269E+04    0.10438E+00   -0.31400E+02 27720   0.186E+01    0.359E+00
RMM:   2    -0.233831811277E+04   -0.14103E+02   -0.89024E+00 27903   0.627E+00    0.501E+01
RMM:   3    -0.233546253763E+04    0.28556E+01   -0.42496E+00 38618   0.249E+00    0.427E+01
RMM:   4    -0.233028569148E+04    0.51768E+01   -0.17857E+00 27732   0.300E+00    0.318E+01
RMM:   5    -0.232739194136E+04    0.28938E+01   -0.11405E+00 38671   0.114E+00    0.226E+01
RMM:   6    -0.232733008612E+04    0.61855E-01   -0.10759E+00 31739   0.154E+00    0.223E+01
RMM:   7    -0.232702297919E+04    0.30711E+00   -0.15271E+00 28858   0.223E+00    0.203E+01
RMM:   8    -0.232555640663E+04    0.14666E+01   -0.72722E-01 27760   0.184E+00    0.126E+01
RMM:   9    -0.232503472505E+04    0.52168E+00   -0.33947E-01 27754   0.132E+00    0.813E+00
RMM:  10    -0.232495081480E+04    0.83910E-01   -0.30722E-01 27867   0.117E+00    0.735E+00
RMM:  11    -0.232479023923E+04    0.16058E+00   -0.29250E-01 27798   0.113E+00    0.485E+00
RMM:  12    -0.232468859681E+04    0.10164E+00   -0.11373E-01 27727   0.834E-01    0.278E+00
RMM:  13    -0.232466056767E+04    0.28029E-01   -0.39442E-02 28371   0.418E-01    0.175E+00
RMM:  14    -0.232465941219E+04    0.11555E-02   -0.49623E-02 32013   0.320E-01    0.162E+00
RMM:  15    -0.232465577730E+04    0.36349E-02   -0.40900E-02 32284   0.300E-01    0.125E+00
RMM:  16    -0.232465114450E+04    0.46328E-02   -0.17486E-02 29450   0.253E-01    0.899E-01
RMM:  17    -0.232465254083E+04   -0.13963E-02   -0.21595E-02 35322   0.182E-01    0.952E-01
RMM:  18    -0.232465024284E+04    0.22980E-02   -0.86137E-03 29971   0.162E-01    0.660E-01
RMM:  19    -0.232464826159E+04    0.19813E-02   -0.43663E-03 30603   0.111E-01    0.296E-01
RMM:  20    -0.232464855035E+04   -0.28876E-03   -0.46139E-03 36814   0.722E-02    0.327E-01
RMM:  21    -0.232464866696E+04   -0.11661E-03   -0.17583E-03 30985   0.684E-02    0.346E-01
RMM:  22    -0.232464861907E+04    0.47884E-04   -0.15662E-03 37912   0.404E-02    0.306E-01
RMM:  23    -0.232464843471E+04    0.18436E-03   -0.75779E-04 35813   0.326E-02    0.232E-01
RMM:  24    -0.232464818560E+04    0.24911E-03   -0.27026E-04 30334   0.289E-02    0.945E-02
RMM:  25    -0.232464818258E+04    0.30226E-05   -0.22824E-04 33752   0.190E-02    0.780E-02
RMM:  26    -0.232464820627E+04   -0.23697E-04   -0.19168E-04 34802   0.176E-02    0.934E-02
RMM:  27    -0.232464817266E+04    0.33612E-04   -0.64313E-05 30333   0.145E-02    0.451E-02
RMM:  28    -0.232464817460E+04   -0.19368E-05   -0.70384E-05 38274   0.744E-03    0.387E-02
RMM:  29    -0.232464817640E+04   -0.17985E-05   -0.33312E-05 32939   0.738E-03    0.375E-02
RMM:  30    -0.232464817224E+04    0.41591E-05   -0.14679E-05 28691   0.601E-03    0.225E-02
RMM:  31    -0.232464817206E+04    0.18248E-06   -0.10839E-05 24793   0.317E-03    0.179E-02
RMM:  32    -0.232464817132E+04    0.73726E-06   -0.41531E-06 19728   0.327E-03
   3 F= -.23246482E+04 E0= -.23218610E+04  d E =-.510281E+00
       N       E                     dE             d eps       ncg     rms          rms(c)
DAV:   1    -0.232204854714E+04    0.25996E+01   -0.12548E+03 27720   0.377E+01    0.775E+00
RMM:   2    -0.236388533744E+04   -0.41837E+02   -0.44835E+01 27760   0.135E+01    0.830E+01
RMM:   3    -0.239489912260E+04   -0.31014E+02   -0.23504E+01 38542   0.581E+00    0.105E+02
RMM:   4    -0.236457135020E+04    0.30328E+02   -0.76144E+00 27724   0.626E+00    0.825E+01
RMM:   5    -0.233302878257E+04    0.31543E+02   -0.58002E+00 38895   0.258E+00    0.381E+01
RMM:   6    -0.233641580568E+04   -0.33870E+01   -0.50719E+00 29240   0.383E+00    0.449E+01
RMM:   7    -0.233332087313E+04    0.30949E+01   -0.57597E+00 28210   0.451E+00    0.396E+01
RMM:   8    -0.233010345841E+04    0.32174E+01   -0.34957E+00 27925   0.374E+00    0.324E+01
RMM:   9    -0.232574986808E+04    0.43536E+01   -0.19148E+00 27731   0.333E+00    0.151E+01
RMM:  10    -0.232645766679E+04   -0.70780E+00   -0.18703E+00 28007   0.282E+00    0.196E+01
RMM:  11    -0.232515776334E+04    0.12999E+01   -0.10080E+00 27757   0.220E+00    0.119E+01
RMM:  12    -0.232450672729E+04    0.65104E+00   -0.43657E-01 27726   0.159E+00    0.557E+00
RMM:  13    -0.232442459270E+04    0.82135E-01   -0.25371E-01 29370   0.905E-01    0.381E+00
RMM:  14    -0.232443700713E+04   -0.12414E-01   -0.39827E-01 33254   0.836E-01    0.422E+00
RMM:  15    -0.232438467409E+04    0.52333E-01   -0.14469E-01 28975   0.708E-01    0.289E+00
RMM:  16    -0.232437701402E+04    0.76601E-02   -0.11387E-01 33084   0.470E-01    0.254E+00
RMM:  17    -0.232437629977E+04    0.71425E-03   -0.92485E-02 37383   0.334E-01    0.234E+00
RMM:  18    -0.232436428118E+04    0.12019E-01   -0.28548E-02 30383   0.294E-01    0.181E+00
RMM:  19    -0.232435924185E+04    0.50393E-02   -0.22342E-02 30697   0.248E-01    0.149E+00
RMM:  20    -0.232435912670E+04    0.11515E-03   -0.29770E-02 30341   0.293E-01    0.146E+00
RMM:  21    -0.232435759633E+04    0.15304E-02   -0.12631E-02 28280   0.251E-01    0.136E+00
RMM:  22    -0.232435701756E+04    0.57877E-03   -0.13480E-02 36883   0.124E-01    0.129E+00
RMM:  23    -0.232435272825E+04    0.42893E-02   -0.55729E-03 32251   0.107E-01    0.907E-01
RMM:  24    -0.232435045107E+04    0.22772E-02   -0.27461E-03 30922   0.879E-02    0.636E-01
RMM:  25    -0.232434960295E+04    0.84812E-03   -0.28268E-03 33520   0.723E-02    0.480E-01
RMM:  26    -0.232434940691E+04    0.19604E-03   -0.13312E-03 29582   0.682E-02    0.455E-01
RMM:  27    -0.232434935102E+04    0.55895E-04   -0.95062E-04 31531   0.484E-02    0.441E-01
RMM:  28    -0.232434889737E+04    0.45365E-03   -0.88775E-04 36013   0.347E-02    0.315E-01
RMM:  29    -0.232434854375E+04    0.35361E-03   -0.26272E-04 30698   0.276E-02    0.168E-01
RMM:  30    -0.232434854064E+04    0.31153E-05   -0.31106E-04 34283   0.228E-02    0.153E-01
RMM:  31    -0.232434853381E+04    0.68261E-05   -0.22841E-04 30981   0.246E-02    0.141E-01
RMM:  32    -0.232434850867E+04    0.25143E-04   -0.16542E-04 33864   0.174E-02    0.114E-01
RMM:  33    -0.232434850725E+04    0.14179E-05   -0.13201E-04 41289   0.964E-03    0.106E-01
RMM:  34    -0.232434848680E+04    0.20447E-04   -0.36998E-05 31567   0.873E-03    0.811E-02
RMM:  35    -0.232434848105E+04    0.57552E-05   -0.25419E-05 32266   0.606E-03    0.705E-02
RMM:  36    -0.232434846835E+04    0.12698E-04   -0.19570E-05 32005   0.585E-03    0.467E-02
RMM:  37    -0.232434845997E+04    0.83801E-05   -0.89022E-06 25984   0.540E-03    0.238E-02
RMM:  38    -0.232434845982E+04    0.15294E-06   -0.62768E-06 22099   0.328E-03
   4 F= -.23243485E+04 E0= -.23215431E+04  d E =-.210570E+00
       N       E                     dE             d eps       ncg     rms          rms(c)
DAV:   1    -0.232357683251E+04    0.77163E+00   -0.68082E+02 27720   0.276E+01    0.530E+00
RMM:   2    -0.233388052782E+04   -0.10304E+02   -0.20389E+01 27771   0.921E+00    0.408E+01
RMM:   3    -0.236150185695E+04   -0.27621E+02   -0.90655E+00 39842   0.361E+00    0.808E+01
RMM:   4    -0.233755333099E+04    0.23949E+02   -0.30122E+00 27762   0.360E+00    0.468E+01
RMM:   5    -0.233623694964E+04    0.13164E+01   -0.32219E+00 39418   0.195E+00    0.436E+01
RMM:   6    -0.232822804151E+04    0.80089E+01   -0.26200E+00 28356   0.297E+00    0.244E+01
RMM:   7    -0.232990524597E+04   -0.16772E+01   -0.27621E+00 28734   0.311E+00    0.313E+01
RMM:   8    -0.232668289811E+04    0.32223E+01   -0.11949E+00 29595   0.194E+00    0.183E+01
RMM:   9    -0.232524494004E+04    0.14380E+01   -0.92277E-01 27729   0.226E+00    0.979E+00
RMM:  10    -0.232517642638E+04    0.68514E-01   -0.94235E-01 27772   0.200E+00    0.908E+00
RMM:  11    -0.232487318002E+04    0.30325E+00   -0.41369E-01 27796   0.148E+00    0.585E+00
RMM:  12    -0.232475952172E+04    0.11366E+00   -0.16581E-01 27799   0.949E-01    0.389E+00
RMM:  13    -0.232478040566E+04   -0.20884E-01   -0.19855E-01 32604   0.576E-01    0.425E+00
RMM:  14    -0.232475886177E+04    0.21544E-01   -0.13701E-01 31699   0.561E-01    0.350E+00
RMM:  15    -0.232473293276E+04    0.25929E-01   -0.67743E-02 28514   0.530E-01    0.290E+00
RMM:  16    -0.232472149177E+04    0.11441E-01   -0.54008E-02 30985   0.368E-01    0.244E+00
RMM:  17    -0.232471022625E+04    0.11266E-01   -0.50886E-02 33123   0.312E-01    0.188E+00
RMM:  18    -0.232469811132E+04    0.12115E-01   -0.15024E-02 28877   0.242E-01    0.115E+00
RMM:  19    -0.232469668781E+04    0.14235E-02   -0.14185E-02 35157   0.142E-01    0.988E-01
RMM:  20    -0.232469436772E+04    0.23201E-02   -0.96800E-03 34098   0.131E-01    0.660E-01
RMM:  21    -0.232469275342E+04    0.16143E-02   -0.33610E-03 30063   0.108E-01    0.377E-01
RMM:  22    -0.232469317438E+04   -0.42097E-03   -0.40257E-03 35318   0.767E-02    0.426E-01
RMM:  23    -0.232469315835E+04    0.16036E-04   -0.19527E-03 31037   0.705E-02    0.396E-01
RMM:  24    -0.232469291938E+04    0.23897E-03   -0.10883E-03 30665   0.568E-02    0.324E-01
RMM:  25    -0.232469278894E+04    0.13044E-03   -0.14012E-03 35727   0.451E-02    0.262E-01
RMM:  26    -0.232469251379E+04    0.27515E-03   -0.55522E-04 31144   0.373E-02    0.119E-01
RMM:  27    -0.232469251509E+04   -0.13013E-05   -0.52494E-04 39471   0.211E-02    0.896E-02
RMM:  28    -0.232469251918E+04   -0.40836E-05   -0.21188E-04 37180   0.153E-02    0.871E-02
RMM:  29    -0.232469250525E+04    0.13931E-04   -0.70512E-05 31791   0.123E-02    0.682E-02
RMM:  30    -0.232469250659E+04   -0.13408E-05   -0.69409E-05 38851   0.752E-03    0.639E-02
RMM:  31    -0.232469249888E+04    0.77036E-05   -0.36235E-05 32650   0.812E-03    0.471E-02
RMM:  32    -0.232469248917E+04    0.97187E-05   -0.15425E-05 28911   0.702E-03    0.172E-02
RMM:  33    -0.232469248998E+04   -0.81817E-06   -0.14640E-05 27022   0.408E-03    0.169E-02
RMM:  34    -0.232469249000E+04   -0.16647E-07   -0.64511E-06 22533   0.417E-03
   5 F= -.23246925E+04 E0= -.23218985E+04  d E =-.554600E+00
