<?xml version="1.0" encoding="ISO-8859-1"?>
<modeling>
 <generator>
  <i name="program" type="string">vasp </i>
  <i name="version" type="string">5.4.4.18Apr17-6-g9f103f2a35  </i>
  <i name="subversion" type="string">(build May 29 2019 08:40:53) complex            parallel </i>
  <i name="platform" type="string">LinuxPGI </i>
  <i name="date" type="string">2021 11 22 </i>
  <i name="time" type="string">02:55:21 </i>
 </generator>
 <incar>
  <i type="int" name="ISTART">     2</i>
  <i type="string" name="PREC">accurate</i>
  <i type="string" name="ALGO"> Fast</i>
  <i type="int" name="ICHARG">     2</i>
  <i type="int" name="INIWAV">     1</i>
  <i type="int" name="NELM">   100</i>
  <i type="int" name="NELMIN">     4</i>
  <i type="int" name="IBRION">     2</i>
  <i name="EDIFF">      0.00001000</i>
  <i type="int" name="NSW">   500</i>
  <i type="int" name="ISIF">     2</i>
  <i type="int" name="ISYM">     2</i>
  <i name="ENCUT">    500.00000000</i>
  <i name="POTIM">      0.25000000</i>
  <i type="string" name="LREAL"> Auto</i>
  <i type="int" name="ISMEAR">     0</i>
  <i name="SIGMA">      0.15000000</i>
  <i type="logical" name="LWAVE"> F  </i>
  <i type="logical" name="LCHARG"> F  </i>
  <v type="int" name="KPOINT_BSE">    -1     0     0     0</v>
  <i type="int" name="NELM">   100</i>
 </incar>
 <structure name="primitive_cell" >
  <crystal>
   <varray name="basis" >
    <v>       9.72667800       0.00000000       0.00000000 </v>
    <v>       0.00000000       8.42355000       0.00000000 </v>
    <v>       0.00000000       0.00000000      45.00000000 </v>
   </varray>
   <i name="volume">   3686.99213101 </i>
   <varray name="rec_basis" >
    <v>       0.10281002       0.00000000       0.00000000 </v>
    <v>       0.00000000       0.11871479       0.00000000 </v>
    <v>       0.00000000       0.00000000       0.02222222 </v>
   </varray>
  </crystal>
  <varray name="positions" >
   <v>       0.43749494       0.45339834       0.34648094 </v>
   <v>       0.43764082       0.28786124       0.39027078 </v>
   <v>       0.31259189      -0.46247230       0.39016811 </v>
   <v>      -0.43778711      -0.46252234       0.39029808 </v>
   <v>       0.31255174      -0.29687391       0.34645598 </v>
   <v>      -0.43714231       0.20376112       0.34644410 </v>
   <v>       0.31245858       0.20343870       0.34644319 </v>
   <v>       0.18748047       0.45333777       0.34639927 </v>
   <v>      -0.43774364      -0.29638288       0.34642397 </v>
   <v>      -0.31232291       0.45388068       0.34650584 </v>
   <v>       0.43749384      -0.38051173       0.30204426 </v>
   <v>      -0.43713735       0.36913937       0.30209838 </v>
   <v>       0.31259876       0.36932975       0.30200540 </v>
   <v>       0.18758330       0.28787560       0.39028414 </v>
   <v>      -0.31270622       0.28704566       0.39025860 </v>
   <v>       0.43769809      -0.21272036       0.39027709 </v>
   <v>      -0.31258202      -0.38029796       0.30210213 </v>
   <v>       0.18769543      -0.38047207       0.30203395 </v>
   <v>       0.43764441       0.11945749       0.30209219 </v>
   <v>       0.31263879       0.03752302       0.39028308 </v>
   <v>      -0.43765999       0.03733101       0.39035783 </v>
   <v>       0.06287423      -0.46245918       0.39030381 </v>
   <v>      -0.18758965      -0.46284923       0.39024030 </v>
   <v>       0.18702193      -0.21294649       0.39022791 </v>
   <v>      -0.31228534      -0.21262501       0.39025658 </v>
   <v>       0.06284839      -0.29647477       0.34648992 </v>
   <v>       0.43744598      -0.04639773       0.34648552 </v>
   <v>      -0.18745900       0.20332760       0.34648818 </v>
   <v>      -0.18755958      -0.29626892       0.34649482 </v>
   <v>      -0.43752630       0.37165587       0.43480664 </v>
   <v>       0.06230890       0.20341884       0.34652127 </v>
   <v>       0.31241305      -0.13031286       0.30212774 </v>
   <v>      -0.43786591      -0.13056319       0.30197116 </v>
   <v>       0.31260160       0.37146341       0.43494667 </v>
   <v>       0.18743188       0.11966673       0.30210289 </v>
   <v>      -0.18742450       0.36991224       0.30202139 </v>
   <v>       0.06225834       0.36980222       0.30201782 </v>
   <v>       0.43744431      -0.37834891       0.43487086 </v>
   <v>       0.31249617      -0.46434556       0.25794067 </v>
   <v>      -0.31236395       0.11946289       0.30202070 </v>
   <v>      -0.43735611      -0.46434337       0.25792772 </v>
   <v>       0.43759386       0.28529150       0.25795676 </v>
   <v>       0.43743381       0.12164382       0.43477523 </v>
   <v>       0.18773553      -0.04653136       0.34636132 </v>
   <v>      -0.31255074      -0.04644187       0.34639224 </v>
   <v>      -0.06249806       0.45385480       0.34641953 </v>
   <v>       0.43772965      -0.21423280       0.25801768 </v>
   <v>       0.18768506      -0.37849882       0.43485250 </v>
   <v>      -0.31235092      -0.37869241       0.43490383 </v>
   <v>      -0.31253829       0.28589135       0.25796273 </v>
   <v>       0.18752946       0.28535714       0.25794827 </v>
   <v>      -0.18752733       0.03756523       0.39008942 </v>
   <v>       0.06272978       0.03778410       0.39028950 </v>
   <v>      -0.06240509       0.28724083       0.39027999 </v>
   <v>       0.18774221       0.12148620       0.43487013 </v>
   <v>       0.06292412      -0.13052133       0.30197110 </v>
   <v>      -0.18755591       0.37152289       0.43480710 </v>
   <v>      -0.06227685      -0.38022036       0.30204773 </v>
   <v>       0.06254229       0.37165257       0.43487165 </v>
   <v>      -0.31252067      -0.21475782       0.25791116 </v>
   <v>      -0.18715532      -0.13042263       0.30207362 </v>
   <v>       0.18739053      -0.21387415       0.25801235 </v>
   <v>      -0.31280027       0.12129414       0.43513162 </v>
   <v>       0.06243275      -0.46438446       0.25796062 </v>
   <v>      -0.18778290      -0.46434771       0.25788693 </v>
   <v>      -0.43729301      -0.12870441       0.43477641 </v>
   <v>       0.31199385      -0.12869113       0.43487755 </v>
   <v>       0.31247221       0.03578134       0.25791713 </v>
   <v>      -0.43776983       0.03556709       0.25790290 </v>
   <v>       0.43734214       0.45524347       0.47863250 </v>
   <v>      -0.06234534      -0.21257092       0.39031338 </v>
   <v>      -0.06247901       0.11969343       0.30205344 </v>
   <v>       0.43729995       0.45198019       0.21381534 </v>
   <v>       0.31248126       0.20537209       0.47861743 </v>
   <v>      -0.43743533       0.20544351       0.47872428 </v>
   <v>       0.18731938       0.45500748       0.47859148 </v>
   <v>       0.31286377      -0.29477572       0.47853841 </v>
   <v>      -0.31221719       0.45497304       0.47864884 </v>
   <v>      -0.43757818      -0.29515811       0.47859643 </v>
   <v>      -0.06247185      -0.04647672       0.34637929 </v>
   <v>      -0.43708977      -0.29837075       0.21402846 </v>
   <v>      -0.06270435      -0.37876409       0.43489315 </v>
   <v>      -0.06236952       0.28595910       0.25797650 </v>
   <v>      -0.18723275      -0.12907786       0.43482079 </v>
   <v>       0.31226030      -0.29811905       0.21382105 </v>
   <v>       0.06264021       0.03577596       0.25796356 </v>
   <v>       0.18766826       0.45162124       0.21380385 </v>
   <v>       0.06251105      -0.12837373       0.43493172 </v>
   <v>      -0.18742173       0.03557590       0.25797915 </v>
   <v>      -0.31243160       0.45183412       0.21380418 </v>
   <v>      -0.43770462       0.20190815       0.21380033 </v>
   <v>       0.31232978       0.20176544       0.21382050 </v>
   <v>      -0.06227836       0.12140453       0.43486363 </v>
   <v>      -0.06241158      -0.21468695       0.25793066 </v>
   <v>       0.43747870      -0.04448295       0.47871374 </v>
   <v>      -0.18773610       0.20562014       0.47865073 </v>
   <v>       0.06269267       0.20535653       0.47863424 </v>
   <v>      -0.18788196      -0.29467743       0.47861652 </v>
   <v>       0.06256482      -0.29491640       0.47866973 </v>
   <v>       0.43750325      -0.04799403       0.21377870 </v>
   <v>       0.06239500      -0.29832609       0.21380496 </v>
   <v>      -0.18712212      -0.29826141       0.21378571 </v>
   <v>      -0.18717693       0.20187040       0.21386606 </v>
   <v>       0.06274721       0.20169357       0.21379416 </v>
   <v>       0.18750289      -0.04405331       0.47855543 </v>
   <v>      -0.31214172      -0.04472928       0.47861362 </v>
   <v>      -0.06249832       0.45472507       0.47860125 </v>
   <v>       0.18756251      -0.04803607       0.21384854 </v>
   <v>      -0.31242917      -0.04810888       0.21382382 </v>
   <v>      -0.06250374       0.45151773       0.21380755 </v>
   <v>       0.31259616       0.37252484      -0.47865407 </v>
   <v>      -0.43750746       0.37282521      -0.47864380 </v>
   <v>       0.43717884      -0.37737969      -0.47870715 </v>
   <v>       0.43776414      -0.38179235       0.16900279 </v>
   <v>      -0.43780952       0.36776107       0.16897731 </v>
   <v>       0.31242920       0.36834405       0.16895961 </v>
   <v>       0.43714326       0.12254668      -0.47867179 </v>
   <v>       0.18777489      -0.37759210      -0.47875644 </v>
   <v>      -0.31238156      -0.37755722      -0.47866893 </v>
   <v>       0.18730685      -0.38213301       0.16909690 </v>
   <v>      -0.31276835      -0.38197422       0.16898156 </v>
   <v>       0.43748487       0.11794495       0.16905536 </v>
   <v>      -0.31260042       0.12204560      -0.47872426 </v>
   <v>       0.18758661       0.12231468      -0.47867688 </v>
   <v>       0.06235969       0.37267415      -0.47873263 </v>
   <v>      -0.18757454       0.37275019      -0.47864331 </v>
   <v>      -0.43753048      -0.12782655      -0.47876081 </v>
   <v>       0.31208803      -0.12794064      -0.47874230 </v>
   <v>      -0.06299715      -0.04468816       0.47868848 </v>
   <v>      -0.06273624      -0.04790885       0.21383732 </v>
   <v>       0.31243356      -0.13194698       0.16905624 </v>
   <v>      -0.43738121      -0.13240584       0.16893866 </v>
   <v>      -0.18747683       0.36809017       0.16904433 </v>
   <v>      -0.31277230       0.11815659       0.16909932 </v>
   <v>       0.06268791       0.36782661       0.16896433 </v>
   <v>       0.18747723       0.11777597       0.16907745 </v>
   <v>      -0.06257143      -0.37773277      -0.47865636 </v>
   <v>       0.06249904      -0.12729848      -0.47874728 </v>
   <v>      -0.18729177      -0.12773838      -0.47862340 </v>
   <v>       0.06225480      -0.13229960       0.16905703 </v>
   <v>      -0.06252839      -0.38232510       0.16906162 </v>
   <v>      -0.18751868      -0.13167933       0.16898692 </v>
   <v>      -0.06223256       0.12240039      -0.47865873 </v>
   <v>      -0.06232991       0.11796972       0.16912692 </v>
   <v>       0.43743763       0.45623795      -0.43495932 </v>
   <v>       0.31210521      -0.46583810       0.12685459 </v>
   <v>       0.43782815       0.28493065       0.12686109 </v>
   <v>      -0.43756815      -0.46500353       0.12677793 </v>
   <v>       0.31226958       0.20703991      -0.43490450 </v>
   <v>      -0.31283924       0.45587592      -0.43493936 </v>
   <v>      -0.43754366       0.20674197      -0.43482230 </v>
   <v>       0.18767752       0.45643495      -0.43487214 </v>
   <v>      -0.43715230      -0.29439300      -0.43493861 </v>
   <v>       0.31251841      -0.29387537      -0.43485234 </v>
   <v>       0.43764070      -0.21537264       0.12680796 </v>
   <v>      -0.31269873       0.28470364       0.12686525 </v>
   <v>       0.18723702       0.28468168       0.12686764 </v>
   <v>       0.18730135      -0.21529678       0.12689371 </v>
   <v>      -0.31292709      -0.21520672       0.12682411 </v>
   <v>      -0.18711802      -0.46582892       0.12684191 </v>
   <v>       0.06252436      -0.46555021       0.12680430 </v>
   <v>       0.31242121       0.03453980       0.12689481 </v>
   <v>      -0.43749290       0.03534318       0.12682288 </v>
   <v>       0.43751020      -0.04359408      -0.43513807 </v>
   <v>       0.06248902       0.20635186      -0.43497790 </v>
   <v>       0.06252783      -0.29399328      -0.43519534 </v>
   <v>      -0.18735606       0.20644700      -0.43493533 </v>
   <v>      -0.18786477      -0.29368448      -0.43488888 </v>
   <v>       0.18795866      -0.04361186      -0.43480318 </v>
   <v>      -0.31264433      -0.04405924      -0.43482198 </v>
   <v>      -0.06237564       0.45581748      -0.43486995 </v>
   <v>      -0.06245909       0.28453721       0.12686040 </v>
   <v>      -0.18751518       0.03446548       0.12691746 </v>
   <v>       0.06244274       0.03457379       0.12688607 </v>
   <v>      -0.06213481      -0.21518268       0.12691596 </v>
   <v>      -0.06296428      -0.04342473      -0.43482484 </v>
   <v>       0.43742274       0.29047363      -0.39023528 </v>
   <v>       0.31234740      -0.45933254      -0.39031279 </v>
   <v>      -0.43745616      -0.45983689      -0.39030324 </v>
   <v>      -0.31264507       0.28987621      -0.39037025 </v>
   <v>       0.18760922       0.29037457      -0.39034366 </v>
   <v>       0.43764621      -0.20959756      -0.39036938 </v>
   <v>       0.31265487       0.04035378      -0.39035571 </v>
   <v>      -0.43764095       0.04032184      -0.39034472 </v>
   <v>       0.06242201      -0.45946372      -0.39040935 </v>
   <v>      -0.18724708      -0.46001690      -0.39027738 </v>
   <v>      -0.31226382      -0.21025095      -0.39030358 </v>
   <v>       0.18730715      -0.20943337      -0.39031510 </v>
   <v>      -0.18780842       0.04003743      -0.39037231 </v>
   <v>       0.06278001       0.04029840      -0.39034106 </v>
   <v>      -0.06226851       0.29012047      -0.39033080 </v>
   <v>      -0.06256360      -0.20998278      -0.39035655 </v>
   <v>       0.31266983       0.37416683      -0.34642851 </v>
   <v>       0.43761536      -0.37583939      -0.34654872 </v>
   <v>      -0.43715872       0.37411995      -0.34641425 </v>
   <v>       0.43758155       0.12401074      -0.34640109 </v>
   <v>      -0.31252821      -0.37599324      -0.34649619 </v>
   <v>       0.18752885      -0.37574344      -0.34646014 </v>
   <v>       0.18765210       0.12468975      -0.34648752 </v>
   <v>      -0.31271576       0.12423165      -0.34636369 </v>
   <v>      -0.18736820       0.37416642      -0.34649057 </v>
   <v>       0.06204312       0.37428698      -0.34643257 </v>
   <v>       0.31258308      -0.12591825      -0.34658140 </v>
   <v>      -0.43732536      -0.12588131      -0.34651565 </v>
   <v>      -0.06255819      -0.37612109      -0.34649345 </v>
   <v>       0.06245315      -0.12566577      -0.34646912 </v>
   <v>      -0.18734979      -0.12576138      -0.34644801 </v>
   <v>      -0.06244319       0.12428800      -0.34638817 </v>
   <v>       0.43738735       0.45816664      -0.30218593 </v>
   <v>       0.31255262       0.20784983      -0.30214692 </v>
   <v>      -0.43730437       0.20811714      -0.30203118 </v>
   <v>      -0.31238591       0.45854428      -0.30203064 </v>
   <v>       0.31294769      -0.29205091      -0.30211529 </v>
   <v>      -0.43770353      -0.29177797      -0.30211601 </v>
   <v>       0.18766676       0.45834134      -0.30196993 </v>
   <v>       0.43725749      -0.04226857      -0.30204559 </v>
   <v>      -0.18790773       0.20858831      -0.30211042 </v>
   <v>       0.06215125       0.20822546      -0.30194574 </v>
   <v>       0.06264863      -0.29173747      -0.30207428 </v>
   <v>      -0.18777322      -0.29168554      -0.30203263 </v>
   <v>      -0.31242405      -0.04153237      -0.30211274 </v>
   <v>       0.18763774      -0.04192660      -0.30203563 </v>
   <v>      -0.06238442       0.45820132      -0.30222867 </v>
   <v>      -0.06233105      -0.04162058      -0.30203587 </v>
   <v>      -0.43791105      -0.45768861      -0.25798667 </v>
   <v>       0.43794028       0.29234414      -0.25783543 </v>
   <v>       0.31256734      -0.45782477      -0.25786799 </v>
   <v>      -0.31252712       0.29252399      -0.25789440 </v>
   <v>       0.18727087       0.29235180      -0.25785781 </v>
   <v>       0.43769134      -0.20791498      -0.25789726 </v>
   <v>       0.31246329       0.04199611      -0.25799890 </v>
   <v>      -0.43766813       0.04250960      -0.25785450 </v>
   <v>       0.06303307      -0.45772899      -0.25797684 </v>
   <v>      -0.18781576      -0.45773883      -0.25786462 </v>
   <v>      -0.31274727      -0.20774191      -0.25796839 </v>
   <v>       0.18741510      -0.20795856      -0.25786775 </v>
   <v>      -0.06294328       0.29203791      -0.25795086 </v>
   <v>       0.06254342       0.04228616      -0.25781434 </v>
   <v>      -0.18706143       0.04256962      -0.25781186 </v>
   <v>      -0.06290246      -0.20781809      -0.25789278 </v>
   <v>      -0.43788620       0.37612900      -0.21395273 </v>
   <v>       0.31265559       0.37609310      -0.21377421 </v>
   <v>       0.43710587      -0.37351632      -0.21378532 </v>
   <v>       0.43723704       0.12693193      -0.21387558 </v>
   <v>      -0.31212277      -0.37431254      -0.21412899 </v>
   <v>       0.18720661      -0.37423356      -0.21393305 </v>
   <v>      -0.31288800       0.12621330      -0.21384870 </v>
   <v>       0.06279483       0.37536098      -0.21390195 </v>
   <v>       0.18760570       0.12600781      -0.21378501 </v>
   <v>      -0.18768855       0.37586361      -0.21372241 </v>
   <v>      -0.43723346      -0.12367481      -0.21380408 </v>
   <v>       0.31257387      -0.12366565      -0.21370938 </v>
   <v>      -0.06216715      -0.37397415      -0.21378496 </v>
   <v>      -0.18734600      -0.12323193      -0.21393833 </v>
   <v>       0.06217677      -0.12394060      -0.21376259 </v>
   <v>      -0.06213517       0.12601872      -0.21376282 </v>
   <v>      -0.43823784      -0.45681318      -0.12675251 </v>
   <v>       0.43771380       0.29304749      -0.12687577 </v>
   <v>       0.31255590      -0.45719240      -0.12680234 </v>
   <v>      -0.31242950       0.29228277      -0.12676012 </v>
   <v>       0.18704907       0.29345887      -0.12689236 </v>
   <v>       0.43731483      -0.20612850      -0.12690014 </v>
   <v>       0.31162071       0.04383778      -0.12676471 </v>
   <v>      -0.43672415       0.04340188      -0.12676339 </v>
   <v>       0.06326508      -0.45619895      -0.12684492 </v>
   <v>      -0.31277602      -0.20590333      -0.12673519 </v>
   <v>       0.18673364      -0.20541545      -0.12670036 </v>
   <v>      -0.18777835      -0.45640532      -0.12704296 </v>
   <v>       0.43709112       0.46060314      -0.16892855 </v>
   <v>       0.06283743       0.04382813      -0.12664456 </v>
   <v>      -0.18763313       0.04360420      -0.12670886 </v>
   <v>      -0.06256899       0.29294604      -0.12682099 </v>
   <v>      -0.43795248       0.21056989      -0.16905922 </v>
   <v>       0.31261300       0.21008031      -0.16902331 </v>
   <v>       0.18731086       0.45981515      -0.16909102 </v>
   <v>      -0.31187698       0.46044411      -0.16898260 </v>
   <v>       0.31309700      -0.28938675      -0.16888045 </v>
   <v>      -0.43749337      -0.28960504      -0.16869072 </v>
   <v>      -0.06128120      -0.20633648      -0.12668857 </v>
   <v>       0.06285343       0.21003269      -0.16905231 </v>
   <v>       0.43769488      -0.04064941      -0.16880440 </v>
   <v>      -0.18765193       0.21059353      -0.16880929 </v>
   <v>       0.06175144      -0.28999660      -0.16894324 </v>
   <v>      -0.18735966      -0.29100882      -0.16876143 </v>
   <v>      -0.31291816      -0.03974448      -0.16892038 </v>
   <v>       0.18776468      -0.04017663      -0.16885495 </v>
   <v>      -0.06292101       0.46031906      -0.16889722 </v>
   <v>      -0.06282452      -0.03955990      -0.16887397 </v>
  </varray>
 </structure>
 <varray name="primitive_index" >
  <v type="int" >        1 </v>
  <v type="int" >      256 </v>
  <v type="int" >       66 </v>
  <v type="int" >       98 </v>
  <v type="int" >      179 </v>
  <v type="int" >      230 </v>
  <v type="int" >       10 </v>
  <v type="int" >      229 </v>
  <v type="int" >      190 </v>
  <v type="int" >       18 </v>
  <v type="int" >       22 </v>
  <v type="int" >      186 </v>
  <v type="int" >        2 </v>
  <v type="int" >      218 </v>
  <v type="int" >      165 </v>
  <v type="int" >       71 </v>
  <v type="int" >      140 </v>
  <v type="int" >      161 </v>
  <v type="int" >      223 </v>
  <v type="int" >      118 </v>
  <v type="int" >       20 </v>
  <v type="int" >       95 </v>
  <v type="int" >       14 </v>
  <v type="int" >      201 </v>
  <v type="int" >       82 </v>
  <v type="int" >      148 </v>
  <v type="int" >       19 </v>
  <v type="int" >      233 </v>
  <v type="int" >      189 </v>
  <v type="int" >      125 </v>
  <v type="int" >      103 </v>
  <v type="int" >       17 </v>
  <v type="int" >       48 </v>
  <v type="int" >      143 </v>
  <v type="int" >      104 </v>
  <v type="int" >      178 </v>
  <v type="int" >      136 </v>
  <v type="int" >       16 </v>
  <v type="int" >      265 </v>
  <v type="int" >      162 </v>
  <v type="int" >      170 </v>
  <v type="int" >      203 </v>
  <v type="int" >      257 </v>
  <v type="int" >      271 </v>
  <v type="int" >      174 </v>
  <v type="int" >        4 </v>
  <v type="int" >      177 </v>
  <v type="int" >      261 </v>
  <v type="int" >      210 </v>
  <v type="int" >      227 </v>
  <v type="int" >      195 </v>
  <v type="int" >      283 </v>
  <v type="int" >      212 </v>
  <v type="int" >      213 </v>
  <v type="int" >      152 </v>
  <v type="int" >      173 </v>
  <v type="int" >      163 </v>
  <v type="int" >      241 </v>
  <v type="int" >      123 </v>
  <v type="int" >      208 </v>
  <v type="int" >      270 </v>
  <v type="int" >       69 </v>
  <v type="int" >       42 </v>
  <v type="int" >       88 </v>
  <v type="int" >      276 </v>
  <v type="int" >      239 </v>
  <v type="int" >      119 </v>
  <v type="int" >      278 </v>
  <v type="int" >       21 </v>
  <v type="int" >      209 </v>
  <v type="int" >       25 </v>
  <v type="int" >      236 </v>
  <v type="int" >      211 </v>
  <v type="int" >      224 </v>
  <v type="int" >       75 </v>
  <v type="int" >      206 </v>
  <v type="int" >      254 </v>
  <v type="int" >      263 </v>
  <v type="int" >      100 </v>
  <v type="int" >        5 </v>
  <v type="int" >      284 </v>
  <v type="int" >      215 </v>
  <v type="int" >      176 </v>
  <v type="int" >       43 </v>
  <v type="int" >      207 </v>
  <v type="int" >       24 </v>
  <v type="int" >       12 </v>
  <v type="int" >      244 </v>
  <v type="int" >       79 </v>
  <v type="int" >      247 </v>
  <v type="int" >      132 </v>
  <v type="int" >      199 </v>
  <v type="int" >       27 </v>
  <v type="int" >      219 </v>
  <v type="int" >      275 </v>
  <v type="int" >      240 </v>
  <v type="int" >       99 </v>
  <v type="int" >      232 </v>
  <v type="int" >      282 </v>
  <v type="int" >      166 </v>
  <v type="int" >      142 </v>
  <v type="int" >       86 </v>
  <v type="int" >      221 </v>
  <v type="int" >      141 </v>
  <v type="int" >      172 </v>
  <v type="int" >       56 </v>
  <v type="int" >       46 </v>
  <v type="int" >      197 </v>
  <v type="int" >       60 </v>
  <v type="int" >       23 </v>
  <v type="int" >       83 </v>
  <v type="int" >       11 </v>
  <v type="int" >      235 </v>
  <v type="int" >      242 </v>
  <v type="int" >       35 </v>
  <v type="int" >       47 </v>
  <v type="int" >        7 </v>
  <v type="int" >      106 </v>
  <v type="int" >      149 </v>
  <v type="int" >        3 </v>
  <v type="int" >      225 </v>
  <v type="int" >      145 </v>
  <v type="int" >      280 </v>
  <v type="int" >      269 </v>
  <v type="int" >      117 </v>
  <v type="int" >      133 </v>
  <v type="int" >       72 </v>
  <v type="int" >      120 </v>
  <v type="int" >      121 </v>
  <v type="int" >       44 </v>
  <v type="int" >      124 </v>
  <v type="int" >      147 </v>
  <v type="int" >       31 </v>
  <v type="int" >      129 </v>
  <v type="int" >       61 </v>
  <v type="int" >        6 </v>
  <v type="int" >      128 </v>
  <v type="int" >       96 </v>
  <v type="int" >      220 </v>
  <v type="int" >       54 </v>
  <v type="int" >      127 </v>
  <v type="int" >       45 </v>
  <v type="int" >       55 </v>
  <v type="int" >      139 </v>
  <v type="int" >       57 </v>
  <v type="int" >       74 </v>
  <v type="int" >      192 </v>
  <v type="int" >      248 </v>
  <v type="int" >      259 </v>
  <v type="int" >       94 </v>
  <v type="int" >      156 </v>
  <v type="int" >      146 </v>
  <v type="int" >      137 </v>
  <v type="int" >      134 </v>
  <v type="int" >      130 </v>
  <v type="int" >      182 </v>
  <v type="int" >       37 </v>
  <v type="int" >      202 </v>
  <v type="int" >      164 </v>
  <v type="int" >      237 </v>
  <v type="int" >      260 </v>
  <v type="int" >       39 </v>
  <v type="int" >       90 </v>
  <v type="int" >      262 </v>
  <v type="int" >       63 </v>
  <v type="int" >      110 </v>
  <v type="int" >       89 </v>
  <v type="int" >      264 </v>
  <v type="int" >       84 </v>
  <v type="int" >      226 </v>
  <v type="int" >      160 </v>
  <v type="int" >      196 </v>
  <v type="int" >      159 </v>
  <v type="int" >       51 </v>
  <v type="int" >       80 </v>
  <v type="int" >      287 </v>
  <v type="int" >      184 </v>
  <v type="int" >       30 </v>
  <v type="int" >      112 </v>
  <v type="int" >      231 </v>
  <v type="int" >      266 </v>
  <v type="int" >      181 </v>
  <v type="int" >      187 </v>
  <v type="int" >      144 </v>
  <v type="int" >       58 </v>
  <v type="int" >       50 </v>
  <v type="int" >      222 </v>
  <v type="int" >      135 </v>
  <v type="int" >      273 </v>
  <v type="int" >      113 </v>
  <v type="int" >      115 </v>
  <v type="int" >       85 </v>
  <v type="int" >       62 </v>
  <v type="int" >      157 </v>
  <v type="int" >      168 </v>
  <v type="int" >      153 </v>
  <v type="int" >      150 </v>
  <v type="int" >       38 </v>
  <v type="int" >       26 </v>
  <v type="int" >      138 </v>
  <v type="int" >      105 </v>
  <v type="int" >      109 </v>
  <v type="int" >      279 </v>
  <v type="int" >      126 </v>
  <v type="int" >       34 </v>
  <v type="int" >      200 </v>
  <v type="int" >      268 </v>
  <v type="int" >       91 </v>
  <v type="int" >      194 </v>
  <v type="int" >      188 </v>
  <v type="int" >      214 </v>
  <v type="int" >       97 </v>
  <v type="int" >      234 </v>
  <v type="int" >      191 </v>
  <v type="int" >      253 </v>
  <v type="int" >      267 </v>
  <v type="int" >      255 </v>
  <v type="int" >      281 </v>
  <v type="int" >       28 </v>
  <v type="int" >       33 </v>
  <v type="int" >      205 </v>
  <v type="int" >      204 </v>
  <v type="int" >      193 </v>
  <v type="int" >       53 </v>
  <v type="int" >      111 </v>
  <v type="int" >      243 </v>
  <v type="int" >      185 </v>
  <v type="int" >       76 </v>
  <v type="int" >      101 </v>
  <v type="int" >      102 </v>
  <v type="int" >      169 </v>
  <v type="int" >      155 </v>
  <v type="int" >      216 </v>
  <v type="int" >      116 </v>
  <v type="int" >       93 </v>
  <v type="int" >      285 </v>
  <v type="int" >       64 </v>
  <v type="int" >      251 </v>
  <v type="int" >      288 </v>
  <v type="int" >      114 </v>
  <v type="int" >       81 </v>
  <v type="int" >       32 </v>
  <v type="int" >      245 </v>
  <v type="int" >       15 </v>
  <v type="int" >      286 </v>
  <v type="int" >       36 </v>
  <v type="int" >        8 </v>
  <v type="int" >      198 </v>
  <v type="int" >       52 </v>
  <v type="int" >      180 </v>
  <v type="int" >       78 </v>
  <v type="int" >       67 </v>
  <v type="int" >        9 </v>
  <v type="int" >      171 </v>
  <v type="int" >      228 </v>
  <v type="int" >      238 </v>
  <v type="int" >      175 </v>
  <v type="int" >      217 </v>
  <v type="int" >      122 </v>
  <v type="int" >       92 </v>
  <v type="int" >      250 </v>
  <v type="int" >      274 </v>
  <v type="int" >       77 </v>
  <v type="int" >      107 </v>
  <v type="int" >       13 </v>
  <v type="int" >      183 </v>
  <v type="int" >       49 </v>
  <v type="int" >      277 </v>
  <v type="int" >      154 </v>
  <v type="int" >      249 </v>
  <v type="int" >      108 </v>
  <v type="int" >      167 </v>
  <v type="int" >       59 </v>
  <v type="int" >      252 </v>
  <v type="int" >       40 </v>
  <v type="int" >       73 </v>
  <v type="int" >      246 </v>
  <v type="int" >      131 </v>
  <v type="int" >      158 </v>
  <v type="int" >      258 </v>
  <v type="int" >      151 </v>
  <v type="int" >       70 </v>
  <v type="int" >      272 </v>
  <v type="int" >       41 </v>
  <v type="int" >       65 </v>
  <v type="int" >       29 </v>
  <v type="int" >       87 </v>
  <v type="int" >       68 </v>
 </varray>
 <kpoints>
  <generation param="Gamma">
   <v type="int" name="divisions">       4        4        1 </v>
   <v name="usershift">      0.00000000       0.00000000       0.00000000 </v>
   <v name="genvec1">      0.25000000       0.00000000       0.00000000 </v>
   <v name="genvec2">      0.00000000       0.25000000       0.00000000 </v>
   <v name="genvec3">      0.00000000       0.00000000       1.00000000 </v>
   <v name="shift">      0.00000000       0.00000000       0.00000000 </v>
  </generation>
  <varray name="kpointlist" >
   <v>       0.00000000       0.00000000       0.00000000 </v>
   <v>       0.25000000       0.00000000       0.00000000 </v>
   <v>       0.50000000       0.00000000       0.00000000 </v>
   <v>       0.00000000       0.25000000       0.00000000 </v>
   <v>       0.25000000       0.25000000       0.00000000 </v>
   <v>       0.50000000       0.25000000       0.00000000 </v>
   <v>      -0.25000000       0.25000000       0.00000000 </v>
   <v>       0.00000000       0.50000000       0.00000000 </v>
   <v>       0.25000000       0.50000000       0.00000000 </v>
   <v>       0.50000000       0.50000000       0.00000000 </v>
  </varray>
  <varray name="weights" >
   <v>       0.06250000 </v>
   <v>       0.12500000 </v>
   <v>       0.06250000 </v>
   <v>       0.12500000 </v>
   <v>       0.12500000 </v>
   <v>       0.12500000 </v>
   <v>       0.12500000 </v>
   <v>       0.06250000 </v>
   <v>       0.12500000 </v>
   <v>       0.06250000 </v>
  </varray>
 </kpoints>
 <parameters>
  <separator name="general" >
   <i type="string" name="SYSTEM">unknown system</i>
   <i type="logical" name="LCOMPAT"> F  </i>
  </separator>
  <separator name="electronic" >
   <i type="string" name="PREC">accura</i>
   <i name="ENMAX">    500.00000000</i>
   <i name="ENAUG">    838.43500000</i>
   <i name="EDIFF">      0.00001000</i>
   <i type="int" name="IALGO">    68</i>
   <i type="int" name="IWAVPR">    11</i>
   <i type="int" name="NBANDS">  1380</i>
   <i name="NELECT">   2289.00000000</i>
   <i type="int" name="TURBO">     0</i>
   <i type="int" name="IRESTART">     0</i>
   <i type="int" name="NREBOOT">     0</i>
   <i type="int" name="NMIN">     0</i>
   <i name="EREF">      0.00000000</i>
   <separator name="electronic smearing" >
    <i type="int" name="ISMEAR">     0</i>
    <i name="SIGMA">      0.15000000</i>
    <i name="KSPACING">      0.50000000</i>
    <i type="logical" name="KGAMMA"> T  </i>
   </separator>
   <separator name="electronic projectors" >
    <i type="logical" name="LREAL"> T  </i>
    <v name="ROPT">     -0.00025000     -0.00025000</v>
    <i type="int" name="LMAXPAW">  -100</i>
    <i type="int" name="LMAXMIX">     2</i>
    <i type="logical" name="NLSPLINE"> F  </i>
   </separator>
   <separator name="electronic startup" >
    <i type="int" name="ISTART">     0</i>
    <i type="int" name="ICHARG">     2</i>
    <i type="int" name="INIWAV">     1</i>
   </separator>
   <separator name="electronic spin" >
    <i type="int" name="ISPIN">     1</i>
    <i type="logical" name="LNONCOLLINEAR"> F  </i>
    <v name="MAGMOM">      1.00000000      1.00000000      1.00000000      1.00000000      1.00000000      1.00000000      1.00000000      1.00000000      1.00000000      1.00000000      1.00000000      1.00000000      1.00000000      1.00000000      1.00000000      1.00000000      1.00000000      1.00000000      1.00000000      1.00000000
      1.00000000      1.00000000      1.00000000      1.00000000      1.00000000      1.00000000      1.00000000      1.00000000      1.00000000      1.00000000      1.00000000      1.00000000      1.00000000      1.00000000      1.00000000      1.00000000      1.00000000      1.00000000      1.00000000      1.00000000
      1.00000000      1.00000000      1.00000000      1.00000000      1.00000000      1.00000000      1.00000000      1.00000000      1.00000000      1.00000000      1.00000000      1.00000000      1.00000000      1.00000000      1.00000000      1.00000000      1.00000000      1.00000000      1.00000000      1.00000000
      1.00000000      1.00000000      1.00000000      1.00000000      1.00000000      1.00000000      1.00000000      1.00000000      1.00000000      1.00000000      1.00000000      1.00000000      1.00000000      1.00000000      1.00000000      1.00000000      1.00000000      1.00000000      1.00000000      1.00000000
      1.00000000      1.00000000      1.00000000      1.00000000      1.00000000      1.00000000      1.00000000      1.00000000      1.00000000      1.00000000      1.00000000      1.00000000      1.00000000      1.00000000      1.00000000      1.00000000      1.00000000      1.00000000      1.00000000      1.00000000
      1.00000000      1.00000000      1.00000000      1.00000000      1.00000000      1.00000000      1.00000000      1.00000000      1.00000000      1.00000000      1.00000000      1.00000000      1.00000000      1.00000000      1.00000000      1.00000000      1.00000000      1.00000000      1.00000000      1.00000000
      1.00000000      1.00000000      1.00000000      1.00000000      1.00000000      1.00000000      1.00000000      1.00000000      1.00000000      1.00000000      1.00000000      1.00000000      1.00000000      1.00000000      1.00000000      1.00000000      1.00000000      1.00000000      1.00000000      1.00000000
      1.00000000      1.00000000      1.00000000      1.00000000      1.00000000      1.00000000      1.00000000      1.00000000      1.00000000      1.00000000      1.00000000      1.00000000      1.00000000      1.00000000      1.00000000      1.00000000      1.00000000      1.00000000      1.00000000      1.00000000
      1.00000000      1.00000000      1.00000000      1.00000000      1.00000000      1.00000000      1.00000000      1.00000000      1.00000000      1.00000000      1.00000000      1.00000000      1.00000000      1.00000000      1.00000000      1.00000000      1.00000000      1.00000000      1.00000000      1.00000000
      1.00000000      1.00000000      1.00000000      1.00000000      1.00000000      1.00000000      1.00000000      1.00000000      1.00000000      1.00000000      1.00000000      1.00000000      1.00000000      1.00000000      1.00000000      1.00000000      1.00000000      1.00000000      1.00000000      1.00000000
      1.00000000      1.00000000      1.00000000      1.00000000      1.00000000      1.00000000      1.00000000      1.00000000      1.00000000      1.00000000      1.00000000      1.00000000      1.00000000      1.00000000      1.00000000      1.00000000      1.00000000      1.00000000      1.00000000      1.00000000
      1.00000000      1.00000000      1.00000000      1.00000000      1.00000000      1.00000000      1.00000000      1.00000000      1.00000000      1.00000000      1.00000000      1.00000000      1.00000000      1.00000000      1.00000000      1.00000000      1.00000000      1.00000000      1.00000000      1.00000000
      1.00000000      1.00000000      1.00000000      1.00000000      1.00000000      1.00000000      1.00000000      1.00000000      1.00000000      1.00000000      1.00000000      1.00000000      1.00000000      1.00000000      1.00000000      1.00000000      1.00000000      1.00000000      1.00000000      1.00000000
      1.00000000      1.00000000      1.00000000      1.00000000      1.00000000      1.00000000      1.00000000      1.00000000      1.00000000      1.00000000      1.00000000      1.00000000      1.00000000      1.00000000      1.00000000      1.00000000      1.00000000      1.00000000      1.00000000      1.00000000
      1.00000000      1.00000000      1.00000000      1.00000000      1.00000000      1.00000000      1.00000000      1.00000000</v>
    <i name="NUPDOWN">     -1.00000000</i>
    <i type="logical" name="LSORBIT"> F  </i>
    <v name="SAXIS">      0.00000000      0.00000000      1.00000000</v>
    <i type="logical" name="LSPIRAL"> F  </i>
    <v name="QSPIRAL">      0.00000000      0.00000000      0.00000000</v>
    <i type="logical" name="LZEROZ"> F  </i>
   </separator>
   <separator name="electronic exchange-correlation" >
    <i type="logical" name="LASPH"> F  </i>
    <i type="logical" name="LMETAGGA"> F  </i>
   </separator>
   <separator name="electronic convergence" >
    <i type="int" name="NELM">   100</i>
    <i type="int" name="NELMDL">     0</i>
    <i type="int" name="NELMIN">     4</i>
    <i name="ENINI">    500.00000000</i>
    <separator name="electronic convergence detail" >
     <i type="logical" name="LDIAG"> T  </i>
     <i type="logical" name="LSUBROT"> F  </i>
     <i name="WEIMIN">      0.00100000</i>
     <i name="EBREAK">      0.00000000</i>
     <i name="DEPER">      0.30000000</i>
     <i type="int" name="NRMM">     4</i>
     <i name="TIME">      0.40000000</i>
    </separator>
   </separator>
   <separator name="electronic mixer" >
    <i name="AMIX">      0.40000000</i>
    <i name="BMIX">      1.00000000</i>
    <i name="AMIN">      0.10000000</i>
    <i name="AMIX_MAG">      1.60000000</i>
    <i name="BMIX_MAG">      1.00000000</i>
    <separator name="electronic mixer details" >
     <i type="int" name="IMIX">     4</i>
     <i type="logical" name="MIXFIRST"> F  </i>
     <i type="int" name="MAXMIX">   -45</i>
     <i name="WC">    100.00000000</i>
     <i type="int" name="INIMIX">     1</i>
     <i type="int" name="MIXPRE">     1</i>
     <i type="int" name="MREMOVE">     5</i>
    </separator>
   </separator>
   <separator name="electronic dipolcorrection" >
    <i type="logical" name="LDIPOL"> F  </i>
    <i type="logical" name="LMONO"> F  </i>
    <i type="int" name="IDIPOL">     0</i>
    <i name="EPSILON">      1.00000000</i>
    <v name="DIPOL">   -100.00000000   -100.00000000   -100.00000000</v>
    <i name="EFIELD">      0.00000000</i>
   </separator>
  </separator>
  <separator name="grids" >
   <i type="int" name="NGX">    72</i>
   <i type="int" name="NGY">    64</i>
   <i type="int" name="NGZ">   336</i>
   <i type="int" name="NGXF">   144</i>
   <i type="int" name="NGYF">   128</i>
   <i type="int" name="NGZF">   672</i>
   <i type="logical" name="ADDGRID"> F  </i>
  </separator>
  <separator name="ionic" >
   <i type="int" name="NSW">   500</i>
   <i type="int" name="IBRION">     2</i>
   <i type="int" name="MDALGO">     0</i>
   <i type="int" name="ISIF">     2</i>
   <i name="PSTRESS">      0.00000000</i>
   <i name="EDIFFG">      0.00010000</i>
   <i type="int" name="NFREE">     1</i>
   <i name="POTIM">      0.25000000</i>
   <i name="SMASS">     -3.00000000</i>
   <i name="SCALEE">      1.00000000</i>
  </separator>
  <separator name="ionic md" >
   <i name="TEBEG">      0.00010000</i>
   <i name="TEEND">      0.00010000</i>
   <i type="int" name="NBLOCK">     1</i>
   <i type="int" name="KBLOCK">   500</i>
   <i type="int" name="NPACO">   256</i>
   <i name="APACO">     16.00000000</i>
  </separator>
  <separator name="symmetry" >
   <i type="int" name="ISYM">     2</i>
   <i name="SYMPREC">      0.00001000</i>
  </separator>
  <separator name="dos" >
   <i type="int" name="LORBIT">     0</i>
   <v name="RWIGS">     -1.00000000     -1.00000000</v>
   <i type="int" name="NEDOS">   301</i>
   <i name="EMIN">     10.00000000</i>
   <i name="EMAX">    -10.00000000</i>
   <i name="EFERMI">      0.00000000</i>
  </separator>
  <separator name="writing" >
   <i type="int" name="NWRITE">     2</i>
   <i type="logical" name="LWAVE"> F  </i>
   <i type="logical" name="LDOWNSAMPLE"> F  </i>
   <i type="logical" name="LCHARG"> F  </i>
   <i type="logical" name="LPARD"> F  </i>
   <i type="logical" name="LVTOT"> F  </i>
   <i type="logical" name="LVHAR"> F  </i>
   <i type="logical" name="LELF"> F  </i>
   <i type="logical" name="LOPTICS"> F  </i>
   <v name="STM">      0.00000000      0.00000000      0.00000000      0.00000000      0.00000000      0.00000000      0.00000000</v>
  </separator>
  <separator name="performance" >
   <i type="int" name="NPAR">    10</i>
   <i type="int" name="NSIM">     4</i>
   <i type="int" name="NBLK">    -1</i>
   <i type="logical" name="LPLANE"> T  </i>
   <i type="logical" name="LSCALAPACK"> F  </i>
   <i type="logical" name="LSCAAWARE"> F  </i>
   <i type="logical" name="LSCALU"> F  </i>
   <i type="logical" name="LASYNC"> F  </i>
   <i type="logical" name="LORBITALREAL"> F  </i>
  </separator>
  <separator name="miscellaneous" >
   <i type="int" name="IDIOT">     3</i>
   <i type="int" name="ISPECIAL">     0</i>
   <i type="logical" name="LMUSIC"> F  </i>
   <v name="POMASS">     55.84700000     54.93800000</v>
   <v name="DARWINR">      0.00000000      0.00000000</v>
   <v name="DARWINV">      1.00000000      1.00000000</v>
   <i type="logical" name="LCORR"> T  </i>
  </separator>
  <i type="logical" name="GGA_COMPAT"> T  </i>
  <i type="logical" name="LBERRY"> F  </i>
  <i type="int" name="ICORELEVEL">     0</i>
  <i type="logical" name="LDAU"> F  </i>
  <i type="int" name="I_CONSTRAINED_M">     0</i>
  <separator name="electronic exchange-correlation" >
   <i type="string" name="GGA">--</i>
   <i type="int" name="VOSKOWN">     0</i>
   <i type="logical" name="LHFCALC"> F  </i>
   <i type="string" name="PRECFOCK"></i>
   <i type="logical" name="LSYMGRAD"> F  </i>
   <i type="logical" name="LHFONE"> F  </i>
   <i type="logical" name="LRHFCALC"> F  </i>
   <i type="logical" name="LTHOMAS"> F  </i>
   <i type="logical" name="LMODELHF"> F  </i>
   <i name="ENCUT4O">     -1.00000000</i>
   <i type="int" name="EXXOEP">     0</i>
   <i type="int" name="FOURORBIT">     0</i>
   <i name="AEXX">      0.00000000</i>
   <i name="HFALPHA">      0.00000000</i>
   <i name="MCALPHA">      0.00000000</i>
   <i name="ALDAX">      1.00000000</i>
   <i name="AGGAX">      1.00000000</i>
   <i name="ALDAC">      1.00000000</i>
   <i name="AGGAC">      1.00000000</i>
   <i type="int" name="NKREDX">     1</i>
   <i type="int" name="NKREDY">     1</i>
   <i type="int" name="NKREDZ">     1</i>
   <i type="logical" name="SHIFTRED"> F  </i>
   <i type="logical" name="ODDONLY"> F  </i>
   <i type="logical" name="EVENONLY"> F  </i>
   <i type="int" name="LMAXFOCK">     0</i>
   <i type="int" name="NMAXFOCKAE">     0</i>
   <i type="logical" name="LFOCKAEDFT"> F  </i>
   <i name="HFSCREEN">      0.00000000</i>
   <i name="HFSCREENC">      0.00000000</i>
   <i type="int" name="NBANDSGWLOW">     0</i>
  </separator>
  <separator name="vdW DFT" >
   <i type="logical" name="LUSE_VDW"> F  </i>
   <i name="Zab_VDW">     -0.84910000</i>
   <i name="PARAM1">      0.12340000</i>
   <i name="PARAM2">      1.00000000</i>
   <i name="PARAM3">      0.00000000</i>
  </separator>
  <separator name="model GW" >
   <i type="int" name="MODEL_GW">     0</i>
   <i name="MODEL_EPS0">      7.68123361</i>
   <i name="MODEL_ALPHA">      1.00000000</i>
  </separator>
  <separator name="linear response parameters" >
   <i type="logical" name="LEPSILON"> F  </i>
   <i type="logical" name="LRPA"> F  </i>
   <i type="logical" name="LNABLA"> F  </i>
   <i type="logical" name="LVEL"> F  </i>
   <i type="int" name="KINTER">     0</i>
   <i name="CSHIFT">      0.10000000</i>
   <i name="OMEGAMAX">     -1.00000000</i>
   <i name="DEG_THRESHOLD">      0.00200000</i>
   <i name="RTIME">     -0.10000000</i>
   <i name="WPLASMAI">      0.00000000</i>
   <v name="DFIELD">      0.00000000      0.00000000      0.00000000</v>
   <v name="WPLASMA">      0.00000000      0.00000000      0.00000000      0.00000000      0.00000000      0.00000000      0.00000000      0.00000000      0.00000000</v>
  </separator>
  <separator name="orbital magnetization" >
   <i type="logical" name="NUCIND"> F  </i>
   <v name="MAGPOS">      0.00000000      0.00000000      0.00000000</v>
   <i type="logical" name="LNICSALL"> T  </i>
   <i type="logical" name="ORBITALMAG"> F  </i>
   <i type="logical" name="LMAGBLOCH"> F  </i>
   <i type="logical" name="LCHIMAG"> F  </i>
   <i type="logical" name="LGAUGE"> T  </i>
   <i type="int" name="MAGATOM">     0</i>
   <v name="MAGDIPOL">      0.00000000      0.00000000      0.00000000</v>
   <v name="AVECCONST">      0.00000000      0.00000000      0.00000000</v>
  </separator>
  <separator name="response functions" >
   <i type="logical" name="LADDER"> F  </i>
   <i type="logical" name="LRPAFORCE"> F  </i>
   <i type="logical" name="LFXC"> F  </i>
   <i type="logical" name="LHARTREE"> T  </i>
   <i type="int" name="IBSE">     0</i>
   <v type="int" name="KPOINT">    -1     0     0     0</v>
   <i type="logical" name="LTCTE"> F  </i>
   <i type="logical" name="LTETE"> F  </i>
   <i type="logical" name="LTRIPLET"> F  </i>
   <i type="logical" name="LFXCEPS"> F  </i>
   <i type="logical" name="LFXHEG"> F  </i>
   <i type="int" name="NATURALO">     2</i>
   <i type="logical" name="L2ORDER"> F  </i>
   <i type="logical" name="LMP2LT"> F  </i>
   <i type="logical" name="LUSEW"> F  </i>
   <i name="ENCUTGW">     -2.00000000</i>
   <i name="ENCUTGWSOFT">     -2.00000000</i>
   <i name="ENCUTLF">     -1.00000000</i>
   <i type="int" name="LMAXMP2">    -1</i>
   <i name="SCISSOR">      0.00000000</i>
   <i type="int" name="NOMEGA">     0</i>
   <i type="int" name="NOMEGAR">     0</i>
   <i type="int" name="NBANDSGW">    -1</i>
   <i type="int" name="NBANDSO">    -1</i>
   <i type="int" name="NBANDSV">    -1</i>
   <i type="int" name="NELM">   100</i>
   <i type="int" name="NELMHF">     1</i>
   <i type="int" name="DIM">     3</i>
   <i type="int" name="ANTIRES">     0</i>
   <i name="OMEGAMAX">    -30.00000000</i>
   <i name="OMEGAMIN">    -30.00000000</i>
   <i name="OMEGATL">   -200.00000000</i>
   <i type="int" name="OMEGAGRID">   140</i>
   <i name="CSHIFT">     -0.10000000</i>
   <i type="logical" name="SELFENERGY"> F  </i>
   <i type="logical" name="LSPECTRAL"> F  </i>
   <i type="logical" name="LSPECTRALGW"> F  </i>
   <i type="logical" name="LSINGLES"> F  </i>
   <i type="logical" name="LFERMIGW"> F  </i>
   <i type="logical" name="ODDONLYGW"> F  </i>
   <i type="logical" name="EVENONLYGW"> F  </i>
   <i type="int" name="NKREDLFX">     1</i>
   <i type="int" name="NKREDLFY">     1</i>
   <i type="int" name="NKREDLFZ">     1</i>
   <i type="int" name="MAXMEM">  2800</i>
   <i type="int" name="TELESCOPE">     0</i>
   <i type="int" name="TAUPAR">     1</i>
   <i type="int" name="OMEGAPAR">    -1</i>
   <i name="LAMBDA">      1.00000000</i>
  </separator>
  <separator name="External order field" >
   <i name="OFIELD_KAPPA">      0.00000000</i>
   <v name="OFIELD_K">      0.00000000      0.00000000      0.00000000</v>
   <i name="OFIELD_Q6_NEAR">      0.00000000</i>
   <i name="OFIELD_Q6_FAR">      0.00000000</i>
   <i name="OFIELD_A">      0.00000000</i>
  </separator>
 </parameters>
 <atominfo>
  <atoms>     288 </atoms>
  <types>       2 </types>
  <array name="atoms" >
   <dimension dim="1">ion</dimension>
   <field type="string">element</field>
   <field type="int">atomtype</field>
   <set>
    <rc><c>Fe</c><c>   1</c></rc>
    <rc><c>Fe</c><c>   1</c></rc>
    <rc><c>Fe</c><c>   1</c></rc>
    <rc><c>Fe</c><c>   1</c></rc>
    <rc><c>Fe</c><c>   1</c></rc>
    <rc><c>Fe</c><c>   1</c></rc>
    <rc><c>Fe</c><c>   1</c></rc>
    <rc><c>Fe</c><c>   1</c></rc>
    <rc><c>Fe</c><c>   1</c></rc>
    <rc><c>Fe</c><c>   1</c></rc>
    <rc><c>Fe</c><c>   1</c></rc>
    <rc><c>Fe</c><c>   1</c></rc>
    <rc><c>Fe</c><c>   1</c></rc>
    <rc><c>Fe</c><c>   1</c></rc>
    <rc><c>Fe</c><c>   1</c></rc>
    <rc><c>Fe</c><c>   1</c></rc>
    <rc><c>Fe</c><c>   1</c></rc>
    <rc><c>Fe</c><c>   1</c></rc>
    <rc><c>Fe</c><c>   1</c></rc>
    <rc><c>Fe</c><c>   1</c></rc>
    <rc><c>Fe</c><c>   1</c></rc>
    <rc><c>Fe</c><c>   1</c></rc>
    <rc><c>Fe</c><c>   1</c></rc>
    <rc><c>Fe</c><c>   1</c></rc>
    <rc><c>Fe</c><c>   1</c></rc>
    <rc><c>Fe</c><c>   1</c></rc>
    <rc><c>Fe</c><c>   1</c></rc>
    <rc><c>Fe</c><c>   1</c></rc>
    <rc><c>Fe</c><c>   1</c></rc>
    <rc><c>Fe</c><c>   1</c></rc>
    <rc><c>Fe</c><c>   1</c></rc>
    <rc><c>Fe</c><c>   1</c></rc>
    <rc><c>Fe</c><c>   1</c></rc>
    <rc><c>Fe</c><c>   1</c></rc>
    <rc><c>Fe</c><c>   1</c></rc>
    <rc><c>Fe</c><c>   1</c></rc>
    <rc><c>Fe</c><c>   1</c></rc>
    <rc><c>Fe</c><c>   1</c></rc>
    <rc><c>Fe</c><c>   1</c></rc>
    <rc><c>Fe</c><c>   1</c></rc>
    <rc><c>Fe</c><c>   1</c></rc>
    <rc><c>Fe</c><c>   1</c></rc>
    <rc><c>Fe</c><c>   1</c></rc>
    <rc><c>Fe</c><c>   1</c></rc>
    <rc><c>Fe</c><c>   1</c></rc>
    <rc><c>Fe</c><c>   1</c></rc>
    <rc><c>Fe</c><c>   1</c></rc>
    <rc><c>Fe</c><c>   1</c></rc>
    <rc><c>Fe</c><c>   1</c></rc>
    <rc><c>Fe</c><c>   1</c></rc>
    <rc><c>Fe</c><c>   1</c></rc>
    <rc><c>Fe</c><c>   1</c></rc>
    <rc><c>Fe</c><c>   1</c></rc>
    <rc><c>Fe</c><c>   1</c></rc>
    <rc><c>Fe</c><c>   1</c></rc>
    <rc><c>Fe</c><c>   1</c></rc>
    <rc><c>Fe</c><c>   1</c></rc>
    <rc><c>Fe</c><c>   1</c></rc>
    <rc><c>Fe</c><c>   1</c></rc>
    <rc><c>Fe</c><c>   1</c></rc>
    <rc><c>Fe</c><c>   1</c></rc>
    <rc><c>Fe</c><c>   1</c></rc>
    <rc><c>Fe</c><c>   1</c></rc>
    <rc><c>Fe</c><c>   1</c></rc>
    <rc><c>Fe</c><c>   1</c></rc>
    <rc><c>Fe</c><c>   1</c></rc>
    <rc><c>Fe</c><c>   1</c></rc>
    <rc><c>Fe</c><c>   1</c></rc>
    <rc><c>Fe</c><c>   1</c></rc>
    <rc><c>Fe</c><c>   1</c></rc>
    <rc><c>Fe</c><c>   1</c></rc>
    <rc><c>Fe</c><c>   1</c></rc>
    <rc><c>Fe</c><c>   1</c></rc>
    <rc><c>Fe</c><c>   1</c></rc>
    <rc><c>Fe</c><c>   1</c></rc>
    <rc><c>Fe</c><c>   1</c></rc>
    <rc><c>Fe</c><c>   1</c></rc>
    <rc><c>Fe</c><c>   1</c></rc>
    <rc><c>Fe</c><c>   1</c></rc>
    <rc><c>Fe</c><c>   1</c></rc>
    <rc><c>Fe</c><c>   1</c></rc>
    <rc><c>Fe</c><c>   1</c></rc>
    <rc><c>Fe</c><c>   1</c></rc>
    <rc><c>Fe</c><c>   1</c></rc>
    <rc><c>Fe</c><c>   1</c></rc>
    <rc><c>Fe</c><c>   1</c></rc>
    <rc><c>Fe</c><c>   1</c></rc>
    <rc><c>Fe</c><c>   1</c></rc>
    <rc><c>Fe</c><c>   1</c></rc>
    <rc><c>Fe</c><c>   1</c></rc>
    <rc><c>Fe</c><c>   1</c></rc>
    <rc><c>Fe</c><c>   1</c></rc>
    <rc><c>Fe</c><c>   1</c></rc>
    <rc><c>Fe</c><c>   1</c></rc>
    <rc><c>Fe</c><c>   1</c></rc>
    <rc><c>Fe</c><c>   1</c></rc>
    <rc><c>Fe</c><c>   1</c></rc>
    <rc><c>Fe</c><c>   1</c></rc>
    <rc><c>Fe</c><c>   1</c></rc>
    <rc><c>Fe</c><c>   1</c></rc>
    <rc><c>Fe</c><c>   1</c></rc>
    <rc><c>Fe</c><c>   1</c></rc>
    <rc><c>Fe</c><c>   1</c></rc>
    <rc><c>Fe</c><c>   1</c></rc>
    <rc><c>Fe</c><c>   1</c></rc>
    <rc><c>Fe</c><c>   1</c></rc>
    <rc><c>Fe</c><c>   1</c></rc>
    <rc><c>Fe</c><c>   1</c></rc>
    <rc><c>Fe</c><c>   1</c></rc>
    <rc><c>Fe</c><c>   1</c></rc>
    <rc><c>Fe</c><c>   1</c></rc>
    <rc><c>Fe</c><c>   1</c></rc>
    <rc><c>Fe</c><c>   1</c></rc>
    <rc><c>Fe</c><c>   1</c></rc>
    <rc><c>Fe</c><c>   1</c></rc>
    <rc><c>Fe</c><c>   1</c></rc>
    <rc><c>Fe</c><c>   1</c></rc>
    <rc><c>Fe</c><c>   1</c></rc>
    <rc><c>Fe</c><c>   1</c></rc>
    <rc><c>Fe</c><c>   1</c></rc>
    <rc><c>Fe</c><c>   1</c></rc>
    <rc><c>Fe</c><c>   1</c></rc>
    <rc><c>Fe</c><c>   1</c></rc>
    <rc><c>Fe</c><c>   1</c></rc>
    <rc><c>Fe</c><c>   1</c></rc>
    <rc><c>Fe</c><c>   1</c></rc>
    <rc><c>Fe</c><c>   1</c></rc>
    <rc><c>Fe</c><c>   1</c></rc>
    <rc><c>Fe</c><c>   1</c></rc>
    <rc><c>Fe</c><c>   1</c></rc>
    <rc><c>Fe</c><c>   1</c></rc>
    <rc><c>Fe</c><c>   1</c></rc>
    <rc><c>Fe</c><c>   1</c></rc>
    <rc><c>Fe</c><c>   1</c></rc>
    <rc><c>Fe</c><c>   1</c></rc>
    <rc><c>Fe</c><c>   1</c></rc>
    <rc><c>Fe</c><c>   1</c></rc>
    <rc><c>Fe</c><c>   1</c></rc>
    <rc><c>Fe</c><c>   1</c></rc>
    <rc><c>Fe</c><c>   1</c></rc>
    <rc><c>Fe</c><c>   1</c></rc>
    <rc><c>Fe</c><c>   1</c></rc>
    <rc><c>Fe</c><c>   1</c></rc>
    <rc><c>Fe</c><c>   1</c></rc>
    <rc><c>Fe</c><c>   1</c></rc>
    <rc><c>Fe</c><c>   1</c></rc>
    <rc><c>Fe</c><c>   1</c></rc>
    <rc><c>Fe</c><c>   1</c></rc>
    <rc><c>Fe</c><c>   1</c></rc>
    <rc><c>Fe</c><c>   1</c></rc>
    <rc><c>Fe</c><c>   1</c></rc>
    <rc><c>Fe</c><c>   1</c></rc>
    <rc><c>Fe</c><c>   1</c></rc>
    <rc><c>Fe</c><c>   1</c></rc>
    <rc><c>Fe</c><c>   1</c></rc>
    <rc><c>Fe</c><c>   1</c></rc>
    <rc><c>Fe</c><c>   1</c></rc>
    <rc><c>Fe</c><c>   1</c></rc>
    <rc><c>Fe</c><c>   1</c></rc>
    <rc><c>Fe</c><c>   1</c></rc>
    <rc><c>Fe</c><c>   1</c></rc>
    <rc><c>Fe</c><c>   1</c></rc>
    <rc><c>Fe</c><c>   1</c></rc>
    <rc><c>Fe</c><c>   1</c></rc>
    <rc><c>Fe</c><c>   1</c></rc>
    <rc><c>Fe</c><c>   1</c></rc>
    <rc><c>Fe</c><c>   1</c></rc>
    <rc><c>Fe</c><c>   1</c></rc>
    <rc><c>Fe</c><c>   1</c></rc>
    <rc><c>Fe</c><c>   1</c></rc>
    <rc><c>Fe</c><c>   1</c></rc>
    <rc><c>Fe</c><c>   1</c></rc>
    <rc><c>Fe</c><c>   1</c></rc>
    <rc><c>Fe</c><c>   1</c></rc>
    <rc><c>Fe</c><c>   1</c></rc>
    <rc><c>Fe</c><c>   1</c></rc>
    <rc><c>Fe</c><c>   1</c></rc>
    <rc><c>Fe</c><c>   1</c></rc>
    <rc><c>Fe</c><c>   1</c></rc>
    <rc><c>Fe</c><c>   1</c></rc>
    <rc><c>Fe</c><c>   1</c></rc>
    <rc><c>Fe</c><c>   1</c></rc>
    <rc><c>Fe</c><c>   1</c></rc>
    <rc><c>Fe</c><c>   1</c></rc>
    <rc><c>Fe</c><c>   1</c></rc>
    <rc><c>Fe</c><c>   1</c></rc>
    <rc><c>Fe</c><c>   1</c></rc>
    <rc><c>Fe</c><c>   1</c></rc>
    <rc><c>Fe</c><c>   1</c></rc>
    <rc><c>Fe</c><c>   1</c></rc>
    <rc><c>Fe</c><c>   1</c></rc>
    <rc><c>Fe</c><c>   1</c></rc>
    <rc><c>Fe</c><c>   1</c></rc>
    <rc><c>Fe</c><c>   1</c></rc>
    <rc><c>Fe</c><c>   1</c></rc>
    <rc><c>Fe</c><c>   1</c></rc>
    <rc><c>Fe</c><c>   1</c></rc>
    <rc><c>Fe</c><c>   1</c></rc>
    <rc><c>Fe</c><c>   1</c></rc>
    <rc><c>Fe</c><c>   1</c></rc>
    <rc><c>Fe</c><c>   1</c></rc>
    <rc><c>Fe</c><c>   1</c></rc>
    <rc><c>Fe</c><c>   1</c></rc>
    <rc><c>Fe</c><c>   1</c></rc>
    <rc><c>Fe</c><c>   1</c></rc>
    <rc><c>Fe</c><c>   1</c></rc>
    <rc><c>Fe</c><c>   1</c></rc>
    <rc><c>Fe</c><c>   1</c></rc>
    <rc><c>Fe</c><c>   1</c></rc>
    <rc><c>Fe</c><c>   1</c></rc>
    <rc><c>Fe</c><c>   1</c></rc>
    <rc><c>Fe</c><c>   1</c></rc>
    <rc><c>Fe</c><c>   1</c></rc>
    <rc><c>Fe</c><c>   1</c></rc>
    <rc><c>Fe</c><c>   1</c></rc>
    <rc><c>Fe</c><c>   1</c></rc>
    <rc><c>Fe</c><c>   1</c></rc>
    <rc><c>Fe</c><c>   1</c></rc>
    <rc><c>Fe</c><c>   1</c></rc>
    <rc><c>Fe</c><c>   1</c></rc>
    <rc><c>Fe</c><c>   1</c></rc>
    <rc><c>Fe</c><c>   1</c></rc>
    <rc><c>Fe</c><c>   1</c></rc>
    <rc><c>Fe</c><c>   1</c></rc>
    <rc><c>Fe</c><c>   1</c></rc>
    <rc><c>Fe</c><c>   1</c></rc>
    <rc><c>Fe</c><c>   1</c></rc>
    <rc><c>Fe</c><c>   1</c></rc>
    <rc><c>Fe</c><c>   1</c></rc>
    <rc><c>Fe</c><c>   1</c></rc>
    <rc><c>Fe</c><c>   1</c></rc>
    <rc><c>Fe</c><c>   1</c></rc>
    <rc><c>Fe</c><c>   1</c></rc>
    <rc><c>Fe</c><c>   1</c></rc>
    <rc><c>Fe</c><c>   1</c></rc>
    <rc><c>Fe</c><c>   1</c></rc>
    <rc><c>Fe</c><c>   1</c></rc>
    <rc><c>Fe</c><c>   1</c></rc>
    <rc><c>Fe</c><c>   1</c></rc>
    <rc><c>Fe</c><c>   1</c></rc>
    <rc><c>Fe</c><c>   1</c></rc>
    <rc><c>Fe</c><c>   1</c></rc>
    <rc><c>Fe</c><c>   1</c></rc>
    <rc><c>Fe</c><c>   1</c></rc>
    <rc><c>Fe</c><c>   1</c></rc>
    <rc><c>Fe</c><c>   1</c></rc>
    <rc><c>Fe</c><c>   1</c></rc>
    <rc><c>Fe</c><c>   1</c></rc>
    <rc><c>Fe</c><c>   1</c></rc>
    <rc><c>Fe</c><c>   1</c></rc>
    <rc><c>Fe</c><c>   1</c></rc>
    <rc><c>Fe</c><c>   1</c></rc>
    <rc><c>Fe</c><c>   1</c></rc>
    <rc><c>Fe</c><c>   1</c></rc>
    <rc><c>Fe</c><c>   1</c></rc>
    <rc><c>Fe</c><c>   1</c></rc>
    <rc><c>Fe</c><c>   1</c></rc>
    <rc><c>Fe</c><c>   1</c></rc>
    <rc><c>Fe</c><c>   1</c></rc>
    <rc><c>Fe</c><c>   1</c></rc>
    <rc><c>Fe</c><c>   1</c></rc>
    <rc><c>Fe</c><c>   1</c></rc>
    <rc><c>Fe</c><c>   1</c></rc>
    <rc><c>Fe</c><c>   1</c></rc>
    <rc><c>Fe</c><c>   1</c></rc>
    <rc><c>Fe</c><c>   1</c></rc>
    <rc><c>Fe</c><c>   1</c></rc>
    <rc><c>Fe</c><c>   1</c></rc>
    <rc><c>Fe</c><c>   1</c></rc>
    <rc><c>Fe</c><c>   1</c></rc>
    <rc><c>Fe</c><c>   1</c></rc>
    <rc><c>Fe</c><c>   1</c></rc>
    <rc><c>Fe</c><c>   1</c></rc>
    <rc><c>Mn</c><c>   2</c></rc>
    <rc><c>Mn</c><c>   2</c></rc>
    <rc><c>Mn</c><c>   2</c></rc>
    <rc><c>Mn</c><c>   2</c></rc>
    <rc><c>Mn</c><c>   2</c></rc>
    <rc><c>Mn</c><c>   2</c></rc>
    <rc><c>Mn</c><c>   2</c></rc>
    <rc><c>Mn</c><c>   2</c></rc>
    <rc><c>Mn</c><c>   2</c></rc>
    <rc><c>Mn</c><c>   2</c></rc>
    <rc><c>Mn</c><c>   2</c></rc>
    <rc><c>Mn</c><c>   2</c></rc>
    <rc><c>Mn</c><c>   2</c></rc>
    <rc><c>Mn</c><c>   2</c></rc>
    <rc><c>Mn</c><c>   2</c></rc>
   </set>
  </array>
  <array name="atomtypes" >
   <dimension dim="1">type</dimension>
   <field type="int">atomspertype</field>
   <field type="string">element</field>
   <field>mass</field>
   <field>valence</field>
   <field type="string">pseudopotential</field>
   <set>
    <rc><c> 273</c><c>Fe</c><c>     55.84700000</c><c>      8.00000000</c><c>  PAW_PBE Fe_GW 31Mar2010               </c></rc>
    <rc><c>  15</c><c>Mn</c><c>     54.93800000</c><c>      7.00000000</c><c>  PAW_PBE Mn_GW 31Mar2010               </c></rc>
   </set>
  </array>
 </atominfo>
 <structure name="initialpos" >
  <crystal>
   <varray name="basis" >
    <v>       9.72667800       0.00000000       0.00000000 </v>
    <v>       0.00000000       8.42355000       0.00000000 </v>
    <v>       0.00000000       0.00000000      45.00000000 </v>
   </varray>
   <i name="volume">   3686.99213101 </i>
   <varray name="rec_basis" >
    <v>       0.10281002       0.00000000       0.00000000 </v>
    <v>       0.00000000       0.11871479       0.00000000 </v>
    <v>       0.00000000       0.00000000       0.02222222 </v>
   </varray>
  </crystal>
  <varray name="positions" >
   <v>       0.43749494       0.45339834       0.34648094 </v>
   <v>       0.31259876       0.36932975       0.30200540 </v>
   <v>       0.18730685       0.61786699       0.16909690 </v>
   <v>       0.93750194       0.45385480       0.34641953 </v>
   <v>       0.93752815       0.95352328       0.34637929 </v>
   <v>       0.18747723       0.11777597       0.16907745 </v>
   <v>       0.43714326       0.12254668       0.52132821 </v>
   <v>       0.68711200       0.12621330       0.78615130 </v>
   <v>       0.93783285       0.62602585       0.78621504 </v>
   <v>       0.31245858       0.20343870       0.34644319 </v>
   <v>       0.56249254       0.37282521       0.52135620 </v>
   <v>       0.18766826       0.45162124       0.21380385 </v>
   <v>       0.06326508       0.54380105       0.87315508 </v>
   <v>       0.81241035       0.53715077       0.39024030 </v>
   <v>       0.43723704       0.12693193       0.78612442 </v>
   <v>       0.43744431       0.62165109       0.43487086 </v>
   <v>       0.31241305       0.86968714       0.30212774 </v>
   <v>       0.68767709       0.45388068       0.34650584 </v>
   <v>       0.43744598       0.95360227       0.34648552 </v>
   <v>       0.56234001       0.03733101       0.39035783 </v>
   <v>       0.56223017       0.03556709       0.25790290 </v>
   <v>       0.43749384       0.61948827       0.30204426 </v>
   <v>       0.93749626       0.45151773       0.21380755 </v>
   <v>       0.06264021       0.03577596       0.25796356 </v>
   <v>       0.93765466       0.78742908       0.39031338 </v>
   <v>       0.18765210       0.12468975       0.65351248 </v>
   <v>       0.93772164       0.12140453       0.43486363 </v>
   <v>       0.06264863       0.70826253       0.69792572 </v>
   <v>       0.18776468       0.95982337       0.83114505 </v>
   <v>       0.31234740       0.54066746       0.60968721 </v>
   <v>       0.81252317       0.36809017       0.16904433 </v>
   <v>       0.31265559       0.37609310       0.78622579 </v>
   <v>       0.81222678       0.70831446       0.69796737 </v>
   <v>       0.93744181       0.62387891       0.65350655 </v>
   <v>       0.56219048       0.36776107       0.16897731 </v>
   <v>       0.18720661       0.62576644       0.78606695 </v>
   <v>       0.18723702       0.28468168       0.12686764 </v>
   <v>       0.18752885       0.62425656       0.65353986 </v>
   <v>       0.31242121       0.03453980       0.12689481 </v>
   <v>       0.18731086       0.45981515       0.83090898 </v>
   <v>       0.81264034       0.70899118       0.83123857 </v>
   <v>       0.68719973       0.12129414       0.43513162 </v>
   <v>       0.81276725       0.87092214       0.43482079 </v>
   <v>       0.93726376       0.95209115       0.21383732 </v>
   <v>       0.81248132       0.86832067       0.16898692 </v>
   <v>       0.93750168       0.45472507       0.47860125 </v>
   <v>       0.31242920       0.36834405       0.16895961 </v>
   <v>       0.56213409       0.86943681       0.30197116 </v>
   <v>       0.18673364       0.79458455       0.87329964 </v>
   <v>       0.81275292       0.53998310       0.60972262 </v>
   <v>       0.06244274       0.03457379       0.12688607 </v>
   <v>       0.18760570       0.12600781       0.78621499 </v>
   <v>       0.93766895       0.95837942       0.69796413 </v>
   <v>       0.06225480       0.86770040       0.16905703 </v>
   <v>       0.93776744       0.12240039       0.52134127 </v>
   <v>       0.68785828       0.95527072       0.47861362 </v>
   <v>       0.43743763       0.45623795       0.56504068 </v>
   <v>       0.06242201       0.54053628       0.60959065 </v>
   <v>       0.56204752       0.21056989       0.83094078 </v>
   <v>       0.68757083       0.95189112       0.21382382 </v>
   <v>       0.06268791       0.36782661       0.16896433 </v>
   <v>       0.31266983       0.37416683       0.65357149 </v>
   <v>       0.06248902       0.20635186       0.56502210 </v>
   <v>       0.93705672       0.29203791       0.74204914 </v>
   <v>       0.68708184       0.96025552       0.83107962 </v>
   <v>       0.31259189       0.53752770       0.39016811 </v>
   <v>       0.31257387       0.87633435       0.78629062 </v>
   <v>       0.93717548       0.96044010       0.83112603 </v>
   <v>       0.18739053       0.78612585       0.25801235 </v>
   <v>       0.81234807       0.21059353       0.83119071 </v>
   <v>       0.43769809       0.78727964       0.39027709 </v>
   <v>       0.56246952       0.87217345       0.52123919 </v>
   <v>       0.68812302       0.46044411       0.83101740 </v>
   <v>       0.31210521       0.53416190       0.12685459 </v>
   <v>       0.56256467       0.20544351       0.47872428 </v>
   <v>       0.68747288       0.29252399       0.74210560 </v>
   <v>       0.31162071       0.04383778       0.87323529 </v>
   <v>       0.56276654       0.87632519       0.78619592 </v>
   <v>       0.81257827       0.03557590       0.25797915 </v>
   <v>       0.93786519       0.78481732       0.12691596 </v>
   <v>       0.56211380       0.37612900       0.78604727 </v>
   <v>       0.68771466       0.78737499       0.39025658 </v>
   <v>       0.31259616       0.37252484       0.52134593 </v>
   <v>       0.18795866       0.95638814       0.56519682 </v>
   <v>       0.93743640       0.79001722       0.60964345 </v>
   <v>       0.81287788       0.70173859       0.21378571 </v>
   <v>       0.93707899       0.46031906       0.83110278 </v>
   <v>       0.06243275       0.53561554       0.25796062 </v>
   <v>       0.81264394       0.20644700       0.56506467 </v>
   <v>       0.56250710       0.03534318       0.12682288 </v>
   <v>       0.93755681       0.12428800       0.65361183 </v>
   <v>       0.68757050       0.29228277       0.87323988 </v>
   <v>       0.68725273       0.79225809       0.74203161 </v>
   <v>       0.68716076       0.45587592       0.56506064 </v>
   <v>       0.06287423       0.53754082       0.39030381 </v>
   <v>       0.06249904       0.87270152       0.52125272 </v>
   <v>       0.68761409       0.45854428       0.69796936 </v>
   <v>       0.56221289       0.53747766       0.39029808 </v>
   <v>       0.06269267       0.20535653       0.47863424 </v>
   <v>       0.56242182       0.70484189       0.47859643 </v>
   <v>       0.18727087       0.29235180       0.74214219 </v>
   <v>       0.43769134       0.79208502       0.74210274 </v>
   <v>       0.06230890       0.20341884       0.34652127 </v>
   <v>       0.18743188       0.11966673       0.30210289 </v>
   <v>       0.81263180       0.37416642       0.65350943 </v>
   <v>       0.18777489       0.62240790       0.52124356 </v>
   <v>       0.56327585       0.04340188       0.87323661 </v>
   <v>       0.81236687       0.04360420       0.87329114 </v>
   <v>       0.06204312       0.37428698       0.65356743 </v>
   <v>       0.06252783       0.70600672       0.56480466 </v>
   <v>       0.56208895       0.54231139       0.74201333 </v>
   <v>       0.56254384       0.54016311       0.60969676 </v>
   <v>       0.06278001       0.04029840       0.60965894 </v>
   <v>       0.93709754       0.79218191       0.74210722 </v>
   <v>       0.93773149       0.29012047       0.60966920 </v>
   <v>       0.81218424       0.54226117       0.74213538 </v>
   <v>       0.06235969       0.37267415       0.52126737 </v>
   <v>       0.31263879       0.03752302       0.39028308 </v>
   <v>       0.31199385       0.87130887       0.43487755 </v>
   <v>       0.31208803       0.87205936       0.52125770 </v>
   <v>       0.93700285       0.95531184       0.47868848 </v>
   <v>       0.31255590       0.54280760       0.87319766 </v>
   <v>       0.06254229       0.37165257       0.43487165 </v>
   <v>       0.31243356       0.86805302       0.16905624 </v>
   <v>       0.56247370       0.37165587       0.43480664 </v>
   <v>       0.56267464       0.87411869       0.65348435 </v>
   <v>       0.93747161       0.61767490       0.16906162 </v>
   <v>       0.93742857       0.62226723       0.52134364 </v>
   <v>       0.68722770       0.11815659       0.16909932 </v>
   <v>       0.43764070       0.78462736       0.12680796 </v>
   <v>       0.56250663       0.71039496       0.83130928 </v>
   <v>       0.56229538       0.20190815       0.21380033 </v>
   <v>       0.81242546       0.37275019       0.52135669 </v>
   <v>       0.31251841       0.70612463       0.56514766 </v>
   <v>       0.18730715       0.79056663       0.60968490 </v>
   <v>       0.06225834       0.36980222       0.30201782 </v>
   <v>       0.56284770       0.70560700       0.56506139 </v>
   <v>       0.68728424       0.12423165       0.65363631 </v>
   <v>       0.93767009       0.11796972       0.16912692 </v>
   <v>       0.68741798       0.61970204       0.30210213 </v>
   <v>       0.06274721       0.20169357       0.21379416 </v>
   <v>       0.06239500       0.70167391       0.21380496 </v>
   <v>       0.31260160       0.37146341       0.43494667 </v>
   <v>       0.56235905       0.04032184       0.60965528 </v>
   <v>       0.43748487       0.11794495       0.16905536 </v>
   <v>       0.18767752       0.45643495       0.56512786 </v>
   <v>       0.56261879       0.86759416       0.16893866 </v>
   <v>       0.06284839       0.70352523       0.34648992 </v>
   <v>       0.68761844       0.62244278       0.52133107 </v>
   <v>       0.68747179       0.62400676       0.65350381 </v>
   <v>       0.43769488       0.95935059       0.83119560 </v>
   <v>       0.18774221       0.12148620       0.43487013 </v>
   <v>       0.43758155       0.12401074       0.65359891 </v>
   <v>       0.43709112       0.46060314       0.83107145 </v>
   <v>       0.56233187       0.04250960       0.74214550 </v>
   <v>       0.56245634       0.20674197       0.56517770 </v>
   <v>       0.43761536       0.62416061       0.65345128 </v>
   <v>       0.93871880       0.79366352       0.87331143 </v>
   <v>       0.81248482       0.03446548       0.12691746 </v>
   <v>       0.93762436       0.45581748       0.56513005 </v>
   <v>       0.18769543       0.61952793       0.30203395 </v>
   <v>       0.68763605       0.11946289       0.30202070 </v>
   <v>       0.81244409       0.37152289       0.43480710 </v>
   <v>       0.68707291       0.78479328       0.12682411 </v>
   <v>       0.68729378       0.28704566       0.39025860 </v>
   <v>       0.43750325       0.95200597       0.21377870 </v>
   <v>       0.93743101       0.29294604       0.87317901 </v>
   <v>       0.56284128       0.37411995       0.65358575 </v>
   <v>       0.31246329       0.04199611       0.74200110 </v>
   <v>       0.56264389       0.53565663       0.25792772 </v>
   <v>       0.81265400       0.87676807       0.78606167 </v>
   <v>       0.18750289       0.95594669       0.47855543 </v>
   <v>       0.06292412       0.86947867       0.30197110 </v>
   <v>       0.68744926       0.95355813       0.34639224 </v>
   <v>       0.56176216       0.54318682       0.87324749 </v>
   <v>       0.93763048       0.28595910       0.25797650 </v>
   <v>       0.43772965       0.78576720       0.25801768 </v>
   <v>       0.81257550       0.36991224       0.30202139 </v>
   <v>       0.31255174       0.70312609       0.34645598 </v>
   <v>       0.81231145       0.37586361       0.78627759 </v>
   <v>       0.43764621       0.79040244       0.60963062 </v>
   <v>       0.68730127       0.28470364       0.12686525 </v>
   <v>       0.68722398       0.79409667       0.87326481 </v>
   <v>       0.43742274       0.29047363       0.60976472 </v>
   <v>       0.31256734       0.54217523       0.74213201 </v>
   <v>       0.56286265       0.36913937       0.30209838 </v>
   <v>       0.31265487       0.04035378       0.60964429 </v>
   <v>       0.31255262       0.20784983       0.69785308 </v>
   <v>       0.81244042       0.70373108       0.34649482 </v>
   <v>       0.56225636       0.70361712       0.34642397 </v>
   <v>       0.56229647       0.70822203       0.69788399 </v>
   <v>       0.43782815       0.28493065       0.12686109 </v>
   <v>       0.93761558       0.45820132       0.69777133 </v>
   <v>       0.43738735       0.45816664       0.69781407 </v>
   <v>       0.18752946       0.28535714       0.25794827 </v>
   <v>       0.93754091       0.28453721       0.12686040 </v>
   <v>       0.18756251       0.95196393       0.21384854 </v>
   <v>       0.06279483       0.37536098       0.78609805 </v>
   <v>       0.31232978       0.20176544       0.21382050 </v>
   <v>       0.06245315       0.87433423       0.65353088 </v>
   <v>       0.18702193       0.78705351       0.39022791 </v>
   <v>       0.18730135       0.78470322       0.12689371 </v>
   <v>       0.43759386       0.28529150       0.25795676 </v>
   <v>       0.18763774       0.95807340       0.69796437 </v>
   <v>       0.68757595       0.95846763       0.69788726 </v>
   <v>       0.18731938       0.45500748       0.47859148 </v>
   <v>       0.31226030       0.70188095       0.21382105 </v>
   <v>       0.68747933       0.78524218       0.25791116 </v>
   <v>       0.43734214       0.45524347       0.47863250 </v>
   <v>       0.68764908       0.62130759       0.43490383 </v>
   <v>       0.43729995       0.45198019       0.21381534 </v>
   <v>       0.06272978       0.03778410       0.39028950 </v>
   <v>       0.93759491       0.28724083       0.39027999 </v>
   <v>       0.56269563       0.20811714       0.69796882 </v>
   <v>       0.93729565       0.62123591       0.43489315 </v>
   <v>       0.06303307       0.54227101       0.74202316 </v>
   <v>       0.43771380       0.29304749       0.87312423 </v>
   <v>       0.18758330       0.28787560       0.39028414 </v>
   <v>       0.93758842       0.78531305       0.25793066 </v>
   <v>       0.81270823       0.87226162       0.52137660 </v>
   <v>       0.81282307       0.20187040       0.21386606 </v>
   <v>       0.68773618       0.78974905       0.60969642 </v>
   <v>       0.43764441       0.11945749       0.30209219 </v>
   <v>       0.31248126       0.20537209       0.47861743 </v>
   <v>       0.68723165       0.61802578       0.16898156 </v>
   <v>       0.68735567       0.95594076       0.56517802 </v>
   <v>       0.68746171       0.28589135       0.25796273 </v>
   <v>       0.06217677       0.87605940       0.78623741 </v>
   <v>       0.18748047       0.45333777       0.34639927 </v>
   <v>       0.56285769       0.20376112       0.34644410 </v>
   <v>       0.68735493       0.28987621       0.60962975 </v>
   <v>       0.81211804       0.70532257       0.47861652 </v>
   <v>       0.81254100       0.20332760       0.34648818 </v>
   <v>       0.31294769       0.70794909       0.69788471 </v>
   <v>       0.43717884       0.62262031       0.52129285 </v>
   <v>       0.93752099       0.11969343       0.30205344 </v>
   <v>       0.81288198       0.53417108       0.12684191 </v>
   <v>       0.93786483       0.12601872       0.78623718 </v>
   <v>       0.56270699       0.87129559       0.43477641 </v>
   <v>       0.81226390       0.20562014       0.47865073 </v>
   <v>       0.93772315       0.61977964       0.30204773 </v>
   <v>       0.43776414       0.61820765       0.16900279 </v>
   <v>       0.43794028       0.29234414       0.74216457 </v>
   <v>       0.06251105       0.87162627       0.43493172 </v>
   <v>       0.43710587       0.62648368       0.78621468 </v>
   <v>       0.31309700       0.71061325       0.83111955 </v>
   <v>       0.68756840       0.45183412       0.21380418 </v>
   <v>       0.56243185       0.53499647       0.12677793 </v>
   <v>       0.06283743       0.04382813       0.87335544 </v>
   <v>       0.18704907       0.29345887       0.87310764 </v>
   <v>       0.06254342       0.04228616       0.74218566 </v>
   <v>       0.31261300       0.21008031       0.83097669 </v>
   <v>       0.18766676       0.45834134       0.69803007 </v>
   <v>       0.31286377       0.70522428       0.47853841 </v>
   <v>       0.81209227       0.20858831       0.69788958 </v>
   <v>       0.43764082       0.28786124       0.39027078 </v>
   <v>       0.43743381       0.12164382       0.43477523 </v>
   <v>       0.06285343       0.21003269       0.83094769 </v>
   <v>       0.31226958       0.20703991       0.56509550 </v>
   <v>       0.06252436       0.53444979       0.12680430 </v>
   <v>       0.18768506       0.62150118       0.43485250 </v>
   <v>       0.43751020       0.95640592       0.56486193 </v>
   <v>       0.68778281       0.45497304       0.47864884 </v>
   <v>       0.81213523       0.70631552       0.56511112 </v>
   <v>       0.31249617       0.53565444       0.25794067 </v>
   <v>       0.18760922       0.29037457       0.60965634 </v>
   <v>       0.43725749       0.95773143       0.69795441 </v>
   <v>       0.81265021       0.87423862       0.65355199 </v>
   <v>       0.18758661       0.12231468       0.52132312 </v>
   <v>       0.81284468       0.86957737       0.30207362 </v>
   <v>       0.18773553       0.95346864       0.34636132 </v>
   <v>       0.06175144       0.71000340       0.83105676 </v>
   <v>       0.81219158       0.04003743       0.60962769 </v>
   <v>       0.43731483       0.79387150       0.87309986 </v>
   <v>       0.43747870       0.95551705       0.47871374 </v>
   <v>       0.81221710       0.53565229       0.25788693 </v>
   <v>       0.81222165       0.54359468       0.87295704 </v>
   <v>       0.31247221       0.03578134       0.25791713 </v>
   <v>       0.31258308       0.87408175       0.65341860 </v>
   <v>       0.68739958       0.12204560       0.52127574 </v>
   <v>       0.06215125       0.20822546       0.69805426 </v>
   <v>       0.06256482       0.70508360       0.47866973 </v>
   <v>       0.81247267       0.03756523       0.39008942 </v>
   <v>       0.56291023       0.70162925       0.21402846 </v>
   <v>       0.18741510       0.79204144       0.74213225 </v>
   <v>       0.68787723       0.62568746       0.78587101 </v>
   <v>       0.93703572       0.95657527       0.56517516 </v>
   <v>       0.81293857       0.04256962       0.74218814 </v>
  </varray>
 </structure>
 <calculation>
  <scstep>
   <time name="dav">  147.24  147.24</time>
   <time name="total">  147.69  147.69</time>
   <energy>
    <i name="alphaZ">  16277.55763135 </i>
    <i name="ewald"> 775714.68019508 </i>
    <i name="hartreedc">-965948.61895864 </i>
    <i name="XCdc">  -6524.31965975 </i>
    <i name="pawpsdc"> 162148.49262465 </i>
    <i name="pawaedc">-159453.03229289 </i>
    <i name="eentropy">     -0.95401097 </i>
    <i name="bandstr">  39731.74974207 </i>
    <i name="atom"> 168497.18126305 </i>
    <i name="e_fr_energy">  30442.73653394 </i>
    <i name="e_wo_entrp">  30443.69054491 </i>
    <i name="e_0_energy">  30443.21353943 </i>
   </energy>
  </scstep>
  <scstep>
   <time name="dav">  141.79  141.79</time>
   <time name="total">  141.79  141.79</time>
   <energy>
    <i name="e_fr_energy">   1535.60267830 </i>
    <i name="e_wo_entrp">   1536.98073309 </i>
    <i name="e_0_energy">   1536.29170569 </i>
   </energy>
  </scstep>
  <scstep>
   <time name="dav">  175.93  175.93</time>
   <time name="total">  175.93  175.93</time>
   <energy>
    <i name="e_fr_energy">  -1895.89867885 </i>
    <i name="e_wo_entrp">  -1892.38561676 </i>
    <i name="e_0_energy">  -1894.14214781 </i>
   </energy>
  </scstep>
  <scstep>
   <time name="dav">  218.15  218.15</time>
   <time name="total">  218.15  218.15</time>
   <energy>
    <i name="e_fr_energy">  -2609.79400498 </i>
    <i name="e_wo_entrp">  -2606.34169228 </i>
    <i name="e_0_energy">  -2608.06784863 </i>
   </energy>
  </scstep>
  <scstep>
   <time name="dav">  206.31  206.31</time>
   <time name="total">  211.01  211.00</time>
   <energy>
    <i name="e_fr_energy">  -2739.43150597 </i>
    <i name="e_wo_entrp">  -2735.90509352 </i>
    <i name="e_0_energy">  -2737.66829975 </i>
   </energy>
  </scstep>
  <scstep>
   <time name="diag">   31.45   31.45</time>
   <time name="diis">   75.59   75.59</time>
   <time name="orth">    8.76    8.76</time>
   <time name="total">  121.08  121.08</time>
   <energy>
    <i name="e_fr_energy">  -6832.71821175 </i>
    <i name="e_wo_entrp">  -6828.98979421 </i>
    <i name="e_0_energy">  -6830.85400298 </i>
   </energy>
  </scstep>
  <scstep>
   <time name="diag">   29.92   29.91</time>
   <time name="diis">   77.91   77.91</time>
   <time name="orth">    8.87    8.87</time>
   <time name="total">  121.61  121.61</time>
   <energy>
    <i name="e_fr_energy">  -6768.56942488 </i>
    <i name="e_wo_entrp">  -6764.27278783 </i>
    <i name="e_0_energy">  -6766.42110636 </i>
   </energy>
  </scstep>
  <scstep>
[...]
   <v>      -0.00446274       0.00412367      -0.00167423 </v>
   <v>      -0.00257587      -0.00276193      -0.00106730 </v>
   <v>      -0.00010814       0.00337203       0.00350576 </v>
   <v>      -0.00261289      -0.00322587      -0.00441833 </v>
   <v>      -0.00053784      -0.00647305      -0.00185679 </v>
   <v>      -0.00055101       0.00099685      -0.00168718 </v>
   <v>      -0.00180930       0.00192802      -0.00138517 </v>
   <v>      -0.00064305       0.00250638      -0.00519804 </v>
   <v>      -0.00049782       0.00263164       0.00358011 </v>
   <v>       0.00860145       0.00810272      -0.00255027 </v>
   <v>      -0.00030846       0.00190362      -0.00256755 </v>
   <v>       0.00067140       0.00124827      -0.00611751 </v>
   <v>      -0.00334449      -0.00532228       0.00794037 </v>
   <v>      -0.00001477      -0.00084450       0.00131296 </v>
   <v>      -0.00502490       0.00118490      -0.00339523 </v>
   <v>      -0.00391043      -0.00295088       0.00132980 </v>
   <v>      -0.00044842      -0.00163442       0.00627925 </v>
   <v>      -0.00135043       0.00234058       0.00170848 </v>
   <v>       0.00768932       0.00122591      -0.00238691 </v>
   <v>      -0.01167242      -0.00438561      -0.00491399 </v>
   <v>       0.00076622      -0.00090806       0.00392626 </v>
   <v>      -0.00158087      -0.00238235       0.00170170 </v>
   <v>      -0.00180072      -0.00311298      -0.00028249 </v>
   <v>       0.00191048       0.00094367      -0.00359031 </v>
   <v>       0.00011953       0.00409003       0.00178174 </v>
   <v>      -0.00112286       0.00041334      -0.00516333 </v>
   <v>      -0.00101479       0.00157262       0.00095044 </v>
   <v>       0.00160869      -0.00151306       0.00754201 </v>
   <v>       0.00245345      -0.00343839      -0.00286004 </v>
   <v>       0.00085104      -0.00013933       0.00056864 </v>
   <v>       0.00055275      -0.00398738       0.00167248 </v>
   <v>      -0.00040921      -0.00253869      -0.00151715 </v>
   <v>      -0.00025187       0.00093410      -0.00390001 </v>
   <v>       0.00409572      -0.00555361      -0.00263633 </v>
   <v>       0.00008031       0.00182726       0.00348805 </v>
   <v>      -0.00318787      -0.00264588      -0.00947913 </v>
   <v>       0.00167282      -0.00097053       0.00072801 </v>
   <v>       0.00037256       0.00250952       0.00392554 </v>
   <v>      -0.00412563      -0.00397394      -0.00955875 </v>
   <v>      -0.00038071      -0.00298704       0.00638596 </v>
   <v>      -0.00499710      -0.00378937       0.00249866 </v>
   <v>      -0.00064110      -0.00400856      -0.00039524 </v>
   <v>       0.00042202      -0.00086698      -0.00532776 </v>
   <v>      -0.00230894       0.00265852      -0.00812866 </v>
   <v>      -0.00097916      -0.00309382       0.00034407 </v>
   <v>      -0.00007135       0.00088539       0.00126158 </v>
   <v>      -0.00359076      -0.00015794       0.00018475 </v>
   <v>       0.00070192       0.00339392      -0.00010427 </v>
   <v>      -0.00051649      -0.00035624       0.00236538 </v>
   <v>      -0.00261144       0.00110266      -0.00046471 </v>
   <v>      -0.00142507      -0.00300072      -0.00251914 </v>
   <v>      -0.00345662       0.00067845      -0.00618057 </v>
   <v>      -0.00112294       0.00305868       0.00200285 </v>
   <v>       0.00542264       0.00341350       0.00004562 </v>
   <v>       0.00017693      -0.00046289      -0.00336155 </v>
   <v>      -0.00094008      -0.00391339       0.00322218 </v>
   <v>       0.00032058      -0.00033877       0.00742631 </v>
   <v>       0.00085690      -0.00254887       0.00274138 </v>
   <v>       0.00039008       0.00063100       0.00251457 </v>
   <v>       0.00063683      -0.00131814      -0.01038653 </v>
   <v>      -0.00027883      -0.00254812       0.00232230 </v>
   <v>       0.00082917      -0.00114167       0.00257842 </v>
   <v>      -0.01149789      -0.00492619       0.00003647 </v>
   <v>      -0.00549664       0.00810700       0.00006098 </v>
   <v>      -0.00187513       0.00090329       0.00797321 </v>
   <v>      -0.00188474      -0.00166146       0.00621754 </v>
   <v>      -0.00006627       0.00077906       0.00241046 </v>
   <v>      -0.00008534      -0.00011279      -0.00487590 </v>
   <v>      -0.00097746      -0.00140693      -0.00529516 </v>
   <v>      -0.00796708      -0.00075170      -0.00945713 </v>
   <v>       0.00164448      -0.00402261       0.00292275 </v>
   <v>       0.00237200      -0.00362682       0.00824783 </v>
   <v>      -0.00015023      -0.00119334      -0.00290513 </v>
   <v>      -0.00360174      -0.00303138       0.00252378 </v>
   <v>      -0.00309185      -0.00169538       0.00671439 </v>
   <v>       0.00205210      -0.00210459       0.00165217 </v>
   <v>       0.00115484       0.00153299       0.00064976 </v>
   <v>       0.00361371      -0.00044057       0.00832271 </v>
   <v>      -0.00083938       0.00141425       0.00242840 </v>
   <v>       0.00240519      -0.00128139       0.00701860 </v>
   <v>      -0.00031060       0.00162591       0.00069278 </v>
   <v>      -0.00044070       0.00002370       0.00274383 </v>
   <v>      -0.00059206       0.00025952      -0.00017095 </v>
   <v>       0.00194211       0.00676382      -0.00866300 </v>
   <v>       0.00931811      -0.00473195       0.00106746 </v>
   <v>      -0.00542687      -0.00129975       0.00879207 </v>
   <v>      -0.00220997      -0.00120859      -0.00149404 </v>
   <v>       0.00100464       0.00236779      -0.00052267 </v>
   <v>       0.00259003      -0.00140592      -0.00010924 </v>
   <v>       0.00008318      -0.00184639      -0.00601162 </v>
   <v>      -0.00120184       0.00301307       0.00604566 </v>
   <v>       0.00697571      -0.00002563      -0.00602218 </v>
   <v>      -0.00058537       0.00312491       0.00151532 </v>
   <v>       0.00540985       0.00329638       0.00248436 </v>
   <v>      -0.00013261      -0.00112935      -0.00140713 </v>
   <v>       0.00044641       0.00291899      -0.00481313 </v>
   <v>       0.00055947      -0.00323494       0.00616902 </v>
   <v>       0.00216662      -0.00008214       0.00341682 </v>
   <v>      -0.00048596       0.00011859       0.00049282 </v>
   <v>       0.00054308       0.00129172      -0.00723095 </v>
   <v>       0.00126308      -0.00108404       0.00211853 </v>
   <v>       0.00120314       0.00149654      -0.00376635 </v>
   <v>      -0.00114625       0.00338605       0.00380765 </v>
   <v>       0.00004021       0.00392010      -0.00654548 </v>
   <v>      -0.00100765       0.00476904      -0.00313545 </v>
   <v>      -0.00111101       0.00340389      -0.00062053 </v>
   <v>       0.00200048      -0.00114206      -0.00266754 </v>
   <v>       0.00120217       0.00112111       0.00134274 </v>
   <v>       0.00073036       0.00404067      -0.00308605 </v>
   <v>      -0.00215723      -0.00187436       0.00141533 </v>
   <v>       0.00024041       0.00149095      -0.00274458 </v>
   <v>       0.00022012       0.00328133      -0.00008678 </v>
   <v>       0.00015852       0.00543053       0.00564324 </v>
   <v>       0.00156470      -0.00291317      -0.00410750 </v>
   <v>      -0.00294825      -0.00580515       0.00072519 </v>
   <v>      -0.00159527       0.00028083      -0.00382231 </v>
   <v>      -0.00181590       0.00261589      -0.00509117 </v>
   <v>       0.00293530      -0.00552805      -0.00332212 </v>
   <v>       0.00455887      -0.00305567       0.00821228 </v>
   <v>       0.00349207       0.00235972       0.00549930 </v>
   <v>       0.00127805      -0.00326643      -0.00268854 </v>
   <v>       0.00435680      -0.00235636       0.00850199 </v>
   <v>       0.00099959       0.00259809      -0.00936653 </v>
   <v>       0.00049707      -0.00047643       0.00246776 </v>
   <v>      -0.00061110       0.00357523      -0.00550868 </v>
   <v>      -0.00013544      -0.00065468      -0.00556158 </v>
   <v>      -0.00187960      -0.00220830      -0.00105116 </v>
   <v>       0.00215918       0.00333192      -0.00474823 </v>
   <v>      -0.00082920       0.00089216       0.00273256 </v>
   <v>       0.00030082       0.00142647      -0.00410601 </v>
   <v>       0.00606307      -0.00365303       0.00546757 </v>
   <v>       0.00091709       0.00065063      -0.00463527 </v>
   <v>       0.00084427      -0.00176464       0.00718714 </v>
   <v>       0.00326979       0.00229382      -0.00567916 </v>
   <v>       0.00237535      -0.00336328      -0.00082821 </v>
   <v>       0.00146532      -0.00851366       0.00432864 </v>
   <v>       0.00045168       0.00121936      -0.00670855 </v>
   <v>       0.00092917       0.00022660       0.00073323 </v>
   <v>      -0.00031652      -0.00198886       0.00407831 </v>
   <v>      -0.00019232       0.00245832      -0.00712516 </v>
   <v>      -0.00128060       0.00207883      -0.00281583 </v>
   <v>      -0.00007864       0.00164763      -0.00617370 </v>
   <v>       0.00077742       0.00170672      -0.00180972 </v>
   <v>       0.00084514      -0.00268870       0.00239116 </v>
   <v>      -0.00084729      -0.00104400       0.00044053 </v>
   <v>       0.00237019       0.00174182      -0.00605184 </v>
   <v>       0.00035960      -0.00602394       0.00651175 </v>
   <v>       0.00106876      -0.00230920       0.00290346 </v>
   <v>      -0.00356017      -0.00129622       0.00886136 </v>
   <v>      -0.00031454       0.00139072      -0.00533633 </v>
   <v>      -0.00097935       0.00329943       0.00028434 </v>
   <v>      -0.00175851       0.00218972       0.00435737 </v>
   <v>      -0.00008200       0.00122992       0.00082453 </v>
   <v>       0.00049488       0.00304023      -0.00045276 </v>
   <v>      -0.00115789      -0.00166086       0.00558012 </v>
   <v>       0.00603436       0.00600093       0.00143410 </v>
   <v>       0.00033848      -0.00137840       0.00441474 </v>
   <v>      -0.00101695      -0.00259377       0.00375444 </v>
   <v>      -0.00129913       0.00161079      -0.00423080 </v>
   <v>      -0.00148269       0.00027552      -0.00737415 </v>
   <v>      -0.00110311       0.00139259      -0.00320022 </v>
   <v>       0.00002876      -0.00236077       0.00518222 </v>
   <v>      -0.00024138       0.00218572      -0.00425122 </v>
   <v>       0.00052816      -0.00132082      -0.00334801 </v>
   <v>       0.00014418       0.00135320       0.00109156 </v>
   <v>      -0.00383175       0.00327731      -0.00091566 </v>
   <v>       0.00068628       0.00113341      -0.00416973 </v>
   <v>      -0.00256099      -0.00379972       0.00598378 </v>
   <v>       0.00243032       0.00010198       0.00562299 </v>
   <v>      -0.00417960       0.01583398       0.00083764 </v>
   <v>       0.00092224       0.00595596      -0.00358735 </v>
   <v>      -0.00031214       0.00058620      -0.00533362 </v>
   <v>      -0.00255904      -0.00095075      -0.00500689 </v>
   <v>       0.00070731      -0.00105731      -0.00397738 </v>
   <v>       0.00121485       0.00407011      -0.00145559 </v>
   <v>      -0.00195668       0.00196016       0.00134358 </v>
   <v>      -0.00071657       0.00040178       0.00320581 </v>
   <v>       0.00184824       0.00107658       0.00566392 </v>
   <v>      -0.00195617      -0.00009483       0.00114743 </v>
   <v>       0.00254089      -0.00119294       0.00681215 </v>
   <v>       0.00158422      -0.00227678       0.00496066 </v>
   <v>      -0.00038661      -0.00013279       0.00086110 </v>
   <v>       0.00119909       0.00162706      -0.00663324 </v>
   <v>       0.00108619      -0.00531518      -0.00105235 </v>
   <v>       0.00102983       0.00185091      -0.00617642 </v>
   <v>      -0.00034305      -0.00086176       0.00130148 </v>
   <v>      -0.00047970      -0.00053509      -0.00515448 </v>
   <v>       0.01624331      -0.00679381       0.00220778 </v>
   <v>      -0.00020289       0.00494983       0.00169834 </v>
   <v>       0.00048600       0.00118049       0.00103992 </v>
   <v>       0.00042579       0.00111834      -0.00459865 </v>
   <v>      -0.00022218      -0.00277168      -0.00009880 </v>
   <v>       0.00195056       0.00126075       0.00293340 </v>
   <v>      -0.00132603      -0.00088409       0.00153047 </v>
   <v>       0.00153365       0.00304092       0.00143342 </v>
   <v>       0.00729437       0.00445513      -0.00187156 </v>
   <v>       0.00025725       0.00103333       0.00129913 </v>
   <v>      -0.00201148      -0.00308185       0.00397770 </v>
   <v>      -0.00076606       0.00573856      -0.00192601 </v>
   <v>       0.00049481       0.00005642      -0.00385319 </v>
   <v>       0.00069381       0.00123952      -0.00906851 </v>
   <v>       0.00172925      -0.00288797       0.00323400 </v>
   <v>       0.00167292       0.00266158       0.00272467 </v>
   <v>      -0.00051895       0.00418613      -0.00697141 </v>
   <v>      -0.00102959       0.00458985      -0.00695057 </v>
   <v>       0.00212074       0.00318143      -0.00466333 </v>
   <v>       0.00078239      -0.00287821       0.00758588 </v>
   <v>      -0.00042080       0.00201462       0.00233828 </v>
   <v>      -0.00131438      -0.00258572       0.00061856 </v>
   <v>       0.00118459      -0.00252098      -0.00306052 </v>
   <v>       0.00059925       0.00377080      -0.00271954 </v>
   <v>       0.00549991       0.00273023      -0.00223623 </v>
   <v>      -0.00064977      -0.00420366       0.00586627 </v>
   <v>      -0.00286761      -0.00301130       0.00508857 </v>
   <v>      -0.00406228      -0.00139504       0.00583871 </v>
   <v>      -0.00123265      -0.00651966       0.00022112 </v>
   <v>       0.00087050      -0.00043176       0.00633478 </v>
   <v>      -0.00293461       0.00514705       0.00126671 </v>
   <v>       0.00104873      -0.00244855       0.00700036 </v>
   <v>       0.00192194      -0.00024340       0.00292070 </v>
   <v>       0.00190479       0.00006829       0.00357434 </v>
   <v>      -0.00154129      -0.00318684      -0.00347600 </v>
   <v>      -0.00145166      -0.00246776      -0.00025251 </v>
   <v>      -0.00584815      -0.00184702      -0.00627160 </v>
   <v>       0.00049117      -0.00097484       0.00218760 </v>
   <v>       0.00041855       0.00241904      -0.00053047 </v>
   <v>      -0.00077275      -0.00476583      -0.00693581 </v>
   <v>       0.00002889      -0.00258638       0.00213372 </v>
   <v>      -0.00019236       0.00077213      -0.00294328 </v>
   <v>      -0.00126140      -0.00115270       0.00250712 </v>
   <v>      -0.00046203      -0.00178257       0.00649951 </v>
   <v>       0.00057660      -0.00272841      -0.00380598 </v>
   <v>       0.00404264      -0.00369843       0.00077001 </v>
   <v>      -0.00019020       0.00181862      -0.00510996 </v>
   <v>      -0.00035623       0.00132856      -0.00006072 </v>
   <v>      -0.00017506      -0.00236169      -0.00722828 </v>
   <v>       0.00015105       0.00255512       0.00050048 </v>
   <v>      -0.00229611      -0.00364747       0.00252201 </v>
   <v>       0.00139220       0.00062931       0.00257073 </v>
   <v>       0.00136828       0.00407940      -0.00817337 </v>
   <v>       0.00126792      -0.00139964      -0.00124034 </v>
   <v>      -0.00063687       0.00288161      -0.00479042 </v>
   <v>       0.00043037      -0.00262513      -0.00008889 </v>
   <v>       0.00220974       0.00091330       0.00521929 </v>
   <v>      -0.00107723      -0.00145349       0.00449043 </v>
   <v>       0.00163491      -0.00000263       0.00372806 </v>
   <v>      -0.00014913       0.00000032       0.00266821 </v>
   <v>       0.00220344       0.00219850      -0.00075308 </v>
   <v>      -0.00221440      -0.00226530       0.01161182 </v>
   <v>       0.00199105      -0.00255094       0.00276856 </v>
   <v>      -0.00104161       0.00154171       0.00325490 </v>
   <v>       0.00019857      -0.00376298       0.01090648 </v>
  </varray>
  <varray name="stress" >
   <v>      -1.36666521      -0.01217405      -0.02071730 </v>
   <v>      -0.01217402      -0.01463040      -2.12132516 </v>
   <v>      -0.02071729      -2.12132447      -3.44282642 </v>
  </varray>
  <energy>
   <i name="e_fr_energy">  -2325.86571564 </i>
   <i name="e_wo_entrp">  -2323.10660703 </i>
   <i name="e_0_energy">     -5.51821722 </i>
  </energy>
  <time name="totalsc"> 1985.23 1985.24</time>
 </calculation>
 <calculation>
  <scstep>
   <time name="dav">  136.30  136.30</time>
   <time name="total">  141.72  141.72</time>
   <energy>
    <i name="alphaZ">  16277.55763135 </i>
    <i name="ewald"> 772328.69934407 </i>
    <i name="hartreedc">-959440.96024833 </i>
    <i name="XCdc">  -6671.97841792 </i>
    <i name="pawpsdc"> 201522.23228178 </i>
    <i name="pawaedc">-199082.23771329 </i>
    <i name="eentropy">     -5.52101214 </i>
    <i name="bandstr">   4249.16941424 </i>
    <i name="atom"> 168497.18126305 </i>
    <i name="e_fr_energy">  -2325.85745720 </i>
    <i name="e_wo_entrp">  -2320.33644506 </i>
    <i name="e_0_energy">  -2323.09695113 </i>
   </energy>
  </scstep>
  <scstep>
   <time name="diag">   28.94   28.94</time>
   <time name="diis">   46.46   46.46</time>
   <time name="orth">    8.85    8.85</time>
   <time name="total">   90.17   90.17</time>
   <energy>
    <i name="e_fr_energy">  -2328.06781627 </i>
    <i name="e_wo_entrp">  -2322.65833084 </i>
    <i name="e_0_energy">  -2325.36307355 </i>
   </energy>
  </scstep>
  <scstep>
   <time name="diag">   30.05   30.05</time>
   <time name="diis">   49.19   49.19</time>
   <time name="orth">    8.78    8.78</time>
   <time name="total">   93.47   93.47</time>
   <energy>
    <i name="e_fr_energy">  -2326.12399062 </i>
    <i name="e_wo_entrp">  -2320.61439710 </i>
    <i name="e_0_energy">  -2323.36919386 </i>
   </energy>
  </scstep>
  <scstep>
   <time name="diag">   29.42   29.42</time>
   <time name="diis">   44.53   44.53</time>
   <time name="orth">    8.73    8.73</time>
   <time name="total">   88.82   88.82</time>
   <energy>
    <i name="e_fr_energy">  -2326.13278332 </i>
    <i name="e_wo_entrp">  -2320.59914115 </i>
    <i name="e_0_energy">  -2323.36596224 </i>
   </energy>
  </scstep>
  <scstep>
   <time name="diag">   30.11   30.11</time>
   <time name="diis">   58.56   58.56</time>
   <time name="orth">    8.80    8.80</time>
   <time name="total">  102.94  102.94</time>
   <energy>
    <i name="e_fr_energy">  -2325.99006105 </i>
    <i name="e_wo_entrp">  -2320.45683206 </i>
    <i name="e_0_energy">  -2323.22344656 </i>
   </energy>
  </scstep>
  <scstep>
   <time name="diag">   30.16   30.16</time>
   <time name="diis">   45.12   45.12</time>
   <time name="orth">    8.66    8.66</time>
   <time name="total">   90.31   90.31</time>
   <energy>
    <i name="e_fr_energy">  -2325.94037641 </i>
    <i name="e_wo_entrp">  -2320.43860838 </i>
    <i name="e_0_energy">  -2323.18949240 </i>
   </energy>
  </scstep>
  <scstep>
   <time name="diag">   29.76   29.76</time>
   <time name="diis">   44.90   44.90</time>
   <time name="orth">    8.79    8.79</time>
   <time name="total">   89.40   89.40</time>
   <energy>
    <i name="e_fr_energy">  -2325.92328827 </i>
    <i name="e_wo_entrp">  -2320.39004396 </i>
    <i name="e_0_energy">  -2323.15666612 </i>
   </energy>
  </scstep>
  <scstep>
   <time name="diag">   29.59   29.59</time>
   <time name="diis">   44.85   44.85</time>
   <time name="orth">    8.75    8.75</time>
   <time name="total">   89.61   89.61</time>
   <energy>
    <i name="e_fr_energy">  -2325.94455255 </i>
    <i name="e_wo_entrp">  -2320.42657179 </i>
    <i name="e_0_energy">  -2323.18556217 </i>
   </energy>
  </scstep>
  <scstep>
   <time name="diag">   29.79   29.79</time>
   <time name="diis">   44.69   44.68</time>
   <time name="orth">    8.82    8.82</time>
   <time name="total">   89.11   89.11</time>
   <energy>
    <i name="e_fr_energy">  -2325.87129216 </i>
    <i name="e_wo_entrp">  -2320.35352927 </i>
    <i name="e_0_energy">  -2323.11241072 </i>
   </ener