unknown system                          
            1
     9.726678    0.000000    0.000000
     0.000000    8.423550    0.000000
     0.000000    0.000000   45.000000
   Fe   Mn
 273  15
Direct configuration=     1
   0.43749494  0.45339834  0.34648094
   0.31259876  0.36932975  0.30200540
   0.18730685  0.61786699  0.16909690
   0.93750194  0.45385480  0.34641953
   0.93752815  0.95352328  0.34637929
   0.18747723  0.11777597  0.16907745
   0.43714326  0.12254668  0.52132821
   0.68711200  0.12621330  0.78615130
   0.93783285  0.62602585  0.78621504
   0.31245858  0.20343870  0.34644319
   0.56249254  0.37282521  0.52135620
   0.18766826  0.45162124  0.21380385
   0.06326508  0.54380105  0.87315508
   0.81241035  0.53715077  0.39024030
   0.43723704  0.12693193  0.78612442
   0.43744431  0.62165109  0.43487086
   0.31241305  0.86968714  0.30212774
   0.68767709  0.45388068  0.34650584
   0.43744598  0.95360227  0.34648552
   0.56234001  0.03733101  0.39035783
   0.56223017  0.03556709  0.25790290
   0.43749384  0.61948827  0.30204426
   0.93749626  0.45151773  0.21380755
   0.06264021  0.03577596  0.25796356
   0.93765466  0.78742908  0.39031338
   0.18765210  0.12468975  0.65351248
   0.93772164  0.12140453  0.43486363
   0.06264863  0.70826253  0.69792572
   0.18776468  0.95982337  0.83114505
   0.31234740  0.54066746  0.60968721
   0.81252317  0.36809017  0.16904433
   0.31265559  0.37609310  0.78622579
   0.81222678  0.70831446  0.69796737
   0.93744181  0.62387891  0.65350655
   0.56219048  0.36776107  0.16897731
   0.18720661  0.62576644  0.78606695
   0.18723702  0.28468168  0.12686764
   0.18752885  0.62425656  0.65353986
   0.31242121  0.03453980  0.12689481
   0.18731086  0.45981515  0.83090898
   0.81264034  0.70899118  0.83123857
   0.68719973  0.12129414  0.43513162
   0.81276725  0.87092214  0.43482079
   0.93726376  0.95209115  0.21383732
   0.81248132  0.86832067  0.16898692
   0.93750168  0.45472507  0.47860125
   0.31242920  0.36834405  0.16895961
   0.56213409  0.86943681  0.30197116
   0.18673364  0.79458455  0.87329964
   0.81275292  0.53998310  0.60972262
   0.06244274  0.03457379  0.12688607
   0.18760570  0.12600781  0.78621499
   0.93766895  0.95837942  0.69796413
   0.06225480  0.86770040  0.16905703
   0.93776744  0.12240039  0.52134127
   0.68785828  0.95527072  0.47861362
   0.43743763  0.45623795  0.56504068
   0.06242201  0.54053628  0.60959065
   0.56204752  0.21056989  0.83094078
   0.68757083  0.95189112  0.21382382
   0.06268791  0.36782661  0.16896433
   0.31266983  0.37416683  0.65357149
   0.06248902  0.20635186  0.56502210
   0.93705672  0.29203791  0.74204914
   0.68708184  0.96025552  0.83107962
   0.31259189  0.53752770  0.39016811
   0.31257387  0.87633435  0.78629062
   0.93717548  0.96044010  0.83112603
   0.18739053  0.78612585  0.25801235
   0.81234807  0.21059353  0.83119071
   0.43769809  0.78727964  0.39027709
   0.56246952  0.87217345  0.52123919
   0.68812302  0.46044411  0.83101740
   0.31210521  0.53416190  0.12685459
   0.56256467  0.20544351  0.47872428
   0.68747288  0.29252399  0.74210560
   0.31162071  0.04383778  0.87323529
   0.56276654  0.87632519  0.78619592
   0.81257827  0.03557590  0.25797915
   0.93786519  0.78481732  0.12691596
   0.56211380  0.37612900  0.78604727
   0.68771466  0.78737499  0.39025658
   0.31259616  0.37252484  0.52134593
   0.18795866  0.95638814  0.56519682
   0.93743640  0.79001722  0.60964345
   0.81287788  0.70173859  0.21378571
   0.93707899  0.46031906  0.83110278
   0.06243275  0.53561554  0.25796062
   0.81264394  0.20644700  0.56506467
   0.56250710  0.03534318  0.12682288
   0.93755681  0.12428800  0.65361183
   0.68757050  0.29228277  0.87323988
   0.68725273  0.79225809  0.74203161
   0.68716076  0.45587592  0.56506064
   0.06287423  0.53754082  0.39030381
   0.06249904  0.87270152  0.52125272
   0.68761409  0.45854428  0.69796936
   0.56221289  0.53747766  0.39029808
   0.06269267  0.20535653  0.47863424
   0.56242182  0.70484189  0.47859643
   0.18727087  0.29235180  0.74214219
   0.43769134  0.79208502  0.74210274
   0.06230890  0.20341884  0.34652127
   0.18743188  0.11966673  0.30210289
   0.81263180  0.37416642  0.65350943
   0.18777489  0.62240790  0.52124356
   0.56327585  0.04340188  0.87323661
   0.81236687  0.04360420  0.87329114
   0.06204312  0.37428698  0.65356743
   0.06252783  0.70600672  0.56480466
   0.56208895  0.54231139  0.74201333
   0.56254384  0.54016311  0.60969676
   0.06278001  0.04029840  0.60965894
   0.93709754  0.79218191  0.74210722
   0.93773149  0.29012047  0.60966920
   0.81218424  0.54226117  0.74213538
   0.06235969  0.37267415  0.52126737
   0.31263879  0.03752302  0.39028308
   0.31199385  0.87130887  0.43487755
   0.31208803  0.87205936  0.52125770
   0.93700285  0.95531184  0.47868848
   0.31255590  0.54280760  0.87319766
   0.06254229  0.37165257  0.43487165
   0.31243356  0.86805302  0.16905624
   0.56247370  0.37165587  0.43480664
   0.56267464  0.87411869  0.65348435
   0.93747161  0.61767490  0.16906162
   0.93742857  0.62226723  0.52134364
   0.68722770  0.11815659  0.16909932
   0.43764070  0.78462736  0.12680796
   0.56250663  0.71039496  0.83130928
   0.56229538  0.20190815  0.21380033
   0.81242546  0.37275019  0.52135669
   0.31251841  0.70612463  0.56514766
   0.18730715  0.79056663  0.60968490
   0.06225834  0.36980222  0.30201782
   0.56284770  0.70560700  0.56506139
   0.68728424  0.12423165  0.65363631
   0.93767009  0.11796972  0.16912692
   0.68741798  0.61970204  0.30210213
   0.06274721  0.20169357  0.21379416
   0.06239500  0.70167391  0.21380496
   0.31260160  0.37146341  0.43494667
   0.56235905  0.04032184  0.60965528
   0.43748487  0.11794495  0.16905536
   0.18767752  0.45643495  0.56512786
   0.56261879  0.86759416  0.16893866
   0.06284839  0.70352523  0.34648992
   0.68761844  0.62244278  0.52133107
   0.68747179  0.62400676  0.65350381
   0.43769488  0.95935059  0.83119560
   0.18774221  0.12148620  0.43487013
   0.43758155  0.12401074  0.65359891
   0.43709112  0.46060314  0.83107145
   0.56233187  0.04250960  0.74214550
   0.56245634  0.20674197  0.56517770
   0.43761536  0.62416061  0.65345128
   0.93871880  0.79366352  0.87331143
   0.81248482  0.03446548  0.12691746
   0.93762436  0.45581748  0.56513005
   0.18769543  0.61952793  0.30203395
   0.68763605  0.11946289  0.30202070
   0.81244409  0.37152289  0.43480710
   0.68707291  0.78479328  0.12682411
   0.68729378  0.28704566  0.39025860
   0.43750325  0.95200597  0.21377870
   0.93743101  0.29294604  0.87317901
   0.56284128  0.37411995  0.65358575
   0.31246329  0.04199611  0.74200110
   0.56264389  0.53565663  0.25792772
   0.81265400  0.87676807  0.78606167
   0.18750289  0.95594669  0.47855543
   0.06292412  0.86947867  0.30197110
   0.68744926  0.95355813  0.34639224
   0.56176216  0.54318682  0.87324749
   0.93763048  0.28595910  0.25797650
   0.43772965  0.78576720  0.25801768
   0.81257550  0.36991224  0.30202139
   0.31255174  0.70312609  0.34645598
   0.81231145  0.37586361  0.78627759
   0.43764621  0.79040244  0.60963062
   0.68730127  0.28470364  0.12686525
   0.68722398  0.79409667  0.87326481
   0.43742274  0.29047363  0.60976472
   0.31256734  0.54217523  0.74213201
   0.56286265  0.36913937  0.30209838
   0.31265487  0.04035378  0.60964429
   0.31255262  0.20784983  0.69785308
   0.81244042  0.70373108  0.34649482
   0.56225636  0.70361712  0.34642397
   0.56229647  0.70822203  0.69788399
   0.43782815  0.28493065  0.12686109
   0.93761558  0.45820132  0.69777133
   0.43738735  0.45816664  0.69781407
   0.18752946  0.28535714  0.25794827
   0.93754091  0.28453721  0.12686040
   0.18756251  0.95196393  0.21384854
   0.06279483  0.37536098  0.78609805
   0.31232978  0.20176544  0.21382050
   0.06245315  0.87433423  0.65353088
   0.18702193  0.78705351  0.39022791
   0.18730135  0.78470322  0.12689371
   0.43759386  0.28529150  0.25795676
   0.18763774  0.95807340  0.69796437
   0.68757595  0.95846763  0.69788726
   0.18731938  0.45500748  0.47859148
   0.31226030  0.70188095  0.21382105
   0.68747933  0.78524218  0.25791116
   0.43734214  0.45524347  0.47863250
   0.68764908  0.62130759  0.43490383
   0.43729995  0.45198019  0.21381534
   0.06272978  0.03778410  0.39028950
   0.93759491  0.28724083  0.39027999
   0.56269563  0.20811714  0.69796882
   0.93729565  0.62123591  0.43489315
   0.06303307  0.54227101  0.74202316
   0.43771380  0.29304749  0.87312423
   0.18758330  0.28787560  0.39028414
   0.93758842  0.78531305  0.25793066
   0.81270823  0.87226162  0.52137660
   0.81282307  0.20187040  0.21386606
   0.68773618  0.78974905  0.60969642
   0.43764441  0.11945749  0.30209219
   0.31248126  0.20537209  0.47861743
   0.68723165  0.61802578  0.16898156
   0.68735567  0.95594076  0.56517802
   0.68746171  0.28589135  0.25796273
   0.06217677  0.87605940  0.78623741
   0.18748047  0.45333777  0.34639927
   0.56285769  0.20376112  0.34644410
   0.68735493  0.28987621  0.60962975
   0.81211804  0.70532257  0.47861652
   0.81254100  0.20332760  0.34648818
   0.31294769  0.70794909  0.69788471
   0.43717884  0.62262031  0.52129285
   0.93752099  0.11969343  0.30205344
   0.81288198  0.53417108  0.12684191
   0.93786483  0.12601872  0.78623718
   0.56270699  0.87129559  0.43477641
   0.81226390  0.20562014  0.47865073
   0.93772315  0.61977964  0.30204773
   0.43776414  0.61820765  0.16900279
   0.43794028  0.29234414  0.74216457
   0.06251105  0.87162627  0.43493172
   0.43710587  0.62648368  0.78621468
   0.31309700  0.71061325  0.83111955
   0.68756840  0.45183412  0.21380418
   0.56243185  0.53499647  0.12677793
   0.06283743  0.04382813  0.87335544
   0.18704907  0.29345887  0.87310764
   0.06254342  0.04228616  0.74218566
   0.31261300  0.21008031  0.83097669
   0.18766676  0.45834134  0.69803007
   0.31286377  0.70522428  0.47853841
   0.81209227  0.20858831  0.69788958
   0.43764082  0.28786124  0.39027078
   0.43743381  0.12164382  0.43477523
   0.06285343  0.21003269  0.83094769
   0.31226958  0.20703991  0.56509550
   0.06252436  0.53444979  0.12680430
   0.18768506  0.62150118  0.43485250
   0.43751020  0.95640592  0.56486193
   0.68778281  0.45497304  0.47864884
   0.81213523  0.70631552  0.56511112
   0.31249617  0.53565444  0.25794067
   0.18760922  0.29037457  0.60965634
   0.43725749  0.95773143  0.69795441
   0.81265021  0.87423862  0.65355199
   0.18758661  0.12231468  0.52132312
   0.81284468  0.86957737  0.30207362
   0.18773553  0.95346864  0.34636132
   0.06175144  0.71000340  0.83105676
   0.81219158  0.04003743  0.60962769
   0.43731483  0.79387150  0.87309986
   0.43747870  0.95551705  0.47871374
   0.81221710  0.53565229  0.25788693
   0.81222165  0.54359468  0.87295704
   0.31247221  0.03578134  0.25791713
   0.31258308  0.87408175  0.65341860
   0.68739958  0.12204560  0.52127574
   0.06215125  0.20822546  0.69805426
   0.06256482  0.70508360  0.47866973
   0.81247267  0.03756523  0.39008942
   0.56291023  0.70162925  0.21402846
   0.18741510  0.79204144  0.74213225
   0.68787723  0.62568746  0.78587101
   0.93703572  0.95657527  0.56517516
   0.81293857  0.04256962  0.74218814
Direct configuration=     2
   0.43753373  0.45337118  0.34648042
   0.31253321  0.36934533  0.30196795
   0.18731285  0.61788028  0.16911244
   0.93746149  0.45384910  0.34641996
   0.93752888  0.95352346  0.34636747
   0.18744104  0.11778548  0.16906575
   0.43700120  0.12251739  0.52130327
   0.68707808  0.12614811  0.78607091
   0.93781129  0.62599942  0.78614536
   0.31240481  0.20337013  0.34645685
   0.56241163  0.37287764  0.52133513
   0.18758836  0.45172607  0.21382429
   0.06320840  0.54367012  0.87318189
   0.81235810  0.53713634  0.39024352
   0.43718548  0.12694181  0.78607667
   0.43750715  0.62163988  0.43488268
   0.31234335  0.86971164  0.30209095
   0.68775420  0.45387886  0.34652104
   0.43745235  0.95361743  0.34650782
   0.56236515  0.03732834  0.39037820
   0.56222705  0.03550407  0.25790835
   0.43748722  0.61952246  0.30201458
   0.93742835  0.45167213  0.21385360
   0.06263954  0.03575387  0.25797981
   0.93756361  0.78746394  0.39029997
   0.18770473  0.12475207  0.65351157
   0.93763917  0.12145581  0.43485656
   0.06274717  0.70815507  0.69795860
   0.18794094  0.95988081  0.83110887
   0.31235637  0.54058481  0.60971102
   0.81256133  0.36819284  0.16908294
   0.31273487  0.37598292  0.78615366
   0.81215547  0.70820930  0.69798744
   0.93740749  0.62380972  0.65347833
   0.56215288  0.36792923  0.16897278
   0.18732162  0.62581574  0.78597915
   0.18738333  0.28468252  0.12687039
   0.18755753  0.62416415  0.65352659
   0.31253233  0.03449667  0.12686847
   0.18742783  0.45974395  0.83088015
   0.81253752  0.70887948  0.83121553
   0.68714189  0.12133548  0.43511581
   0.81266760  0.87096645  0.43480702
   0.93723295  0.95193804  0.21387098
   0.81247112  0.86822614  0.16901098
   0.93754171  0.45472208  0.47857115
   0.31241374  0.36848390  0.16894972
   0.56220095  0.86940417  0.30194375
   0.18694646  0.79461992  0.87332152
   0.81275011  0.53995082  0.60975009
   0.06252307  0.03455349  0.12688863
   0.18775465  0.12602945  0.78616107
   0.93759143  0.95847343  0.69800328
   0.06221355  0.86762281  0.16907607
   0.93785224  0.12236243  0.52131585
   0.68779140  0.95526385  0.47856860
   0.43738820  0.45616915  0.56508513
   0.06238740  0.54048894  0.60960729
   0.56194673  0.21056324  0.83091772
   0.68765617  0.95170168  0.21385213
   0.06270344  0.36791344  0.16899500
   0.31277435  0.37416863  0.65356790
   0.06255252  0.20639703  0.56505874
   0.93700369  0.29198142  0.74205422
   0.68694803  0.96023092  0.83104579
   0.31263267  0.53750619  0.39018582
   0.31260567  0.87635989  0.78622171
   0.93715687  0.96043895  0.83109477
   0.18733318  0.78619146  0.25801660
   0.81226128  0.21064980  0.83117023
   0.43778545  0.78739157  0.39029266
   0.56236670  0.87215689  0.52120948
   0.68809059  0.46045865  0.83100386
   0.31218526  0.53420198  0.12685705
   0.56242178  0.20544587  0.47867229
   0.68740637  0.29244212  0.74211480
   0.31179083  0.04385599  0.87325203
   0.56268246  0.87633175  0.78614995
   0.81266248  0.03550217  0.25799425
   0.93784733  0.78490527  0.12692955
   0.56201006  0.37610375  0.78598693
   0.68771576  0.78741294  0.39026486
   0.31254556  0.37251427  0.52132213
   0.18802665  0.95643113  0.56521057
   0.93740592  0.78992911  0.60966902
   0.81288078  0.70163540  0.21382474
   0.93696221  0.46032150  0.83108727
   0.06228838  0.53562836  0.25795454
   0.81264670  0.20654457  0.56512249
   0.56239545  0.03527598  0.12679949
   0.93754695  0.12436784  0.65359134
   0.68747978  0.29233535  0.87326018
   0.68722193  0.79233664  0.74205518
   0.68718579  0.45580274  0.56511562
   0.06278662  0.53751841  0.39030059
   0.06259963  0.87269110  0.52122154
   0.68751763  0.45851664  0.69798750
   0.56231216  0.53746987  0.39031712
   0.06276398  0.20535019  0.47862543
   0.56234743  0.70483091  0.47857087
   0.18742596  0.29241556  0.74215210
   0.43759690  0.79206740  0.74211771
   0.06225810  0.20335620  0.34651890
   0.18734153  0.11962852  0.30206482
   0.81253638  0.37419715  0.65348915
   0.18783776  0.62246186  0.52121900
   0.56311056  0.04341337  0.87325724
   0.81227066  0.04366914  0.87332380
   0.06205449  0.37431088  0.65355433
   0.06263973  0.70595165  0.56483304
   0.56203023  0.54223974  0.74202171
   0.56257444  0.54006496  0.60973825
   0.06278911  0.04037021  0.60967312
   0.93710018  0.79223387  0.74213401
   0.93770445  0.29019807  0.60967851
   0.81211344  0.54221096  0.74214269
   0.06249237  0.37265011  0.52125175
   0.31269130  0.03753241  0.39028713
   0.31210577  0.87134813  0.43488272
   0.31202419  0.87203640  0.52123412
   0.93703448  0.95531179  0.47868568
   0.31267649  0.54279659  0.87321400
   0.06253928  0.37160231  0.43487548
   0.31246173  0.86796422  0.16903490
   0.56248811  0.37159085  0.43480492
   0.56269227  0.87412533  0.65348041
   0.93748636  0.61773083  0.16911673
   0.93753661  0.62234100  0.52132433
   0.68726207  0.11807074  0.16908670
   0.43765284  0.78466681  0.12680116
   0.56240328  0.71039432  0.83128052
   0.56234689  0.20196712  0.21383821
   0.81242464  0.37274514  0.52135014
   0.31244695  0.70612561  0.56516310
   0.18728261  0.79050736  0.60969520
   0.06223175  0.36975274  0.30198312
   0.56282985  0.70558589  0.56510270
   0.68720509  0.12436135  0.65362949
   0.93768332  0.11791132  0.16914483
   0.68752217  0.61976284  0.30206368
   0.06266915  0.20175619  0.21383117
   0.06230283  0.70164304  0.21383214
   0.31268187  0.37139901  0.43496358
   0.56238440  0.04041911  0.60967313
   0.43747654  0.11794168  0.16901055
   0.18768493  0.45643406  0.56516327
   0.56264272  0.86746156  0.16892968
   0.06277462  0.70362098  0.34647625
   0.68755448  0.62243228  0.52130544
   0.68743358  0.62388501  0.65347932
   0.43767005  0.95932541  0.83117185
   0.18781972  0.12152256  0.43486999
   0.43761532  0.12415375  0.65360091
   0.43712157  0.46051518  0.83103877
   0.56238765  0.04257238  0.74215867
   0.56240169  0.20677284  0.56523811
   0.43765871  0.62399154  0.65344523
   0.93863217  0.79358442  0.87333074
   0.81240512  0.03439340  0.12691303
   0.93764458  0.45575425  0.56519084
   0.18764166  0.61957251  0.30199935
   0.68773875  0.11937265  0.30199763
   0.81235350  0.37147487  0.43478992
   0.68694498  0.78489307  0.12682818
   0.68730927  0.28701243  0.39028010
   0.43751205  0.95188919  0.21381958
   0.93737344  0.29302468  0.87320387
   0.56281712  0.37410998  0.65357582
   0.31251479  0.04199862  0.74202520
   0.56276720  0.53569779  0.25792310
   0.81257028  0.87683817  0.78597931
   0.18758536  0.95593719  0.47856117
   0.06285162  0.86950851  0.30194041
   0.68750217  0.95352867  0.34640245
   0.56177155  0.54315312  0.87325586
   0.93763681  0.28602999  0.25798110
   0.43769021  0.78582667  0.25802109
   0.81264892  0.36995389  0.30197945
   0.31253572  0.70322972  0.34645027
   0.81224729  0.37586482  0.78621555
   0.43767807  0.79032052  0.60964987
   0.68713681  0.28464057  0.12685629
   0.68710637  0.79400785  0.87327940
   0.43746785  0.29051670  0.60979135
   0.31259550  0.54214618  0.74213957
   0.56288358  0.36916888  0.30207426
   0.31266317  0.04047967  0.60965755
   0.31261847  0.20794232  0.69788720
   0.81246432  0.70376816  0.34649855
   0.56232275  0.70367775  0.34643036
   0.56222648  0.70815179  0.69791507
   0.43779436  0.28489245  0.12683653
   0.93762130  0.45817884  0.69779530
   0.43739807  0.45807428  0.69784477
   0.18747109  0.28530021  0.25796135
   0.93759157  0.28449475  0.12686782
   0.18749835  0.95186989  0.21389653
   0.06288815  0.37532721  0.78602762
   0.31226296  0.20182217  0.21386763
   0.06247019  0.87432046  0.65351116
   0.18702553  0.78716296  0.39022330
   0.18743716  0.78472916  0.12689424
   0.43752395  0.28526116  0.25796542
   0.18775061  0.95808508  0.69800053
   0.68752817  0.95856181  0.69793367
   0.18738648  0.45502538  0.47858502
   0.31223608  0.70183313  0.21383868
   0.68762727  0.78517249  0.25790941
   0.43730511  0.45522769  0.47860862
   0.68760749  0.62128244  0.43489099
   0.43731133  0.45213896  0.21382955
   0.06271816  0.03781139  0.39027769
   0.93752423  0.28722301  0.39028073
   0.56259831  0.20820430  0.69798955
   0.93722500  0.62120667  0.43489139
   0.06312955  0.54227815  0.74202894
   0.43769623  0.29295294  0.87314815
   0.18757399  0.28776978  0.39028803
   0.93753154  0.78525393  0.25792976
   0.81277041  0.87227948  0.52134819
   0.81291502  0.20190465  0.21390846
   0.68776098  0.78968549  0.60972023
   0.43760483  0.11941484  0.30205824
   0.31251537  0.20537597  0.47860158
   0.68720080  0.61813114  0.16901907
   0.68730370  0.95596272  0.56523017
   0.68757891  0.28597538  0.25796517
   0.06230709  0.87606728  0.78616058
   0.18740399  0.45328927  0.34638776
   0.56291230  0.20370676  0.34646849
   0.68731609  0.28994418  0.60966091
   0.81211298  0.70532695  0.47859390
   0.81258953  0.20328404  0.34649759
   0.31299243  0.70789004  0.69793180
   0.43707490  0.62263131  0.52126238
   0.93755133  0.11961499  0.30202519
   0.81282112  0.53427864  0.12686274
   0.93779768  0.12596436  0.78615192
   0.56269621  0.87135614  0.43476811
   0.81230101  0.20561909  0.47860300
   0.93767915  0.61985516  0.30200383
   0.43777603  0.61826660  0.16900493
   0.43790407  0.29239111  0.74217122
   0.06250241  0.87164816  0.43493602
   0.43710721  0.62647805  0.78615565
   0.31326475  0.71065736  0.83108926
   0.68769682  0.45206328  0.21384057
   0.56229212  0.53507231  0.12677885
   0.06292226  0.04386919  0.87338013
   0.18722523  0.29337552  0.87313653
   0.06252768  0.04227073  0.74220787
   0.31272364  0.21002674  0.83094808
   0.18774286  0.45826206  0.69806191
   0.31285622  0.70523723  0.47853944
   0.81203184  0.20859317  0.69792848
   0.43770535  0.28774172  0.39029376
   0.43750128  0.12163462  0.43477938
   0.06293192  0.21004128  0.83091979
   0.31225467  0.20704804  0.56512867
   0.06264973  0.53451250  0.12681685
   0.18773415  0.62148001  0.43487331
   0.43745778  0.95647910  0.56488394
   0.68771200  0.45498119  0.47861054
   0.81210666  0.70624811  0.56516042
   0.31244195  0.53565924  0.25794286
   0.18762727  0.29042390  0.60966835
   0.43726989  0.95778301  0.69798819
   0.81259764  0.87420699  0.65352606
   0.18763057  0.12229376  0.52131138
   0.81291963  0.86958738  0.30204647
   0.18767420  0.95351500  0.34636027
   0.06178274  0.70999017  0.83102614
   0.81215129  0.04009030  0.60964889
   0.43731209  0.79398507  0.87312735
   0.43743344  0.95555914  0.47869070
   0.81230910  0.53575669  0.25785566
   0.81213180  0.54346750  0.87299848
   0.31237614  0.03573662  0.25792784
   0.31260057  0.87410261  0.65341885
   0.68741557  0.12202571  0.52127484
   0.06225911  0.20835030  0.69807842
   0.06266590  0.70506854  0.47867401
   0.81239325  0.03758740  0.39009083
   0.56304682  0.70159006  0.21403070
   0.18756240  0.79197929  0.74216337
   0.68776751  0.62570479  0.78579700
   0.93708595  0.95663937  0.56522217
   0.81282456  0.04258450  0.74221811
Direct configuration=     3
   0.43752472  0.45337749  0.34648054
   0.31254844  0.36934171  0.30197664
   0.18731145  0.61787719  0.16910883
   0.93747088  0.45385042  0.34641986
   0.93752871  0.95352342  0.34637021
   0.18744945  0.11778327  0.16906846
   0.43703420  0.12252420  0.52130906
   0.68708596  0.12616325  0.78608958
   0.93781629  0.62600556  0.78616154
   0.31241730  0.20338606  0.34645367
   0.56243042  0.37286546  0.52134002
   0.18760692  0.45170172  0.21381954
   0.06322156  0.54370053  0.87317566
   0.81237024  0.53713969  0.39024278
   0.43719746  0.12693951  0.78608776
   0.43749255  0.62164248  0.43487994
   0.31235954  0.86970595  0.30209949
   0.68773629  0.45387928  0.34651751
   0.43745087  0.95361391  0.34650264
   0.56235931  0.03732896  0.39037346
   0.56222778  0.03551870  0.25790708
   0.43748876  0.61951452  0.30202148
   0.93744412  0.45163627  0.21384290
   0.06263970  0.03575900  0.25797603
   0.93758475  0.78745584  0.39030309
   0.18769250  0.12473759  0.65351178
   0.93765833  0.12144390  0.43485820
   0.06272429  0.70818003  0.69795096
   0.18789999  0.95986747  0.83111727
   0.31235429  0.54060401  0.60970549
   0.81255247  0.36816899  0.16907397
   0.31271645  0.37600851  0.78617041
   0.81217204  0.70823373  0.69798278
   0.93741546  0.62382579  0.65348489
   0.56216161  0.36789017  0.16897383
   0.18729491  0.62580429  0.78599954
   0.18734934  0.28468233  0.12686975
   0.18755087  0.62418561  0.65352967
   0.31250652  0.03450669  0.12687459
   0.18740066  0.45976049  0.83088685
   0.81256140  0.70890542  0.83122089
   0.68715532  0.12132588  0.43511948
   0.81269074  0.87095616  0.43481022
   0.93724011  0.95197360  0.21386316
   0.81247349  0.86824810  0.16900539
   0.93753242  0.45472278  0.47857814
   0.31241734  0.36845141  0.16895202
   0.56218542  0.86941175  0.30195012
   0.18689702  0.79461171  0.87331644
   0.81275077  0.53995832  0.60974371
   0.06250441  0.03455820  0.12688804
   0.18772005  0.12602442  0.78617360
   0.93760944  0.95845159  0.69799419
   0.06222313  0.86764083  0.16907165
   0.93783255  0.12237125  0.52132176
   0.68780694  0.95526544  0.47857906
   0.43739968  0.45618513  0.56507481
   0.06239544  0.54049994  0.60960342
   0.56197014  0.21056478  0.83092308
   0.68763634  0.95174569  0.21384555
   0.06269984  0.36789327  0.16898787
   0.31275007  0.37416821  0.65356874
   0.06253777  0.20638654  0.56505023
   0.93701601  0.29199454  0.74205304
   0.68697911  0.96023663  0.83105365
   0.31262319  0.53751118  0.39018170
   0.31259829  0.87635396  0.78623772
   0.93716119  0.96043922  0.83110203
   0.18734650  0.78617622  0.25801562
   0.81228144  0.21063673  0.83117499
   0.43776516  0.78736557  0.39028904
   0.56239058  0.87216074  0.52121638
   0.68809812  0.46045528  0.83100701
   0.31216667  0.53419267  0.12685647
   0.56245497  0.20544532  0.47868437
   0.68742182  0.29246114  0.74211266
   0.31175131  0.04385176  0.87324814
   0.56270199  0.87633022  0.78616063
   0.81264292  0.03551930  0.25799075
   0.93785148  0.78488484  0.12692639
   0.56203416  0.37610962  0.78600095
   0.68771550  0.78740413  0.39026294
   0.31255731  0.37251672  0.52132766
   0.18801085  0.95642114  0.56520738
   0.93741300  0.78994958  0.60966308
   0.81288010  0.70165937  0.21381567
   0.93698934  0.46032093  0.83109087
   0.06232191  0.53562538  0.25795595
   0.81264606  0.20652191  0.56510906
   0.56242138  0.03529159  0.12680493
   0.93754924  0.12434929  0.65359610
   0.68750085  0.29232314  0.87325546
   0.68722908  0.79231839  0.74204971
   0.68717998  0.45581974  0.56510285
   0.06280697  0.53752361  0.39030134
   0.06257627  0.87269352  0.52122878
   0.68754004  0.45852306  0.69798329
   0.56228910  0.53747168  0.39031269
   0.06274742  0.20535166  0.47862747
   0.56236471  0.70483346  0.47857680
   0.18738994  0.29240075  0.74214980
   0.43761884  0.79207149  0.74211423
   0.06226990  0.20337075  0.34651945
   0.18736252  0.11963739  0.30207366
   0.81255854  0.37419001  0.65349386
   0.18782316  0.62244932  0.52122470
   0.56314895  0.04341070  0.87325245
   0.81229301  0.04365406  0.87331621
   0.06205185  0.37430533  0.65355737
   0.06261374  0.70596444  0.56482645
   0.56204387  0.54225639  0.74201976
   0.56256733  0.54008776  0.60972861
   0.06278700  0.04035353  0.60966982
   0.93709957  0.79222180  0.74212779
   0.93771073  0.29018004  0.60967635
   0.81212989  0.54222263  0.74214099
   0.06246155  0.37265570  0.52125538
   0.31267910  0.03753023  0.39028619
   0.31207977  0.87133901  0.43488152
   0.31203902  0.87204173  0.52123960
   0.93702713  0.95531180  0.47868633
   0.31264848  0.54279915  0.87321020
   0.06253998  0.37161398  0.43487459
   0.31245519  0.86798484  0.16903986
   0.56248476  0.37160596  0.43480532
   0.56268817  0.87412379  0.65348132
   0.93748293  0.61771784  0.16910393
   0.93751152  0.62232386  0.52132881
   0.68725409  0.11809068  0.16908963
   0.43765002  0.78465764  0.12680274
   0.56242729  0.71039447  0.83128720
   0.56233492  0.20195342  0.21382941
   0.81242483  0.37274631  0.52135166
   0.31246355  0.70612538  0.56515951
   0.18728831  0.79052113  0.60969280
   0.06223792  0.36976423  0.30199118
   0.56283400  0.70559079  0.56509310
   0.68722347  0.12433122  0.65363107
   0.93768025  0.11792489  0.16914067
   0.68749797  0.61974872  0.30207261
   0.06268728  0.20174165  0.21382258
   0.06232424  0.70165021  0.21382583
   0.31266323  0.37141397  0.43495965
   0.56237851  0.04039652  0.60966898
   0.43747848  0.11794244  0.16902096
   0.18768321  0.45643427  0.56515504
   0.56263716  0.86749236  0.16893177
   0.06279175  0.70359874  0.34647942
   0.68756934  0.62243472  0.52131139
   0.68744246  0.62391329  0.65348501
   0.43767582  0.95933126  0.83117737
   0.18780172  0.12151412  0.43487002
   0.43760748  0.12412053  0.65360045
   0.43711450  0.46053561  0.83104636
   0.56237469  0.04255779  0.74215561
   0.56241438  0.20676567  0.56522408
   0.43764864  0.62403081  0.65344664
   0.93865229  0.79360279  0.87332626
   0.81242363  0.03441015  0.12691406
   0.93763988  0.45576894  0.56517672
   0.18765415  0.61956216  0.30200739
   0.68771490  0.11939361  0.30200299
   0.81237454  0.37148603  0.43479391
   0.68697470  0.78486989  0.12682724
   0.68730567  0.28702015  0.39027510
   0.43751001  0.95191631  0.21381008
   0.93738681  0.29300641  0.87319810
   0.56282273  0.37411229  0.65357813
   0.31250283  0.04199804  0.74201960
   0.56273856  0.53568823  0.25792417
   0.81258973  0.87682189  0.78599844
   0.18756620  0.95593940  0.47855984
   0.06286846  0.86950158  0.30194754
   0.68748988  0.95353551  0.34640007
   0.56176937  0.54316095  0.87325391
   0.93763534  0.28601353  0.25798003
   0.43769937  0.78581285  0.25802030
   0.81263187  0.36994421  0.30198919
   0.31253944  0.70320565  0.34645160
   0.81226219  0.37586454  0.78622996
   0.43767067  0.79033955  0.60964540
   0.68717501  0.28465522  0.12685837
   0.68713369  0.79402848  0.87327601
   0.43745737  0.29050670  0.60978516
   0.31258896  0.54215293  0.74213782
   0.56287872  0.36916203  0.30207986
   0.31266125  0.04045043  0.60965447
   0.31260318  0.20792084  0.69787928
   0.81245877  0.70375954  0.34649768
   0.56230733  0.70366367  0.34642888
   0.56224273  0.70816811  0.69790785
   0.43780221  0.28490132  0.12684223
   0.93761998  0.45818406  0.69778973
   0.43739558  0.45809573  0.69783764
   0.18748465  0.28531343  0.25795831
   0.93757980  0.28450461  0.12686610
   0.18751325  0.95189173  0.21388539
   0.06286647  0.37533506  0.78604398
   0.31227848  0.20180899  0.21385668
   0.06246623  0.87432366  0.65351574
   0.18702469  0.78713754  0.39022437
   0.18740562  0.78472314  0.12689412
   0.43754018  0.28526820  0.25796341
   0.18772439  0.95808237  0.69799213
   0.68753927  0.95853994  0.69792289
   0.18737090  0.45502122  0.47858652