 288 288   0   0
  0.1280206E+02  0.9726678E-09  0.8423550E-09  0.4500000E-08  0.2500000E-15
  1.000000000000000E-004
  CAR 
 unknown system                          
      6.82027114     -6.02079648  301      4.29434246      1.00000000
     -6.021  0.0000E+00  0.0000E+00
     -5.978  0.0000E+00  0.0000E+00
     -5.935  0.0000E+00  0.0000E+00
     -5.892  0.0000E+00  0.0000E+00
     -5.850  0.0000E+00  0.0000E+00
     -5.807  0.0000E+00  0.0000E+00
     -5.764  0.0000E+00  0.0000E+00
     -5.721  0.0000E+00  0.0000E+00
     -5.678  0.0000E+00  0.0000E+00
     -5.636  0.0000E+00  0.0000E+00
     -5.593  0.0000E+00  0.0000E+00
     -5.550  0.0000E+00  0.0000E+00
     -5.507  0.0000E+00  0.0000E+00
     -5.464  0.0000E+00  0.0000E+00
     -5.422  0.0000E+00  0.0000E+00
     -5.379  0.1621E-15  0.6939E-17
     -5.336  0.4312E-14  0.1915E-15
     -5.293  0.9218E-13  0.4137E-14
     -5.250  0.1684E-11  0.7620E-13
     -5.208  0.2619E-10  0.1197E-11
     -5.165  0.3469E-09  0.1604E-10
     -5.122  0.3915E-08  0.1836E-09
     -5.079  0.3766E-07  0.1795E-08
     -5.036  0.3090E-06  0.1502E-07
     -4.994  0.2164E-05  0.1077E-06
     -4.951  0.1296E-04  0.6624E-06
     -4.908  0.6644E-04  0.3506E-05
     -4.865  0.2924E-03  0.1602E-04
     -4.822  0.1108E-02  0.6345E-04
     -4.779  0.3634E-02  0.2190E-03
     -4.737  0.1038E-01  0.6633E-03
     -4.694  0.2602E-01  0.1777E-02
     -4.651  0.5784E-01  0.4253E-02
     -4.608  0.1153E+00  0.9187E-02
     -4.565  0.2083E+00  0.1810E-01
     -4.523  0.3448E+00  0.3286E-01
     -4.480  0.5271E+00  0.5542E-01
     -4.437  0.7488E+00  0.8747E-01
     -4.394  0.9934E+00  0.1300E+00
     -4.351  0.1236E+01  0.1829E+00
     -4.309  0.1451E+01  0.2450E+00
     -4.266  0.1616E+01  0.3142E+00
     -4.223  0.1725E+01  0.3880E+00
     -4.180  0.1789E+01  0.4646E+00
     -4.137  0.1840E+01  0.5434E+00
     -4.095  0.1915E+01  0.6253E+00
     -4.052  0.2049E+01  0.7130E+00
     -4.009  0.2254E+01  0.8095E+00
     -3.966  0.2514E+01  0.9171E+00
     -3.923  0.2788E+01  0.1036E+01
     -3.881  0.3022E+01  0.1166E+01
     -3.838  0.3167E+01  0.1301E+01
     -3.795  0.3207E+01  0.1439E+01
     -3.752  0.3159E+01  0.1574E+01
     -3.709  0.3076E+01  0.1706E+01
     -3.667  0.3021E+01  0.1835E+01
     -3.624  0.3047E+01  0.1965E+01
     -3.581  0.3177E+01  0.2101E+01
     -3.538  0.3390E+01  0.2246E+01
     -3.495  0.3638E+01  0.2402E+01
     -3.453  0.3863E+01  0.2567E+01
     -3.410  0.4026E+01  0.2740E+01
     -3.367  0.4115E+01  0.2916E+01
     -3.324  0.4145E+01  0.3093E+01
     -3.281  0.4147E+01  0.3271E+01
     -3.239  0.4158E+01  0.3449E+01
     -3.196  0.4204E+01  0.3629E+01
     -3.153  0.4301E+01  0.3813E+01
     -3.110  0.4450E+01  0.4003E+01
     -3.067  0.4637E+01  0.4202E+01
     -3.025  0.4840E+01  0.4409E+01
     -2.982  0.5030E+01  0.4624E+01
     -2.939  0.5183E+01  0.4846E+01
     -2.896  0.5285E+01  0.5072E+01
     -2.853  0.5347E+01  0.5301E+01
     -2.811  0.5396E+01  0.5532E+01
     -2.768  0.5463E+01  0.5766E+01
     -2.725  0.5562E+01  0.6004E+01
     -2.682  0.5671E+01  0.6247E+01
     -2.639  0.5730E+01  0.6492E+01
     -2.597  0.5685E+01  0.6735E+01
     -2.554  0.5541E+01  0.6973E+01
     -2.511  0.5388E+01  0.7203E+01
     -2.468  0.5369E+01  0.7433E+01
     -2.425  0.5601E+01  0.7673E+01
     -2.382  0.6099E+01  0.7934E+01
     -2.340  0.6743E+01  0.8222E+01
     -2.297  0.7324E+01  0.8536E+01
     -2.254  0.7642E+01  0.8863E+01
     -2.211  0.7612E+01  0.9189E+01
     -2.168  0.7310E+01  0.9502E+01
     -2.126  0.6943E+01  0.9799E+01
     -2.083  0.6745E+01  0.1009E+02
     -2.040  0.6863E+01  0.1038E+02
     -1.997  0.7291E+01  0.1069E+02
     -1.954  0.7886E+01  0.1103E+02
     -1.912  0.8444E+01  0.1139E+02
     -1.869  0.8801E+01  0.1177E+02
     -1.826  0.8900E+01  0.1215E+02
     -1.783  0.8814E+01  0.1253E+02
     -1.740  0.8690E+01  0.1290E+02
     -1.698  0.8661E+01  0.1327E+02
     -1.655  0.8776E+01  0.1365E+02
     -1.612  0.9003E+01  0.1403E+02
     -1.569  0.9279E+01  0.1443E+02
     -1.526  0.9561E+01  0.1484E+02
     -1.484  0.9838E+01  0.1526E+02
     -1.441  0.1010E+02  0.1569E+02
     -1.398  0.1032E+02  0.1613E+02
     -1.355  0.1045E+02  0.1658E+02
     -1.312  0.1053E+02  0.1703E+02
     -1.270  0.1071E+02  0.1749E+02
     -1.227  0.1119E+02  0.1797E+02
     -1.184  0.1208E+02  0.1849E+02
     -1.141  0.1329E+02  0.1905E+02
     -1.098  0.1450E+02  0.1967E+02
     -1.056  0.1533E+02  0.2033E+02
     -1.013  0.1563E+02  0.2100E+02
     -0.970  0.1556E+02  0.2167E+02
     -0.927  0.1552E+02  0.2233E+02
     -0.884  0.1593E+02  0.2301E+02
     -0.842  0.1698E+02  0.2374E+02
     -0.799  0.1861E+02  0.2454E+02
     -0.756  0.2072E+02  0.2542E+02
     -0.713  0.2333E+02  0.2642E+02
     -0.670  0.2664E+02  0.2756E+02
     -0.628  0.3081E+02  0.2888E+02
     -0.585  0.3564E+02  0.3041E+02
     -0.542  0.4059E+02  0.3214E+02
     -0.499  0.4497E+02  0.3407E+02
     -0.456  0.4839E+02  0.3614E+02
     -0.414  0.5087E+02  0.3832E+02
     -0.371  0.5272E+02  0.4057E+02
     -0.328  0.5424E+02  0.4289E+02
     -0.285  0.5551E+02  0.4527E+02
     -0.242  0.5645E+02  0.4769E+02
     -0.200  0.5694E+02  0.5012E+02
     -0.157  0.5703E+02  0.5257E+02
     -0.114  0.5690E+02  0.5500E+02
     -0.071  0.5683E+02  0.5743E+02
     -0.028  0.5708E+02  0.5988E+02
      0.015  0.5789E+02  0.6235E+02
      0.057  0.5942E+02  0.6490E+02
      0.100  0.6171E+02  0.6754E+02
      0.143  0.6468E+02  0.7031E+02
      0.186  0.6816E+02  0.7323E+02
      0.229  0.7191E+02  0.7630E+02
      0.271  0.7564E+02  0.7954E+02
      0.314  0.7906E+02  0.8293E+02
      0.357  0.8190E+02  0.8643E+02
      0.400  0.8406E+02  0.9003E+02
      0.443  0.8561E+02  0.9369E+02
      0.485  0.8666E+02  0.9740E+02
      0.528  0.8724E+02  0.1011E+03
      0.571  0.8733E+02  0.1049E+03
      0.614  0.8694E+02  0.1086E+03
      0.657  0.8615E+02  0.1123E+03
      0.699  0.8502E+02  0.1159E+03
      0.742  0.8353E+02  0.1195E+03
      0.785  0.8169E+02  0.1230E+03
      0.828  0.7964E+02  0.1264E+03
      0.871  0.7771E+02  0.1297E+03
      0.913  0.7632E+02  0.1330E+03
      0.956  0.7569E+02  0.1362E+03
      0.999  0.7574E+02  0.1395E+03
      1.042  0.7610E+02  0.1427E+03
      1.085  0.7632E+02  0.1460E+03
      1.127  0.7613E+02  0.1493E+03
      1.170  0.7552E+02  0.1525E+03
      1.213  0.7468E+02  0.1557E+03
      1.256  0.7385E+02  0.1589E+03
      1.299  0.7313E+02  0.1620E+03
      1.341  0.7246E+02  0.1651E+03
      1.384  0.7165E+02  0.1682E+03
      1.427  0.7048E+02  0.1712E+03
      1.470  0.6891E+02  0.1741E+03
      1.513  0.6723E+02  0.1770E+03
      1.555  0.6600E+02  0.1798E+03
      1.598  0.6580E+02  0.1826E+03
      1.641  0.6691E+02  0.1855E+03
      1.684  0.6919E+02  0.1885E+03
      1.727  0.7218E+02  0.1916E+03
      1.769  0.7539E+02  0.1948E+03
      1.812  0.7849E+02  0.1981E+03
      1.855  0.8135E+02  0.2016E+03
      1.898  0.8393E+02  0.2052E+03
      1.941  0.8621E+02  0.2089E+03
      1.983  0.8823E+02  0.2127E+03
      2.026  0.9006E+02  0.2165E+03
      2.069  0.9173E+02  0.2205E+03
      2.112  0.9316E+02  0.2244E+03
      2.155  0.9433E+02  0.2285E+03
      2.197  0.9536E+02  0.2326E+03
      2.240  0.9662E+02  0.2367E+03
      2.283  0.9855E+02  0.2409E+03
      2.326  0.1015E+03  0.2453E+03
      2.369  0.1053E+03  0.2498E+03
      2.412  0.1097E+03  0.2545E+03
      2.454  0.1141E+03  0.2594E+03
      2.497  0.1180E+03  0.2644E+03
      2.540  0.1211E+03  0.2696E+03
      2.583  0.1236E+03  0.2749E+03
      2.626  0.1256E+03  0.2803E+03
      2.668  0.1275E+03  0.2857E+03
      2.711  0.1295E+03  0.2913E+03
      2.754  0.1316E+03  0.2969E+03
      2.797  0.1341E+03  0.3026E+03
      2.840  0.1369E+03  0.3085E+03
      2.882  0.1397E+03  0.3145E+03
      2.925  0.1417E+03  0.3205E+03
      2.968  0.1419E+03  0.3266E+03
      3.011  0.1394E+03  0.3326E+03
      3.054  0.1341E+03  0.3383E+03
      3.096  0.1264E+03  0.3437E+03
      3.139  0.1175E+03  0.3488E+03
      3.182  0.1085E+03  0.3534E+03
      3.225  0.1007E+03  0.3577E+03
      3.268  0.9452E+02  0.3618E+03
      3.310  0.9017E+02  0.3656E+03
      3.353  0.8736E+02  0.3694E+03
      3.396  0.8569E+02  0.3730E+03
      3.439  0.8473E+02  0.3767E+03
      3.482  0.8413E+02  0.3803E+03
      3.524  0.8357E+02  0.3838E+03
      3.567  0.8290E+02  0.3874E+03
      3.610  0.8233E+02  0.3909E+03
      3.653  0.8236E+02  0.3944E+03
      3.696  0.8356E+02  0.3980E+03
      3.738  0.8620E+02  0.4017E+03
      3.781  0.9009E+02  0.4056E+03
      3.824  0.9464E+02  0.4096E+03
      3.867  0.9911E+02  0.4138E+03
      3.910  0.1030E+03  0.4183E+03
      3.952  0.1060E+03  0.4228E+03
      3.995  0.1080E+03  0.4274E+03
      4.038  0.1090E+03  0.4321E+03
      4.081  0.1091E+03  0.4367E+03
      4.124  0.1085E+03  0.4414E+03
      4.166  0.1074E+03  0.4460E+03
      4.209  0.1062E+03  0.4505E+03
      4.252  0.1049E+03  0.4550E+03
      4.295  0.1036E+03  0.4595E+03
      4.338  0.1025E+03  0.4638E+03
      4.380  0.1017E+03  0.4682E+03
      4.423  0.1013E+03  0.4725E+03
      4.466  0.1009E+03  0.4768E+03
      4.509  0.1003E+03  0.4811E+03
      4.552  0.9922E+02  0.4854E+03
      4.594  0.9797E+02  0.4896E+03
      4.637  0.9707E+02  0.4937E+03
      4.680  0.9703E+02  0.4979E+03
      4.723  0.9809E+02  0.5021E+03
      4.766  0.1001E+03  0.5064E+03
      4.809  0.1027E+03  0.5108E+03
      4.851  0.1053E+03  0.5153E+03
      4.894  0.1075E+03  0.5199E+03
      4.937  0.1089E+03  0.5245E+03
      4.980  0.1091E+03  0.5292E+03
      5.023  0.1075E+03  0.5338E+03
      5.065  0.1033E+03  0.5382E+03
      5.108  0.9547E+02  0.5423E+03
      5.151  0.8363E+02  0.5459E+03
      5.194  0.6834E+02  0.5488E+03
      5.237  0.5139E+02  0.5510E+03
      5.279  0.3517E+02  0.5525E+03
      5.322  0.2172E+02  0.5535E+03
      5.365  0.1204E+02  0.5540E+03
      5.408  0.5961E+01  0.5542E+03
      5.451  0.2630E+01  0.5543E+03
      5.493  0.1032E+01  0.5544E+03
      5.536  0.3603E+00  0.5544E+03
      5.579  0.1118E+00  0.5544E+03
      5.622  0.3082E-01  0.5544E+03
      5.665  0.7542E-02  0.5544E+03
      5.707  0.1636E-02  0.5544E+03
      5.750  0.3136E-03  0.5544E+03
      5.793  0.5294E-04  0.5544E+03
      5.836  0.7835E-05  0.5544E+03
      5.879  0.1012E-05  0.5544E+03
      5.921  0.1136E-06  0.5544E+03
      5.964  0.1104E-07  0.5544E+03
      6.007  0.9247E-09  0.5544E+03
      6.050  0.6664E-10  0.5544E+03
      6.093  0.4118E-11  0.5544E+03
      6.135  0.2178E-12  0.5544E+03
      6.178  0.9532E-14  0.5544E+03
      6.221  0.3242E-15  0.5544E+03
      6.264  0.0000E+00  0.5544E+03
      6.307  0.0000E+00  0.5544E+03
      6.349  0.0000E+00  0.5544E+03
      6.392  0.0000E+00  0.5544E+03
      6.435  0.0000E+00  0.5544E+03
      6.478  0.0000E+00  0.5544E+03
      6.521  0.0000E+00  0.5544E+03
      6.563  0.0000E+00  0.5544E+03
      6.606  0.0000E+00  0.5544E+03
      6.649  0.0000E+00  0.5544E+03
      6.692  0.0000E+00  0.5544E+03
      6.735  0.0000E+00  0.5544E+03
      6.777  0.0000E+00  0.5544E+03
      6.820  0.0000E+00  0.5544E+03
