       N       E                     dE             d eps       ncg     rms          rms(c)
DAV:   1     0.292202309590E+05    0.29220E+05   -0.86583E+05 27930   0.197E+03
DAV:   2     0.119423999996E+04   -0.28026E+05   -0.27414E+05 27720   0.604E+02
DAV:   3    -0.194025243532E+04   -0.31345E+04   -0.27242E+04 39074   0.279E+02
DAV:   4    -0.260700766650E+04   -0.66676E+03   -0.60684E+03 50974   0.975E+01
DAV:   5    -0.272701518534E+04   -0.12001E+03   -0.11211E+03 48370   0.396E+01    0.203E+02
RMM:   6    -0.571268812145E+04   -0.29857E+04   -0.11964E+04 48186   0.248E+02    0.640E+02
RMM:   7    -0.373512490005E+04    0.19776E+04   -0.37078E+03 43723   0.103E+02    0.392E+02
RMM:   8    -0.757018383988E+04   -0.38351E+04   -0.93067E+03 47235   0.243E+02    0.653E+02
RMM:   9    -0.635094103643E+04    0.12192E+04   -0.80298E+03 48068   0.146E+02    0.608E+02
RMM:  10    -0.799076059328E+04   -0.16398E+04   -0.50403E+03 44108   0.118E+02    0.564E+02
RMM:  11    -0.860168801906E+04   -0.61093E+03   -0.89158E+03 46509   0.204E+02    0.623E+02
RMM:  12    -0.860595508289E+04   -0.42671E+01   -0.48980E+03 48035   0.125E+02    0.515E+02
RMM:  13    -0.706715040822E+04    0.15388E+04   -0.27708E+03 42681   0.116E+02    0.459E+02
RMM:  14    -0.433415904578E+04    0.27330E+04   -0.41993E+03 36673   0.162E+02    0.414E+02
RMM:  15    -0.455510521913E+04   -0.22095E+03   -0.42721E+03 49267   0.865E+01    0.371E+02
RMM:  16    -0.368172392141E+04    0.87338E+03   -0.19601E+03 48048   0.728E+01    0.340E+02
RMM:  17    -0.391530530658E+04   -0.23358E+03   -0.20328E+03 39679   0.760E+01    0.301E+02
RMM:  18    -0.329699320598E+04    0.61831E+03   -0.19943E+03 33658   0.733E+01    0.304E+02
RMM:  19    -0.294987630473E+04    0.34712E+03   -0.13154E+03 35321   0.528E+01    0.252E+02
RMM:  20    -0.278737974646E+04    0.16250E+03   -0.10478E+03 38498   0.387E+01    0.235E+02
RMM:  21    -0.253745523367E+04    0.24992E+03   -0.38700E+02 28430   0.406E+01    0.161E+02
RMM:  22    -0.243680898300E+04    0.10065E+03   -0.32236E+02 30044   0.305E+01    0.152E+02
RMM:  23    -0.242183234242E+04    0.14977E+02   -0.21697E+02 30556   0.249E+01    0.146E+02
RMM:  24    -0.240764430374E+04    0.14188E+02   -0.21336E+02 39860   0.147E+01    0.130E+02
RMM:  25    -0.235074199324E+04    0.56902E+02   -0.82578E+01 36939   0.965E+00    0.799E+01
RMM:  26    -0.234370031534E+04    0.70417E+01   -0.61697E+01 37900   0.822E+00    0.752E+01
RMM:  27    -0.235406236065E+04   -0.10362E+02   -0.29540E+01 36679   0.606E+00    0.854E+01
RMM:  28    -0.235692401052E+04   -0.28616E+01   -0.18769E+01 43683   0.282E+00    0.862E+01
RMM:  29    -0.235756748418E+04   -0.64347E+00   -0.77027E+00 45459   0.863E-01    0.859E+01
RMM:  30    -0.235686606652E+04    0.70142E+00   -0.11554E+00 31559   0.160E+00    0.850E+01
RMM:  31    -0.235927253035E+04   -0.24065E+01   -0.51420E+00 31173   0.346E+00    0.848E+01
RMM:  32    -0.236074102365E+04   -0.14685E+01   -0.99646E+00 40380   0.290E+00    0.875E+01
RMM:  33    -0.236945891445E+04   -0.87179E+01   -0.82304E+00 37525   0.294E+00    0.956E+01
RMM:  34    -0.237150624703E+04   -0.20473E+01   -0.60271E+00 38245   0.246E+00    0.939E+01
RMM:  35    -0.237315285541E+04   -0.16466E+01   -0.33572E+00 33915   0.239E+00    0.940E+01
RMM:  36    -0.237424550112E+04   -0.10926E+01   -0.23130E+00 37307   0.180E+00    0.958E+01
RMM:  37    -0.236665849999E+04    0.75870E+01   -0.18933E+00 31415   0.226E+00    0.887E+01
RMM:  38    -0.235067003647E+04    0.15988E+02   -0.49303E+00 29007   0.448E+00    0.741E+01
RMM:  39    -0.233233336183E+04    0.18337E+02   -0.18635E+01 32235   0.614E+00    0.558E+01
RMM:  40    -0.232471907283E+04    0.76143E+01   -0.24184E+01 41324   0.393E+00    0.420E+01
RMM:  41    -0.232483826171E+04   -0.11919E+00   -0.98832E+00 41601   0.180E+00    0.403E+01
RMM:  42    -0.232472275448E+04    0.11551E+00   -0.23979E+00 39699   0.106E+00    0.394E+01
RMM:  43    -0.232555014799E+04   -0.82739E+00   -0.96608E-01 29393   0.189E+00    0.406E+01
RMM:  44    -0.232668158913E+04   -0.11314E+01   -0.19064E+00 31136   0.217E+00    0.431E+01
RMM:  45    -0.232522022719E+04    0.14614E+01   -0.18279E+00 36928   0.140E+00    0.405E+01
RMM:  46    -0.232433978615E+04    0.88044E+00   -0.17934E+00 33190   0.181E+00    0.389E+01
RMM:  47    -0.232123509614E+04    0.31047E+01   -0.38409E+00 34957   0.253E+00    0.319E+01
RMM:  48    -0.232021099851E+04    0.10241E+01   -0.44375E+00 41428   0.197E+00    0.290E+01
RMM:  49    -0.231987432884E+04    0.33667E+00   -0.30107E+00 35186   0.215E+00    0.276E+01
RMM:  50    -0.231873596534E+04    0.11384E+01   -0.16191E+00 31832   0.191E+00    0.243E+01
RMM:  51    -0.233190836772E+04   -0.13172E+02   -0.32085E+01 33309   0.805E+00    0.516E+01
RMM:  52    -0.232453519364E+04    0.73732E+01   -0.24424E+01 41400   0.472E+00    0.398E+01
RMM:  53    -0.232625593352E+04   -0.17207E+01   -0.85193E+00 30587   0.491E+00    0.442E+01
RMM:  54    -0.232632358575E+04   -0.67652E-01   -0.14943E+01 39296   0.410E+00    0.432E+01
RMM:  55    -0.232598797476E+04    0.33561E+00   -0.81903E+00 37004   0.306E+00    0.422E+01
RMM:  56    -0.232757530276E+04   -0.15873E+01   -0.39701E+00 33470   0.246E+00    0.463E+01
RMM:  57    -0.232929959253E+04   -0.17243E+01   -0.46673E+00 36939   0.212E+00    0.491E+01
RMM:  58    -0.232878439686E+04    0.51520E+00   -0.22309E+00 39417   0.127E+00    0.486E+01
RMM:  59    -0.232753939505E+04    0.12450E+01   -0.11703E+00 30998   0.155E+00    0.470E+01
RMM:  60    -0.232429833913E+04    0.32411E+01   -0.13058E+00 29772   0.202E+00    0.416E+01
RMM:  61    -0.232057916904E+04    0.37192E+01   -0.95344E+00 31315   0.463E+00    0.348E+01
RMM:  62    -0.231803164635E+04    0.25475E+01   -0.44035E+00 31706   0.319E+00    0.262E+01
RMM:  63    -0.231670967487E+04    0.13220E+01   -0.33982E+00 37762   0.207E+00    0.199E+01
RMM:  64    -0.231624995933E+04    0.45972E+00   -0.16591E+00 40757   0.116E+00    0.171E+01
RMM:  65    -0.231627861054E+04   -0.28651E-01   -0.86143E-01 39948   0.708E-01    0.169E+01
RMM:  66    -0.231841758390E+04   -0.21390E+01   -0.20568E+00 28201   0.288E+00    0.257E+01
RMM:  67    -0.231765878995E+04    0.75879E+00   -0.10671E+00 27759   0.260E+00    0.217E+01
RMM:  68    -0.231705803125E+04    0.60076E+00   -0.50375E-01 29899   0.129E+00    0.189E+01
RMM:  69    -0.231678659712E+04    0.27143E+00   -0.29461E-01 29840   0.989E-01    0.177E+01
RMM:  70    -0.231645245584E+04    0.33414E+00   -0.44994E-01 29749   0.121E+00    0.156E+01
RMM:  71    -0.231899043152E+04   -0.25380E+01   -0.29159E+00 28728   0.334E+00    0.254E+01
RMM:  72    -0.231671807958E+04    0.22724E+01   -0.97524E-01 27856   0.236E+00    0.160E+01
RMM:  73    -0.231607485000E+04    0.64323E+00   -0.45887E-01 29475   0.128E+00    0.136E+01
RMM:  74    -0.231576372363E+04    0.31113E+00   -0.36837E-01 29322   0.112E+00    0.119E+01
RMM:  75    -0.231565598077E+04    0.10774E+00   -0.37172E-01 34688   0.776E-01    0.107E+01
RMM:  76    -0.231636927147E+04   -0.71329E+00   -0.10912E+00 32488   0.151E+00    0.158E+01
RMM:  77    -0.231597174559E+04    0.39753E+00   -0.31206E-01 28396   0.121E+00    0.131E+01
RMM:  78    -0.231569379606E+04    0.27795E+00   -0.29056E-01 37500   0.584E-01    0.107E+01
RMM:  79    -0.231552626938E+04    0.16753E+00   -0.17878E-01 37979   0.465E-01    0.893E+00
RMM:  80    -0.231528418656E+04    0.24208E+00   -0.16632E-01 31431   0.626E-01    0.598E+00
RMM:  81    -0.231584845597E+04   -0.56427E+00   -0.55478E-01 28285   0.148E+00    0.117E+01
RMM:  82    -0.231524479684E+04    0.60366E+00   -0.27038E-01 27723   0.134E+00    0.505E+00
RMM:  83    -0.231522135424E+04    0.23443E-01   -0.18137E-01 32198   0.607E-01    0.465E+00
RMM:  84    -0.231525590237E+04   -0.34548E-01   -0.16481E-01 35238   0.489E-01    0.519E+00
RMM:  85    -0.231519718350E+04    0.58719E-01   -0.11647E-01 34115   0.449E-01    0.377E+00
RMM:  86    -0.231523307999E+04   -0.35896E-01   -0.28562E-01 35002   0.692E-01    0.435E+00
RMM:  87    -0.231517506750E+04    0.58012E-01   -0.70832E-02 29233   0.512E-01    0.286E+00
RMM:  88    -0.231514477931E+04    0.30288E-01   -0.46344E-02 32246   0.326E-01    0.175E+00
RMM:  89    -0.231513883594E+04    0.59434E-02   -0.25289E-02 32139   0.242E-01    0.139E+00
RMM:  90    -0.231513607852E+04    0.27574E-02   -0.22597E-02 37207   0.176E-01    0.110E+00
RMM:  91    -0.231514836978E+04   -0.12291E-01   -0.31225E-02 29152   0.328E-01    0.185E+00
RMM:  92    -0.231513315627E+04    0.15214E-01   -0.12796E-02 27776   0.287E-01    0.760E-01
RMM:  93    -0.231513579282E+04   -0.26365E-02   -0.10494E-02 31642   0.157E-01    0.102E+00
RMM:  94    -0.231513216098E+04    0.36318E-02   -0.41038E-03 28750   0.133E-01    0.553E-01
RMM:  95    -0.231513154455E+04    0.61643E-03   -0.33740E-03 31467   0.892E-02    0.411E-01
RMM:  96    -0.231513292132E+04   -0.13768E-02   -0.41598E-03 29579   0.120E-01    0.617E-01
RMM:  97    -0.231513133085E+04    0.15905E-02   -0.15273E-03 28217   0.965E-02    0.294E-01
RMM:  98    -0.231513142525E+04   -0.94405E-04   -0.15260E-03 35246   0.448E-02    0.291E-01
RMM:  99    -0.231513152260E+04   -0.97350E-04   -0.98032E-04 34759   0.381E-02    0.290E-01
RMM: 100    -0.231513146358E+04    0.59028E-04   -0.52359E-04 31428   0.350E-02    0.245E-01
RMM: 101    -0.231513187170E+04   -0.40812E-03   -0.11037E-03 29271   0.607E-02    0.352E-01
RMM: 102    -0.231513132342E+04    0.54828E-03   -0.40376E-04 28020   0.514E-02    0.138E-01
RMM: 103    -0.231513134460E+04   -0.21178E-04   -0.35104E-04 34516   0.218E-02    0.125E-01
RMM: 104    -0.231513136337E+04   -0.18773E-04   -0.17495E-04 31936   0.197E-02    0.102E-01
RMM: 105    -0.231513134892E+04    0.14452E-04   -0.10721E-04 32474   0.148E-02    0.617E-02
RMM: 106    -0.231513139874E+04   -0.49823E-04   -0.14263E-04 31107   0.194E-02    0.103E-01
RMM: 107    -0.231513137897E+04    0.19770E-04   -0.53537E-05 28457   0.170E-02    0.606E-02
RMM: 108    -0.231513140799E+04   -0.29018E-04   -0.56083E-05 36596   0.773E-03    0.507E-02
RMM: 109    -0.231513142374E+04   -0.15754E-04   -0.24636E-05 31464   0.658E-03    0.434E-02
RMM: 110    -0.231513143774E+04   -0.14001E-04   -0.13000E-05 26539   0.493E-03    0.415E-02
RMM: 111    -0.231513143963E+04   -0.18818E-05   -0.15791E-05 28969   0.692E-03    0.390E-02
RMM: 112    -0.231513145236E+04   -0.12734E-04   -0.72194E-06 22705   0.517E-03    0.247E-02
RMM: 113    -0.231513147305E+04   -0.20686E-04   -0.59185E-06 20863   0.404E-03    0.224E-02
RMM: 114    -0.231513148128E+04   -0.82299E-05   -0.40207E-06 18932   0.376E-03    0.171E-02
RMM: 115    -0.231513148767E+04   -0.63930E-05   -0.31218E-06 17745   0.312E-03    0.139E-02
RMM: 116    -0.231513150568E+04   -0.18013E-04   -0.65097E-06 22000   0.433E-03    0.189E-02
RMM: 117    -0.231513150600E+04   -0.31432E-06   -0.31064E-06 16827   0.406E-03
   1 F= -.23151315E+04 E0= -.23122510E+04  d E =-.231513E+04
       N       E                     dE             d eps       ncg     rms          rms(c)
DAV:   1    -0.231536101869E+04   -0.22951E+00   -0.53829E+01 28056   0.768E+00    0.110E+00
RMM:   2    -0.231562371501E+04   -0.26270E+00   -0.79925E-01 28025   0.187E+00    0.628E+00
RMM:   3    -0.231614680364E+04   -0.52309E+00   -0.26339E-01 39387   0.636E-01    0.117E+01
RMM:   4    -0.231557746902E+04    0.56933E+00   -0.73785E-02 28865   0.485E-01    0.527E+00
RMM:   5    -0.231667620058E+04   -0.10987E+01   -0.12196E-01 30314   0.556E-01    0.154E+01
RMM:   6    -0.231566271979E+04    0.10135E+01   -0.15373E-01 38042   0.465E-01    0.620E+00
RMM:   7    -0.231557838061E+04    0.84339E-01   -0.11347E-01 27737   0.706E-01    0.540E+00
RMM:   8    -0.231558642963E+04   -0.80490E-02   -0.62629E-02 28204   0.478E-01    0.565E+00
RMM:   9    -0.231545200210E+04    0.13443E+00   -0.38317E-02 27823   0.422E-01    0.233E+00
RMM:  10    -0.231545938879E+04   -0.73867E-02   -0.50959E-02 28142   0.438E-01    0.265E+00
RMM:  11    -0.231544375999E+04    0.15629E-01   -0.30372E-02 27973   0.357E-01    0.208E+00
RMM:  12    -0.231542352762E+04    0.20232E-01   -0.10795E-02 27724   0.249E-01    0.826E-01
RMM:  13    -0.231542067110E+04    0.28565E-02   -0.54811E-03 29211   0.141E-01    0.523E-01
RMM:  14    -0.231542111195E+04   -0.44085E-03   -0.81629E-03 34450   0.115E-01    0.538E-01
RMM:  15    -0.231541992703E+04    0.11849E-02   -0.25567E-03 29324   0.940E-02    0.244E-01
RMM:  16    -0.231541989775E+04    0.29276E-04   -0.23565E-03 36969   0.532E-02    0.175E-01
RMM:  17    -0.231542010260E+04   -0.20485E-03   -0.13822E-03 34036   0.478E-02    0.242E-01
RMM:  18    -0.231541987674E+04    0.22586E-03   -0.53341E-04 30531   0.395E-02    0.105E-01
RMM:  19    -0.231541990479E+04   -0.28050E-04   -0.58500E-04 38419   0.229E-02    0.999E-02
RMM:  20    -0.231541992555E+04   -0.20753E-04   -0.25103E-04 32005   0.240E-02    0.108E-01
RMM:  21    -0.231541989537E+04    0.30180E-04   -0.11366E-04 30451   0.188E-02    0.735E-02
RMM:  22    -0.231541989949E+04   -0.41196E-05   -0.13419E-04 39772   0.105E-02    0.672E-02
RMM:  23    -0.231541989444E+04    0.50435E-05   -0.51407E-05 33029   0.958E-03    0.509E-02
RMM:  24    -0.231541988523E+04    0.92124E-05   -0.22673E-05 30433   0.731E-03    0.251E-02
RMM:  25    -0.231541988641E+04   -0.11771E-05   -0.20600E-05 29555   0.412E-03    0.223E-02
RMM:  26    -0.231541988717E+04   -0.75728E-06   -0.90968E-06 25209   0.437E-03
   2 F= -.23154199E+04 E0= -.23125356E+04  d E =-.288381E+00
       N       E                     dE             d eps       ncg     rms          rms(c)
DAV:   1    -0.231531155211E+04    0.10833E+00   -0.48323E+02 27720   0.232E+01    0.393E+00
RMM:   2    -0.231815131765E+04   -0.28398E+01   -0.10418E+01 27895   0.664E+00    0.203E+01
RMM:   3    -0.232733308812E+04   -0.91818E+01   -0.35071E+00 38796   0.250E+00    0.448E+01
RMM:   4    -0.231997893928E+04    0.73541E+01   -0.13228E+00 29608   0.189E+00    0.271E+01
RMM:   5    -0.234072715279E+04   -0.20748E+02   -0.22095E+00 32964   0.212E+00    0.694E+01
RMM:   6    -0.231889416290E+04    0.21833E+02   -0.18778E+00 33602   0.201E+00    0.205E+01
RMM:   7    -0.231693549808E+04    0.19587E+01   -0.13065E+00 27732   0.257E+00    0.126E+01
RMM:   8    -0.231721850074E+04   -0.28300E+00   -0.88369E-01 27779   0.205E+00    0.149E+01
RMM:   9    -0.231808102548E+04   -0.86252E+00   -0.12924E+00 36089   0.144E+00    0.200E+01
RMM:  10    -0.231660960001E+04    0.14714E+01   -0.71859E-01 27739   0.176E+00    0.986E+00
RMM:  11    -0.231621185280E+04    0.39775E+00   -0.32499E-01 27731   0.131E+00    0.586E+00
RMM:  12    -0.231605929660E+04    0.15256E+00   -0.13426E-01 28584   0.697E-01    0.243E+00
RMM:  13    -0.231606000558E+04   -0.70897E-03   -0.17755E-01 35762   0.521E-01    0.235E+00
RMM:  14    -0.231604882853E+04    0.11177E-01   -0.71619E-02 31257   0.424E-01    0.171E+00
RMM:  15    -0.231603968756E+04    0.91410E-02   -0.34381E-02 30099   0.327E-01    0.111E+00
RMM:  16    -0.231604262173E+04   -0.29342E-02   -0.42120E-02 38288   0.232E-01    0.122E+00
RMM:  17    -0.231604073263E+04    0.18891E-02   -0.12910E-02 29604   0.211E-01    0.104E+00
RMM:  18    -0.231603910334E+04    0.16293E-02   -0.99992E-03 33132   0.139E-01    0.827E-01
RMM:  19    -0.231603753447E+04    0.15689E-02   -0.84766E-03 34735   0.122E-01    0.591E-01
RMM:  20    -0.231603740733E+04    0.12714E-03   -0.31968E-03 29842   0.105E-01    0.582E-01
RMM:  21    -0.231603726576E+04    0.14156E-03   -0.34251E-03 36465   0.674E-02    0.529E-01
RMM:  22    -0.231603650702E+04    0.75875E-03   -0.19521E-03 33822   0.597E-02    0.328E-01
RMM:  23    -0.231603603646E+04    0.47056E-03   -0.77565E-04 30472   0.501E-02    0.136E-01
RMM:  24    -0.231603612970E+04   -0.93241E-04   -0.94765E-04 35836   0.362E-02    0.168E-01
RMM:  25    -0.231603609806E+04    0.31642E-04   -0.39783E-04 31302   0.314E-02    0.143E-01
RMM:  26    -0.231603607165E+04    0.26411E-04   -0.28226E-04 34830   0.203E-02    0.112E-01
RMM:  27    -0.231603606306E+04    0.85904E-05   -0.20795E-04 39567   0.144E-02    0.930E-02
RMM:  28    -0.231603603041E+04    0.32643E-04   -0.68476E-05 31303   0.130E-02    0.435E-02
RMM:  29    -0.231603603082E+04   -0.40609E-06   -0.63222E-05 37284   0.793E-03    0.352E-02
RMM:  30    -0.231603603195E+04   -0.11304E-05   -0.33643E-05 34914   0.656E-03    0.341E-02
RMM:  31    -0.231603602783E+04    0.41147E-05   -0.13215E-05 28562   0.579E-03    0.177E-02
RMM:  32    -0.231603602751E+04    0.32166E-06   -0.82289E-06 23194   0.365E-03
   3 F= -.23160360E+04 E0= -.23131422E+04  d E =-.904522E+00
       N       E                     dE             d eps       ncg     rms          rms(c)
DAV:   1    -0.231238988506E+04    0.36461E+01   -0.19340E+03 27720   0.474E+01    0.829E+00
RMM:   2    -0.232734669201E+04   -0.14957E+02   -0.54518E+01 27830   0.134E+01    0.463E+01
RMM:   3    -0.235796353738E+04   -0.30617E+02   -0.16349E+01 37433   0.584E+00    0.840E+01
RMM:   4    -0.234474274231E+04    0.13221E+02   -0.61966E+00 34107   0.332E+00    0.723E+01
RMM:   5    -0.239062268914E+04   -0.45880E+02   -0.19291E+01 37869   0.410E+00    0.114E+02
RMM:   6    -0.232454809179E+04    0.66075E+02   -0.63094E+00 29046   0.447E+00    0.357E+01
RMM:   7    -0.232161733100E+04    0.29308E+01   -0.43732E+00 27750   0.466E+00    0.323E+01
RMM:   8    -0.232969604933E+04   -0.80787E+01   -0.39710E+00 28384   0.376E+00    0.515E+01
RMM:   9    -0.231964967109E+04    0.10046E+02   -0.33905E+00 28070   0.366E+00    0.246E+01
RMM:  10    -0.231919722428E+04    0.45245E+00   -0.29538E+00 27766   0.366E+00    0.233E+01
RMM:  11    -0.231683042542E+04    0.23668E+01   -0.13989E+00 27770   0.272E+00    0.111E+01
RMM:  12    -0.231633331575E+04    0.49711E+00   -0.87676E-01 29549   0.165E+00    0.615E+00
RMM:  13    -0.231630581664E+04    0.27499E-01   -0.80322E-01 35324   0.108E+00    0.536E+00
RMM:  14    -0.231623880885E+04    0.67008E-01   -0.21369E-01 29352   0.856E-01    0.394E+00
RMM:  15    -0.231621471542E+04    0.24093E-01   -0.17221E-01 31850   0.620E-01    0.309E+00
RMM:  16    -0.231620157543E+04    0.13140E-01   -0.16360E-01 36496   0.454E-01    0.242E+00
RMM:  17    -0.231620099524E+04    0.58019E-03   -0.64295E-02 30912   0.422E-01    0.238E+00
RMM:  18    -0.231619040772E+04    0.10588E-01   -0.65602E-02 34868   0.334E-01    0.169E+00
RMM:  19    -0.231619401229E+04   -0.36046E-02   -0.24714E-02 30047   0.272E-01    0.196E+00
RMM:  20    -0.231620026428E+04   -0.62520E-02   -0.19394E-02 31600   0.217E-01    0.221E+00
RMM:  21    -0.231619374483E+04    0.65194E-02   -0.16680E-02 31092   0.207E-01    0.181E+00
RMM:  22    -0.231618473457E+04    0.90103E-02   -0.80609E-03 29437   0.174E-01    0.118E+00
RMM:  23    -0.231618162943E+04    0.31051E-02   -0.98076E-03 32559   0.145E-01    0.851E-01
RMM:  24    -0.231618005783E+04    0.15716E-02   -0.59507E-03 30755   0.126E-01    0.647E-01
RMM:  25    -0.231617907905E+04    0.97879E-03   -0.31847E-03 31039   0.931E-02    0.460E-01
RMM:  26    -0.231617903636E+04    0.42689E-04   -0.35541E-03 39595   0.528E-02    0.393E-01
RMM:  27    -0.231617892038E+04    0.11598E-03   -0.12378E-03 35272   0.412E-02    0.345E-01
RMM:  28    -0.231617888719E+04    0.33185E-04   -0.70623E-04 35377   0.314E-02    0.326E-01
RMM:  29    -0.231617855660E+04    0.33059E-03   -0.51077E-04 33167   0.310E-02    0.211E-01
RMM:  30    -0.231617840733E+04    0.14926E-03   -0.21759E-04 30334   0.260E-02    0.139E-01
RMM:  31    -0.231617839522E+04    0.12117E-04   -0.25260E-04 33926   0.202E-02    0.122E-01
RMM:  32    -0.231617837749E+04    0.17728E-04   -0.16630E-04 33147   0.177E-02    0.106E-01
RMM:  33    -0.231617836000E+04    0.17485E-04   -0.81232E-05 32389   0.128E-02    0.856E-02
RMM:  34    -0.231617835409E+04    0.59148E-05   -0.75675E-05 39268   0.786E-03    0.734E-02
RMM:  35    -0.231617833155E+04    0.22541E-04   -0.22219E-05 31243   0.669E-03    0.334E-02
RMM:  36    -0.231617832838E+04    0.31703E-05   -0.12711E-05 27319   0.507E-03    0.236E-02
RMM:  37    -0.231617832881E+04   -0.43062E-06   -0.11727E-05 27670   0.482E-03    0.234E-02
RMM:  38    -0.231617832747E+04    0.13382E-05   -0.53079E-06 21044   0.433E-03    0.175E-02
RMM:  39    -0.231617832708E+04    0.38606E-06   -0.29817E-06 18586   0.271E-03
   4 F= -.23161783E+04 E0= -.23132876E+04  d E =-.104682E+01
       N       E                     dE             d eps       ncg     rms          rms(c)
DAV:   1    -0.231585593764E+04    0.32239E+00   -0.31565E+02 27720   0.187E+01    0.315E+00
RMM:   2    -0.231791640384E+04   -0.20605E+01   -0.68037E+00 27822   0.554E+00    0.185E+01
RMM:   3    -0.232207534244E+04   -0.41589E+01   -0.17995E+00 35083   0.208E+00    0.322E+01
RMM:   4    -0.231978023147E+04    0.22951E+01   -0.97424E-01 34913   0.129E+00    0.248E+01
RMM:   5    -0.232638894789E+04   -0.66087E+01   -0.10941E+00 32219   0.153E+00    0.438E+01
RMM:   6    -0.231830164798E+04    0.80873E+01   -0.12232E+00 34082   0.155E+00    0.179E+01
RMM:   7    -0.231829932198E+04    0.23260E-02   -0.97463E-01 27893   0.202E+00    0.193E+01
RMM:   8    -0.231705885905E+04    0.12405E+01   -0.44695E-01 28344   0.132E+00    0.118E+01
RMM:   9    -0.231656301773E+04    0.49584E+00   -0.36590E-01 27778   0.130E+00    0.711E+00
RMM:  10    -0.231669372617E+04   -0.13071E+00   -0.48291E-01 28136   0.134E+00    0.847E+00
RMM:  11    -0.231645148992E+04    0.24224E+00   -0.24637E-01 27774   0.113E+00    0.522E+00
RMM:  12    -0.231632935753E+04    0.12213E+00   -0.86228E-02 27769   0.724E-01    0.263E+00
RMM:  13    -0.231630979689E+04    0.19561E-01   -0.48845E-02 31101   0.339E-01    0.183E+00
RMM:  14    -0.231631090832E+04   -0.11114E-02   -0.58449E-02 32624   0.352E-01    0.180E+00
RMM:  15    -0.231629735306E+04    0.13555E-01   -0.18623E-02 28052   0.294E-01    0.883E-01
RMM:  16    -0.231629825830E+04   -0.90524E-03   -0.19622E-02 36900   0.164E-01    0.905E-01
RMM:  17    -0.231629804409E+04    0.21421E-03   -0.10913E-02 31909   0.152E-01    0.838E-01
RMM:  18    -0.231629550692E+04    0.25372E-02   -0.43415E-03 29899   0.121E-01    0.466E-01
RMM:  19    -0.231629561961E+04   -0.11269E-03   -0.54245E-03 36477   0.823E-02    0.424E-01
RMM:  20    -0.231629533144E+04    0.28817E-03   -0.21433E-03 31174   0.744E-02    0.343E-01
RMM:  21    -0.231629525612E+04    0.75326E-04   -0.13201E-03 33027   0.505E-02    0.312E-01
RMM:  22    -0.231629527521E+04   -0.19095E-04   -0.12402E-03 37638   0.381E-02    0.295E-01
RMM:  23    -0.231629503696E+04    0.23825E-03   -0.40523E-04 31282   0.321E-02    0.185E-01
RMM:  24    -0.231629498212E+04    0.54847E-04   -0.31198E-04 36060   0.204E-02    0.142E-01
RMM:  25    -0.231629492871E+04    0.53411E-04   -0.21823E-04 37450   0.166E-02    0.904E-02
RMM:  26    -0.231629490713E+04    0.21577E-04   -0.81503E-05 31397   0.141E-02    0.630E-02
RMM:  27    -0.231629490893E+04   -0.18005E-05   -0.80665E-05 38720   0.901E-03    0.578E-02
RMM:  28    -0.231629490372E+04    0.52089E-05   -0.38993E-05 34617   0.729E-03    0.438E-02
RMM:  29    -0.231629489656E+04    0.71604E-05   -0.13849E-05 27536   0.593E-03    0.224E-02
RMM:  30    -0.231629489657E+04   -0.53842E-08   -0.10315E-05 24404   0.355E-03    0.195E-02
RMM:  31    -0.231629489636E+04    0.20897E-06   -0.61542E-06 23129   0.403E-03
   5 F= -.23162949E+04 E0= -.23133984E+04  d E =-.116339E+01
