<?xml version="1.0" encoding="ISO-8859-1"?>
<modeling>
 <generator>
  <i name="program" type="string">vasp </i>
  <i name="version" type="string">5.4.4.18Apr17-6-g9f103f2a35  </i>
  <i name="subversion" type="string">(build Sep 27 2018 12:46:37) complex + VL-xray_ parallel </i>
  <i name="platform" type="string">LLNL_Quartz_ifc </i>
  <i name="date" type="string">2021 09 26 </i>
  <i name="time" type="string">17:55:19 </i>
 </generator>
 <incar>
  <i type="int" name="ISTART">     2</i>
  <i type="string" name="PREC">accurate</i>
  <i type="string" name="ALGO"> Fast</i>
  <i type="int" name="ICHARG">     2</i>
  <i type="int" name="INIWAV">     1</i>
  <i type="int" name="NELM">   200</i>
  <i type="int" name="NELMIN">     4</i>
  <i type="int" name="IBRION">     2</i>
  <i name="EDIFF">      0.00000100</i>
  <i type="int" name="NSW">     5</i>
  <i type="int" name="ISIF">     2</i>
  <i type="int" name="ISYM">     2</i>
  <i name="ENCUT">    450.00000000</i>
  <i name="POTIM">      0.25000000</i>
  <i type="string" name="LREAL"> Auto</i>
  <i type="int" name="ISMEAR">     0</i>
  <i name="SIGMA">      0.15000000</i>
  <i type="logical" name="LWAVE"> F  </i>
  <i type="logical" name="LCHARG"> F  </i>
  <i type="int" name="ICORELEVEL">     0</i>
  <i type="int" name="CLNT">     1</i>
  <i type="int" name="CLN">     1</i>
  <i type="int" name="INCAR     ">     0</i>
  <i name="CLZ">      0.00000000</i>
  <v type="int" name="KPOINT_BSE">    -1     0     0     0</v>
  <i type="int" name="NELM">   200</i>
 </incar>
 <structure name="primitive_cell" >
  <crystal>
   <varray name="basis" >
    <v>       9.72667804       0.00000000       0.00000000 </v>
    <v>       0.00000000       8.42355028       0.00000000 </v>
    <v>       0.00000000       0.00000000      45.00000000 </v>
   </varray>
   <i name="volume">   3686.99226691 </i>
   <varray name="rec_basis" >
    <v>       0.10281002       0.00000000       0.00000000 </v>
    <v>       0.00000000       0.11871479       0.00000000 </v>
    <v>       0.00000000       0.00000000       0.02222222 </v>
   </varray>
  </crystal>
  <varray name="positions" >
   <v>       0.05335359      -0.29814670       0.21142541 </v>
   <v>      -0.06006170      -0.21175166       0.25545745 </v>
   <v>      -0.05874891      -0.38769777       0.16663327 </v>
   <v>       0.06566055      -0.46212449       0.25542738 </v>
   <v>      -0.07113819      -0.04883053       0.21133085 </v>
   <v>       0.17873523      -0.04871154       0.21126543 </v>
   <v>       0.06631261      -0.13753405       0.16665958 </v>
   <v>       0.30337567      -0.29803392       0.21145480 </v>
   <v>      -0.19672728      -0.29821692       0.21147000 </v>
   <v>       0.17845970       0.45121102       0.21131316 </v>
   <v>      -0.07144715       0.45093947       0.21131140 </v>
   <v>       0.18993918      -0.21183221       0.25547415 </v>
   <v>       0.19133055      -0.38804949       0.16674258 </v>
   <v>      -0.18432323      -0.46231944       0.25544189 </v>
   <v>      -0.18268515      -0.13795177       0.16585897 </v>
   <v>       0.06558092       0.03760493       0.25545756 </v>
   <v>       0.06626585       0.36243349       0.16654234 </v>
   <v>       0.31516381      -0.46206830       0.25544924 </v>
   <v>       0.31646515      -0.13756330       0.16674315 </v>
   <v>      -0.31000488      -0.21172218       0.25545362 </v>
   <v>      -0.30823699      -0.38723049       0.16655322 </v>
   <v>      -0.05875496       0.11168549       0.16666060 </v>
   <v>      -0.18416298       0.03754963       0.25534516 </v>
   <v>      -0.06810355      -0.22124729       0.12405910 </v>
   <v>      -0.06014860       0.28820147       0.25546515 </v>
   <v>       0.18264223      -0.22077679       0.12428293 </v>
   <v>       0.06083544      -0.46893421       0.12428594 </v>
   <v>      -0.18364940       0.36214925       0.16650900 </v>
   <v>       0.17780351      -0.37633218       0.29965116 </v>
   <v>      -0.07214439      -0.37637067       0.29965742 </v>
   <v>       0.42824337      -0.04873257       0.21144558 </v>
   <v>      -0.32171489      -0.04865313       0.21157466 </v>
   <v>       0.05344928       0.20183961       0.21139102 </v>
   <v>      -0.32159207       0.45087455       0.21128791 </v>
   <v>       0.42854936       0.45106825       0.21128986 </v>
   <v>       0.19147324       0.11267548       0.16687087 </v>
   <v>       0.18990028       0.28821534       0.25546801 </v>
   <v>       0.05276998      -0.12607676       0.29980096 </v>
   <v>       0.31549578       0.03770306       0.25547391 </v>
   <v>       0.44015276      -0.21186496       0.25545916 </v>
   <v>       0.31627759       0.36258041       0.16673015 </v>
   <v>       0.44173299      -0.38750743       0.16679139 </v>
   <v>      -0.18940719      -0.46804323       0.12428842 </v>
   <v>       0.06066786       0.03152597       0.12415421 </v>
   <v>       0.05269114       0.37386871       0.29977397 </v>
   <v>      -0.44629147      -0.29818318       0.21149255 </v>
   <v>      -0.19642169       0.20162751       0.21137028 </v>
   <v>       0.30335929       0.20184834       0.21142061 </v>
   <v>       0.30923985      -0.46934130       0.12424756 </v>
   <v>       0.30267498      -0.12605232       0.29975433 </v>
   <v>      -0.19732621      -0.12590916       0.29984026 </v>
   <v>      -0.43425035      -0.46242525       0.25547123 </v>
   <v>      -0.30879560       0.11167635       0.16657737 </v>
   <v>      -0.43420474      -0.13835828       0.16586104 </v>
   <v>      -0.31004832       0.28811498       0.25548560 </v>
   <v>      -0.18903668       0.03167250       0.12429532 </v>
   <v>      -0.31835079      -0.22245260       0.12406006 </v>
   <v>       0.30263409       0.37396766       0.29976634 </v>
   <v>       0.31006600       0.03182953       0.12426764 </v>
   <v>      -0.19715087       0.37373360       0.29970725 </v>
   <v>       0.43179746      -0.22194380       0.12420952 </v>
   <v>      -0.06538184       0.27896063       0.12409121 </v>
   <v>       0.42776576      -0.37609951       0.29972515 </v>
   <v>      -0.32228142      -0.37604007       0.29973528 </v>
   <v>       0.18201654       0.27763764       0.12404884 </v>
   <v>       0.17786255       0.12375840       0.29970437 </v>
   <v>      -0.07230830       0.12396776       0.29980831 </v>
   <v>       0.44006669       0.28811068       0.25548377 </v>
   <v>       0.44149534       0.11230958       0.16683511 </v>
   <v>      -0.43454959       0.03747340       0.25544744 </v>
   <v>      -0.43385881       0.36218936       0.16665418 </v>
   <v>       0.06537495      -0.29056068       0.34414646 </v>
   <v>      -0.44084600      -0.46822926       0.12424866 </v>
   <v>      -0.18454909      -0.29057597       0.34414915 </v>
   <v>      -0.05964905       0.45936168       0.34418437 </v>
   <v>      -0.31772285       0.27899906       0.12418885 </v>
   <v>      -0.44647442       0.20152014       0.21144863 </v>
   <v>      -0.44724047      -0.12611211       0.29987708 </v>
   <v>      -0.05957689      -0.04055515       0.34413354 </v>
   <v>       0.19042801       0.45938282       0.34415685 </v>
   <v>       0.43070241       0.27806854       0.12417276 </v>
   <v>       0.42772975       0.12405076       0.29975200 </v>
   <v>      -0.32209969       0.12419031       0.29980011 </v>
   <v>       0.19034841      -0.04062648       0.34415087 </v>
   <v>       0.31534027      -0.29059067       0.34416545 </v>
   <v>      -0.43994916       0.03196225       0.12437428 </v>
   <v>      -0.44728042       0.37402697       0.29975470 </v>
   <v>      -0.30974537       0.45932076       0.34417812 </v>
   <v>      -0.30972746      -0.04062665       0.34417420 </v>
   <v>       0.06530893       0.20942912       0.34411147 </v>
   <v>       0.44032038       0.45929829       0.34419685 </v>
   <v>       0.44034574      -0.04074404       0.34418517 </v>
   <v>      -0.43460089      -0.29047796       0.34413962 </v>
   <v>      -0.18481578       0.20948043       0.34410992 </v>
   <v>       0.31534431       0.20949758       0.34410663 </v>
   <v>       0.06212250      -0.45822359       0.38851166 </v>
   <v>      -0.06300321      -0.20827055       0.38853249 </v>
   <v>       0.18686316      -0.20838481       0.38846903 </v>
   <v>      -0.18805780      -0.45825198       0.38844044 </v>
   <v>       0.31218176      -0.45823896       0.38857168 </v>
   <v>       0.06214964       0.04181322       0.38854931 </v>
   <v>      -0.43453844       0.20943817       0.34413502 </v>
   <v>      -0.06280798       0.29191526       0.38858218 </v>
   <v>      -0.31295811      -0.20823416       0.38853948 </v>
   <v>       0.18707584       0.29180871       0.38852064 </v>
   <v>      -0.18778730       0.04189384       0.38861182 </v>
   <v>       0.43704164      -0.20822562       0.38853553 </v>
   <v>       0.31210325       0.04185326       0.38854481 </v>
   <v>      -0.31299948       0.29179202       0.38853047 </v>
   <v>      -0.43790792      -0.45822426       0.38854808 </v>
   <v>       0.43708562       0.29180409       0.38854979 </v>
   <v>      -0.43777883       0.04190961       0.38859415 </v>
   <v>      -0.06702674      -0.37481951       0.43318170 </v>
   <v>       0.18342001      -0.37488516       0.43313100 </v>
   <v>       0.05829294      -0.12527206       0.43312156 </v>
   <v>       0.05835371       0.37497844       0.43310574 </v>
   <v>      -0.19145915      -0.12500354       0.43312619 </v>
   <v>       0.30844967      -0.12494378       0.43312329 </v>
   <v>      -0.19153568       0.37510323       0.43313752 </v>
   <v>      -0.31650664      -0.37497925       0.43307620 </v>
   <v>       0.30841775       0.37484566       0.43310460 </v>
   <v>      -0.06657179       0.12490576       0.43310164 </v>
   <v>       0.43341958      -0.37491991       0.43310376 </v>
   <v>       0.18354892       0.12497460       0.43313771 </v>
   <v>      -0.44151807      -0.12494922       0.43307924 </v>
   <v>      -0.31654175       0.12500390       0.43306359 </v>
   <v>       0.43339833       0.12509361       0.43307571 </v>
   <v>      -0.44149718       0.37487731       0.43310130 </v>
   <v>       0.06792485      -0.28931493       0.47746781 </v>
   <v>      -0.18214884      -0.28929879       0.47743600 </v>
   <v>      -0.05707601       0.46075698       0.47742612 </v>
   <v>      -0.05713099      -0.03932924       0.47744556 </v>
   <v>       0.19266604       0.46082855       0.47747787 </v>
   <v>       0.31782986      -0.28943419       0.47739505 </v>
   <v>       0.19303563      -0.03928582       0.47750376 </v>
   <v>      -0.30705345       0.46075606       0.47744720 </v>
   <v>      -0.30715038      -0.03936077       0.47746352 </v>
   <v>       0.06793148       0.21065812       0.47746287 </v>
   <v>       0.44275519       0.46070360       0.47748317 </v>
   <v>       0.44293813      -0.03924534       0.47745429 </v>
   <v>      -0.43230455      -0.28956669       0.47746862 </v>
   <v>      -0.18189908       0.21081144       0.47748290 </v>
   <v>       0.31787180       0.21067579       0.47745150 </v>
   <v>      -0.43223171       0.21063488       0.47746791 </v>
   <v>      -0.06756558      -0.21184261      -0.47766527 </v>
   <v>       0.05741845      -0.46165906      -0.47764660 </v>
   <v>       0.18244780      -0.21170932      -0.47760192 </v>
   <v>      -0.19259509      -0.46170572      -0.47762811 </v>
   <v>       0.30742250      -0.46176530      -0.47765439 </v>
   <v>       0.05744166       0.03824736      -0.47764783 </v>
   <v>      -0.31766932      -0.21149436      -0.47773145 </v>
   <v>      -0.06761446       0.28818033      -0.47764249 </v>
   <v>       0.18243797       0.28820340      -0.47766909 </v>
   <v>      -0.19262126       0.03825318      -0.47764128 </v>
   <v>       0.43223098      -0.21165664      -0.47771117 </v>
   <v>       0.30705962       0.03838997      -0.47768441 </v>
   <v>      -0.31757880       0.28813077      -0.47768224 </v>
   <v>      -0.44272031      -0.46157334      -0.47765733 </v>
   <v>       0.43239647       0.28824015      -0.47770065 </v>
   <v>      -0.44253430       0.03829511      -0.47763161 </v>
   <v>       0.06775473      -0.27680877      -0.12389391 </v>
   <v>      -0.18258516      -0.27645285      -0.12386374 </v>
   <v>      -0.06049548       0.46743241      -0.12404037 </v>
   <v>       0.18949299       0.46738916      -0.12408156 </v>
   <v>      -0.06051253      -0.03256591      -0.12404991 </v>
   <v>       0.31826883      -0.27610508      -0.12382474 </v>
   <v>       0.18941605      -0.03247574      -0.12399807 </v>
   <v>       0.06782027       0.22286945      -0.12388125 </v>
   <v>      -0.31056601       0.46756218      -0.12411322 </v>
   <v>      -0.31039870      -0.03176322      -0.12401984 </v>
   <v>       0.43966874       0.46747406      -0.12412667 </v>
   <v>       0.43961267      -0.03233315      -0.12395545 </v>
   <v>      -0.18236847       0.22340119      -0.12388099 </v>
   <v>      -0.43225999      -0.27576651      -0.12393002 </v>
   <v>       0.31821445       0.22384351      -0.12394322 </v>
   <v>      -0.05842766      -0.37487751      -0.43312332 </v>
   <v>       0.06679675      -0.12515040      -0.43323531 </v>
   <v>       0.19174659      -0.37493737      -0.43317436 </v>
   <v>      -0.18298200      -0.12515503      -0.43328826 </v>
   <v>       0.06673404       0.37462394      -0.43317856 </v>
   <v>       0.31681724      -0.12558291      -0.43322583 </v>
   <v>      -0.43226569       0.22388532      -0.12387936 </v>
   <v>      -0.30827156      -0.37503537      -0.43322246 </v>
   <v>      -0.18337379       0.37474598      -0.43317386 </v>
   <v>      -0.05834252       0.12505542      -0.43314286 </v>
   <v>       0.31661834       0.37471579      -0.43318905 </v>
   <v>       0.44206134      -0.37499026      -0.43327175 </v>
   <v>       0.19159272       0.12498223      -0.43310709 </v>
   <v>      -0.43320104      -0.12510428      -0.43324430 </v>
   <v>      -0.30820677       0.12513253      -0.43327907 </v>
   <v>       0.44165921       0.12498742      -0.43317986 </v>
   <v>      -0.43330401       0.37489491      -0.43310546 </v>
   <v>      -0.06654685      -0.36241123      -0.16646618 </v>
   <v>       0.18342395      -0.36245946      -0.16649017 </v>
   <v>       0.05864446      -0.11225282      -0.16656893 </v>
   <v>       0.05859891       0.38806499      -0.16653970 </v>
   <v>      -0.19149570      -0.11232667      -0.16648442 </v>
   <v>       0.30855807      -0.11232779      -0.16649834 </v>
   <v>      -0.19145532       0.38787687      -0.16649792 </v>
   <v>       0.30848708       0.38769321      -0.16651281 </v>
   <v>      -0.31635043      -0.36225701      -0.16650102 </v>
   <v>       0.43365940      -0.36215007      -0.16650746 </v>
   <v>      -0.06630789       0.13760214      -0.16651281 </v>
   <v>       0.18357430       0.13762476      -0.16647582 </v>
   <v>      -0.44139707      -0.11257148      -0.16649428 </v>
   <v>      -0.31660721       0.13760518      -0.16653343 </v>
   <v>       0.43364461       0.13780182      -0.16650844 </v>
   <v>      -0.44140462       0.38778676      -0.16681527 </v>
   <v>       0.06289017      -0.29213820      -0.38868815 </v>
   <v>      -0.18690249      -0.29224244      -0.38873033 </v>
   <v>      -0.06237165       0.45823795      -0.38862236 </v>
   <v>      -0.06238096      -0.04199501      -0.38867004 </v>
   <v>       0.18780520       0.45824266      -0.38860957 </v>
   <v>       0.18776262      -0.04188990      -0.38869318 </v>
   <v>       0.31251952      -0.29189874      -0.38863024 </v>
   <v>      -0.31236894       0.45815445      -0.38876922 </v>
   <v>       0.06261565       0.20800894      -0.38869232 </v>
   <v>      -0.31239540      -0.04174202      -0.38867532 </v>
   <v>       0.43814480       0.45767719      -0.38877998 </v>
   <v>       0.43798376      -0.04198729      -0.38869517 </v>
   <v>      -0.18732770       0.20782551      -0.38864446 </v>
   <v>      -0.43737083      -0.29197978      -0.38863362 </v>
   <v>       0.31286979       0.20802359      -0.38866964 </v>
   <v>      -0.05402786      -0.20110359      -0.21124508 </v>
   <v>       0.07175455      -0.45070213      -0.21134138 </v>
   <v>      -0.43733986       0.20681708      -0.38875760 </v>
   <v>       0.19584303      -0.20111012      -0.21134386 </v>
   <v>      -0.17891175      -0.45111076      -0.21120846 </v>
   <v>       0.32047729      -0.45053068      -0.21123058 </v>
   <v>       0.07107123       0.04885503      -0.21119950 </v>
   <v>      -0.30458448      -0.20091132      -0.21123004 </v>
   <v>      -0.05348731       0.29852146      -0.21139975 </v>
   <v>      -0.17932222       0.04922931      -0.21115275 </v>
   <v>       0.19599740       0.29826009      -0.21143110 </v>
   <v>       0.32057345       0.04934717      -0.21116606 </v>
   <v>       0.44533268      -0.20099315      -0.21124537 </v>
   <v>      -0.42974083      -0.45057996      -0.21113324 </v>
   <v>      -0.30353679       0.29850023      -0.21125947 </v>
   <v>       0.44513833       0.29883549      -0.21125072 </v>
   <v>      -0.42937644       0.04956565      -0.21127125 </v>
   <v>       0.05972735      -0.45927319      -0.34416669 </v>
   <v>      -0.06546967      -0.20925140      -0.34417405 </v>
   <v>       0.18474331      -0.20940443      -0.34418796 </v>
   <v>      -0.19020664      -0.45892403      -0.34426825 </v>
   <v>       0.30967217      -0.45929177      -0.34418093 </v>
   <v>       0.05967710       0.04058920      -0.34410639 </v>
   <v>      -0.06525206       0.29083604      -0.34423894 </v>
   <v>      -0.31531837      -0.20928421      -0.34422112 </v>
   <v>       0.18462474       0.29061764      -0.34420835 </v>
   <v>      -0.19021862       0.04083453      -0.34423483 </v>
   <v>       0.43442661      -0.20909731      -0.34435407 </v>
   <v>       0.30975525       0.04066897      -0.34423895 </v>
   <v>      -0.44007485      -0.45851320      -0.34431311 </v>
   <v>      -0.31520708       0.29075270      -0.34418340 </v>
   <v>       0.43480913       0.29067137      -0.34410678 </v>
   <v>      -0.44017789       0.04092755      -0.34426256 </v>
   <v>       0.06004710      -0.28802873      -0.25511235 </v>
   <v>      -0.06544567       0.46268758      -0.25509640 </v>
   <v>      -0.18886932      -0.28860008      -0.25538342 </v>
   <v>       0.18523005       0.46229429      -0.25541883 </v>
   <v>       0.31069146      -0.28819379      -0.25541823 </v>
   <v>      -0.06463600      -0.03771081      -0.25554258 </v>
   <v>       0.18541169      -0.03781369      -0.25564812 </v>
   <v>      -0.31550328       0.46252767      -0.25510169 </v>
   <v>       0.06041960       0.21217429      -0.25517441 </v>
   <v>      -0.31512545      -0.03704751      -0.25545734 </v>
   <v>       0.43553899       0.46246002      -0.25547665 </v>
   <v>       0.43503521      -0.03805042      -0.25543051 </v>
   <v>      -0.18974671       0.21222842      -0.25543051 </v>
   <v>       0.31094923       0.21137791      -0.25533270 </v>
   <v>      -0.43937742      -0.28782059      -0.25553919 </v>
   <v>      -0.43976451       0.21084330      -0.25554609 </v>
   <v>      -0.05350814      -0.37410731      -0.29964220 </v>
   <v>       0.07227132      -0.12377199      -0.29986141 </v>
   <v>       0.19717957      -0.37409396      -0.29993312 </v>
   <v>      -0.17814163      -0.12407142      -0.29978262 </v>
   <v>       0.07214934       0.37617922      -0.29969659 </v>
   <v>       0.32233818      -0.12389261      -0.29973830 </v>
   <v>      -0.17770979       0.37613598      -0.29989215 </v>
   <v>      -0.30308734      -0.37343607      -0.29957742 </v>
   <v>      -0.05321032       0.12672225      -0.29969463 </v>
   <v>       0.32204705       0.37624773      -0.29982391 </v>
   <v>       0.19715889       0.12628681      -0.29971521 </v>
   <v>       0.44720794      -0.37380274      -0.29985414 </v>
   <v>      -0.42657222      -0.12294642      -0.29954379 </v>
   <v>      -0.30252185       0.12665025      -0.29968596 </v>
   <v>       0.44742688       0.12618422      -0.29981601 </v>
   <v>      -0.42777265       0.37610453      -0.29981055 </v>
  </varray>
 </structure>
 <varray name="primitive_index" >
  <v type="int" >        1 </v>
  <v type="int" >      238 </v>
  <v type="int" >      193 </v>
  <v type="int" >      220 </v>
  <v type="int" >       71 </v>
  <v type="int" >      109 </v>
  <v type="int" >      208 </v>
  <v type="int" >      192 </v>
  <v type="int" >       81 </v>
  <v type="int" >       10 </v>
  <v type="int" >      242 </v>
  <v type="int" >       89 </v>
  <v type="int" >       35 </v>
  <v type="int" >      227 </v>
  <v type="int" >      285 </v>
  <v type="int" >      263 </v>
  <v type="int" >       55 </v>
  <v type="int" >      243 </v>
  <v type="int" >      191 </v>
  <v type="int" >      128 </v>
  <v type="int" >      117 </v>
  <v type="int" >      158 </v>
  <v type="int" >      222 </v>
  <v type="int" >      155 </v>
  <v type="int" >      252 </v>
  <v type="int" >      262 </v>
  <v type="int" >       22 </v>
  <v type="int" >      183 </v>
  <v type="int" >      162 </v>
  <v type="int" >       38 </v>
  <v type="int" >       15 </v>
  <v type="int" >      161 </v>
  <v type="int" >      160 </v>
  <v type="int" >      205 </v>
  <v type="int" >       28 </v>
  <v type="int" >      126 </v>
  <v type="int" >       45 </v>
  <v type="int" >      147 </v>
  <v type="int" >      278 </v>
  <v type="int" >      226 </v>
  <v type="int" >      138 </v>
  <v type="int" >      265 </v>
  <v type="int" >       14 </v>
  <v type="int" >       48 </v>
  <v type="int" >       26 </v>
  <v type="int" >      251 </v>
  <v type="int" >       70 </v>
  <v type="int" >       61 </v>
  <v type="int" >      197 </v>
  <v type="int" >      108 </v>
  <v type="int" >      277 </v>
  <v type="int" >       33 </v>
  <v type="int" >       90 </v>
  <v type="int" >      283 </v>
  <v type="int" >      203 </v>
  <v type="int" >       99 </v>
  <v type="int" >       25 </v>
  <v type="int" >       52 </v>
  <v type="int" >       23 </v>
  <v type="int" >      104 </v>
  <v type="int" >       83 </v>
  <v type="int" >      133 </v>
  <v type="int" >      100 </v>
  <v type="int" >      144 </v>
  <v type="int" >      189 </v>
  <v type="int" >      142 </v>
  <v type="int" >      145 </v>
  <v type="int" >        5 </v>
  <v type="int" >      143 </v>
  <v type="int" >      261 </v>
  <v type="int" >      122 </v>
  <v type="int" >      112 </v>
  <v type="int" >       43 </v>
  <v type="int" >      118 </v>
  <v type="int" >      190 </v>
  <v type="int" >      267 </v>
  <v type="int" >       63 </v>
  <v type="int" >      255 </v>
  <v type="int" >       92 </v>
  <v type="int" >      120 </v>
  <v type="int" >      279 </v>
  <v type="int" >      169 </v>
  <v type="int" >      170 </v>
  <v type="int" >      254 </v>
  <v type="int" >      257 </v>
  <v type="int" >      214 </v>
  <v type="int" >      124 </v>
  <v type="int" >       34 </v>
  <v type="int" >       24 </v>
  <v type="int" >      153 </v>
  <v type="int" >       95 </v>
  <v type="int" >      236 </v>
  <v type="int" >      123 </v>
  <v type="int" >      172 </v>
  <v type="int" >      258 </v>
  <v type="int" >      247 </v>
  <v type="int" >      198 </v>
  <v type="int" >      229 </v>
  <v type="int" >       86 </v>
  <v type="int" >       57 </v>
  <v type="int" >      246 </v>
  <v type="int" >       50 </v>
  <v type="int" >      273 </v>
  <v type="int" >      156 </v>
  <v type="int" >      105 </v>
  <v type="int" >       17 </v>
  <v type="int" >       79 </v>
  <v type="int" >      134 </v>
  <v type="int" >      232 </v>
  <v type="int" >      171 </v>
  <v type="int" >      248 </v>
  <v type="int" >      244 </v>
  <v type="int" >      282 </v>
  <v type="int" >      168 </v>
  <v type="int" >      211 </v>
  <v type="int" >      256 </v>
  <v type="int" >       46 </v>
  <v type="int" >      240 </v>
  <v type="int" >       29 </v>
  <v type="int" >       94 </v>
  <v type="int" >      215 </v>
  <v type="int" >       32 </v>
  <v type="int" >      281 </v>
  <v type="int" >      223 </v>
  <v type="int" >      239 </v>
  <v type="int" >      115 </v>
  <v type="int" >      184 </v>
  <v type="int" >      136 </v>
  <v type="int" >       62 </v>
  <v type="int" >      268 </v>
  <v type="int" >      166 </v>
  <v type="int" >      179 </v>
  <v type="int" >      132 </v>
  <v type="int" >      217 </v>
  <v type="int" >      176 </v>
  <v type="int" >      249 </v>
  <v type="int" >       91 </v>
  <v type="int" >      185 </v>
  <v type="int" >       19 </v>
  <v type="int" >      130 </v>
  <v type="int" >      207 </v>
  <v type="int" >      206 </v>
  <v type="int" >      175 </v>
  <v type="int" >       11 </v>
  <v type="int" >      116 </v>
  <v type="int" >      178 </v>
  <v type="int" >      107 </v>
  <v type="int" >      241 </v>
  <v type="int" >      230 </v>
  <v type="int" >      218 </v>
  <v type="int" >       18 </v>
  <v type="int" >      209 </v>
  <v type="int" >      225 </v>
  <v type="int" >       93 </v>
  <v type="int" >      187 </v>
  <v type="int" >      266 </v>
  <v type="int" >       87 </v>
  <v type="int" >      141 </v>
  <v type="int" >      111 </v>
  <v type="int" >      181 </v>
  <v type="int" >       58 </v>
  <v type="int" >      101 </v>
  <v type="int" >      151 </v>
  <v type="int" >      125 </v>
  <v type="int" >      274 </v>
  <v type="int" >        2 </v>
  <v type="int" >      154 </v>
  <v type="int" >      212 </v>
  <v type="int" >       27 </v>
  <v type="int" >      234 </v>
  <v type="int" >      173 </v>
  <v type="int" >       97 </v>
  <v type="int" >       41 </v>
  <v type="int" >      131 </v>
  <v type="int" >       39 </v>
  <v type="int" >       72 </v>
  <v type="int" >       12 </v>
  <v type="int" >      148 </v>
  <v type="int" >      276 </v>
  <v type="int" >      250 </v>
  <v type="int" >       40 </v>
  <v type="int" >       13 </v>
  <v type="int" >      264 </v>
  <v type="int" >      146 </v>
  <v type="int" >      259 </v>
  <v type="int" >      216 </v>
  <v type="int" >       21 </v>
  <v type="int" >      233 </v>
  <v type="int" >       98 </v>
  <v type="int" >      235 </v>
  <v type="int" >       68 </v>
  <v type="int" >       16 </v>
  <v type="int" >       59 </v>
  <v type="int" >       66 </v>
  <v type="int" >      177 </v>
  <v type="int" >        6 </v>
  <v type="int" >       75 </v>
  <v type="int" >        7 </v>
  <v type="int" >       73 </v>
  <v type="int" >      150 </v>
  <v type="int" >      271 </v>
  <v type="int" >      152 </v>
  <v type="int" >      129 </v>
  <v type="int" >      188 </v>
  <v type="int" >      174 </v>
  <v type="int" >      221 </v>
  <v type="int" >      269 </v>
  <v type="int" >      103 </v>
  <v type="int" >      180 </v>
  <v type="int" >       82 </v>
  <v type="int" >      245 </v>
  <v type="int" >      201 </v>
  <v type="int" >      194 </v>
  <v type="int" >       51 </v>
  <v type="int" >      280 </v>
  <v type="int" >      102 </v>
  <v type="int" >      228 </v>
  <v type="int" >        3 </v>
  <v type="int" >        4 </v>
  <v type="int" >      260 </v>
  <v type="int" >      167 </v>
  <v type="int" >       30 </v>
  <v type="int" >       77 </v>
  <v type="int" >      149 </v>
  <v type="int" >      284 </v>
  <v type="int" >      287 </v>
  <v type="int" >       36 </v>
  <v type="int" >      106 </v>
  <v type="int" >       60 </v>
  <v type="int" >       67 </v>
  <v type="int" >       88 </v>
  <v type="int" >      199 </v>
  <v type="int" >      253 </v>
  <v type="int" >       54 </v>
  <v type="int" >       85 </v>
  <v type="int" >      114 </v>
  <v type="int" >      121 </v>
  <v type="int" >      182 </v>
  <v type="int" >      127 </v>
  <v type="int" >       44 </v>
  <v type="int" >      196 </v>
  <v type="int" >      157 </v>
  <v type="int" >      113 </v>
  <v type="int" >       42 </v>
  <v type="int" >       49 </v>
  <v type="int" >      135 </v>
  <v type="int" >       69 </v>
  <v type="int" >      210 </v>
  <v type="int" >      200 </v>
  <v type="int" >      213 </v>
  <v type="int" >       53 </v>
  <v type="int" >      186 </v>
  <v type="int" >       31 </v>
  <v type="int" >       76 </v>
  <v type="int" >      159 </v>
  <v type="int" >      140 </v>
  <v type="int" >      204 </v>
  <v type="int" >      119 </v>
  <v type="int" >      202 </v>
  <v type="int" >      110 </v>
  <v type="int" >       84 </v>
  <v type="int" >      275 </v>
  <v type="int" >      237 </v>
  <v type="int" >      137 </v>
  <v type="int" >        9 </v>
  <v type="int" >       80 </v>
  <v type="int" >       78 </v>
  <v type="int" >       20 </v>
  <v type="int" >       96 </v>
  <v type="int" >       64 </v>
  <v type="int" >      272 </v>
  <v type="int" >      286 </v>
  <v type="int" >      164 </v>
  <v type="int" >      195 </v>
  <v type="int" >       74 </v>
  <v type="int" >      163 </v>
  <v type="int" >       65 </v>
  <v type="int" >      219 </v>
  <v type="int" >      231 </v>
  <v type="int" >       56 </v>
  <v type="int" >      139 </v>
  <v type="int" >      270 </v>
  <v type="int" >      165 </v>
  <v type="int" >        8 </v>
  <v type="int" >      288 </v>
  <v type="int" >      224 </v>
  <v type="int" >       37 </v>
  <v type="int" >       47 </v>
 </varray>
 <kpoints>
  <generation param="Gamma">
   <v type="int" name="divisions">       4        4        1 </v>
   <v name="usershift">      0.00000000       0.00000000       0.00000000 </v>
   <v name="genvec1">      0.25000000       0.00000000       0.00000000 </v>
   <v name="genvec2">      0.00000000       0.25000000       0.00000000 </v>
   <v name="genvec3">      0.00000000       0.00000000       1.00000000 </v>
   <v name="shift">      0.00000000       0.00000000       0.00000000 </v>
  </generation>
  <varray name="kpointlist" >
   <v>       0.00000000       0.00000000       0.00000000 </v>
   <v>       0.25000000       0.00000000       0.00000000 </v>
   <v>       0.50000000       0.00000000       0.00000000 </v>
   <v>       0.00000000       0.25000000       0.00000000 </v>
   <v>       0.25000000       0.25000000       0.00000000 </v>
   <v>       0.50000000       0.25000000       0.00000000 </v>
   <v>      -0.25000000       0.25000000       0.00000000 </v>
   <v>       0.00000000       0.50000000       0.00000000 </v>
   <v>       0.25000000       0.50000000       0.00000000 </v>
   <v>       0.50000000       0.50000000       0.00000000 </v>
  </varray>
  <varray name="weights" >
   <v>       0.06250000 </v>
   <v>       0.12500000 </v>
   <v>       0.06250000 </v>
   <v>       0.12500000 </v>
   <v>       0.12500000 </v>
   <v>       0.12500000 </v>
   <v>       0.12500000 </v>
   <v>       0.06250000 </v>
   <v>       0.12500000 </v>
   <v>       0.06250000 </v>
  </varray>
 </kpoints>
 <parameters>
  <separator name="general" >
   <i type="string" name="SYSTEM">unknown system</i>
   <i type="logical" name="LCOMPAT"> F  </i>
  </separator>
  <separator name="electronic" >
   <i type="string" name="PREC">accura</i>
   <i name="ENMAX">    450.00000000</i>
   <i name="ENAUG">    838.43500000</i>
   <i name="EDIFF">      0.00000100</i>
   <i type="int" name="IALGO">    68</i>
   <i type="int" name="IWAVPR">    11</i>
   <i type="int" name="NBANDS">  1386</i>
   <i name="NELECT">   2297.00000000</i>
   <i type="int" name="TURBO">     0</i>
   <i type="int" name="IRESTART">     0</i>
   <i type="int" name="NREBOOT">     0</i>
   <i type="int" name="NMIN">     0</i>
   <i name="EREF">      0.00000000</i>
   <separator name="electronic smearing" >
    <i type="int" name="ISMEAR">     0</i>
    <i name="SIGMA">      0.15000000</i>
    <i name="KSPACING">      0.50000000</i>
    <i type="logical" name="KGAMMA"> T  </i>
   </separator>
   <separator name="electronic projectors" >
    <i type="logical" name="LREAL"> T  </i>
    <v name="ROPT">     -0.00025000     -0.00025000</v>
    <i type="int" name="LMAXPAW">  -100</i>
    <i type="int" name="LMAXMIX">     2</i>
    <i type="logical" name="NLSPLINE"> F  </i>
   </separator>
   <separator name="electronic startup" >
    <i type="int" name="ISTART">     0</i>
    <i type="int" name="ICHARG">     2</i>
    <i type="int" name="INIWAV">     1</i>
   </separator>
   <separator name="electronic spin" >
    <i type="int" name="ISPIN">     1</i>
    <i type="logical" name="LNONCOLLINEAR"> F  </i>
    <v name="MAGMOM">      1.00000000      1.00000000      1.00000000      1.00000000      1.00000000      1.00000000      1.00000000      1.00000000      1.00000000      1.00000000      1.00000000      1.00000000      1.00000000      1.00000000      1.00000000      1.00000000      1.00000000      1.00000000      1.00000000      1.00000000
      1.00000000      1.00000000      1.00000000      1.00000000      1.00000000      1.00000000      1.00000000      1.00000000      1.00000000      1.00000000      1.00000000      1.00000000      1.00000000      1.00000000      1.00000000      1.00000000      1.00000000      1.00000000      1.00000000      1.00000000
      1.00000000      1.00000000      1.00000000      1.00000000      1.00000000      1.00000000      1.00000000      1.00000000      1.00000000      1.00000000      1.00000000      1.00000000      1.00000000      1.00000000      1.00000000      1.00000000      1.00000000      1.00000000      1.00000000      1.00000000
      1.00000000      1.00000000      1.00000000      1.00000000      1.00000000      1.00000000      1.00000000      1.00000000      1.00000000      1.00000000      1.00000000      1.00000000      1.00000000      1.00000000      1.00000000      1.00000000      1.00000000      1.00000000      1.00000000      1.00000000
      1.00000000      1.00000000      1.00000000      1.00000000      1.00000000      1.00000000      1.00000000      1.00000000      1.00000000      1.00000000      1.00000000      1.00000000      1.00000000      1.00000000      1.00000000      1.00000000      1.00000000      1.00000000      1.00000000      1.00000000
      1.00000000      1.00000000      1.00000000      1.00000000      1.00000000      1.00000000      1.00000000      1.00000000      1.00000000      1.00000000      1.00000000      1.00000000      1.00000000      1.00000000      1.00000000      1.00000000      1.00000000      1.00000000      1.00000000      1.00000000
      1.00000000      1.00000000      1.00000000      1.00000000      1.00000000      1.00000000      1.00000000      1.00000000      1.00000000      1.00000000      1.00000000      1.00000000      1.00000000      1.00000000      1.00000000      1.00000000      1.00000000      1.00000000      1.00000000      1.00000000
      1.00000000      1.00000000      1.00000000      1.00000000      1.00000000      1.00000000      1.00000000      1.00000000      1.00000000      1.00000000      1.00000000      1.00000000      1.00000000      1.00000000      1.00000000      1.00000000      1.00000000      1.00000000      1.00000000      1.00000000
      1.00000000      1.00000000      1.00000000      1.00000000      1.00000000      1.00000000      1.00000000      1.00000000      1.00000000      1.00000000      1.00000000      1.00000000      1.00000000      1.00000000      1.00000000      1.00000000      1.00000000      1.00000000      1.00000000      1.00000000
      1.00000000      1.00000000      1.00000000      1.00000000      1.00000000      1.00000000      1.00000000      1.00000000      1.00000000      1.00000000      1.00000000      1.00000000      1.00000000      1.00000000      1.00000000      1.00000000      1.00000000      1.00000000      1.00000000      1.00000000
      1.00000000      1.00000000      1.00000000      1.00000000      1.00000000      1.00000000      1.00000000      1.00000000      1.00000000      1.00000000      1.00000000      1.00000000      1.00000000      1.00000000      1.00000000      1.00000000      1.00000000      1.00000000      1.00000000      1.00000000
      1.00000000      1.00000000      1.00000000      1.00000000      1.00000000      1.00000000      1.00000000      1.00000000      1.00000000      1.00000000      1.00000000      1.00000000      1.00000000      1.00000000      1.00000000      1.00000000      1.00000000      1.00000000      1.00000000      1.00000000
      1.00000000      1.00000000      1.00000000      1.00000000      1.00000000      1.00000000      1.00000000      1.00000000      1.00000000      1.00000000      1.00000000      1.00000000      1.00000000      1.00000000      1.00000000      1.00000000      1.00000000      1.00000000      1.00000000      1.00000000
      1.00000000      1.00000000      1.00000000      1.00000000      1.00000000      1.00000000      1.00000000      1.00000000      1.00000000      1.00000000      1.00000000      1.00000000      1.00000000      1.00000000      1.00000000      1.00000000      1.00000000      1.00000000      1.00000000      1.00000000
      1.00000000      1.00000000      1.00000000      1.00000000      1.00000000      1.00000000      1.00000000      1.00000000</v>
    <i name="NUPDOWN">     -1.00000000</i>
    <i type="logical" name="LSORBIT"> F  </i>
    <v name="SAXIS">      0.00000000      0.00000000      1.00000000</v>
    <i type="logical" name="LSPIRAL"> F  </i>
    <v name="QSPIRAL">      0.00000000      0.00000000      0.00000000</v>
    <i type="logical" name="LZEROZ"> F  </i>
   </separator>
   <separator name="electronic exchange-correlation" >
    <i type="logical" name="LASPH"> F  </i>
    <i type="logical" name="LMETAGGA"> F  </i>
   </separator>
   <separator name="electronic convergence" >
    <i type="int" name="NELM">   200</i>
    <i type="int" name="NELMDL">     0</i>
    <i type="int" name="NELMIN">     4</i>
    <i name="ENINI">    450.00000000</i>
    <separator name="electronic convergence detail" >
     <i type="logical" name="LDIAG"> T  </i>
     <i type="logical" name="LSUBROT"> F  </i>
     <i name="WEIMIN">      0.00100000</i>
     <i name="EBREAK">      0.00000000</i>
     <i name="DEPER">      0.30000000</i>
     <i type="int" name="NRMM">     4</i>
     <i name="TIME">      0.40000000</i>
    </separator>
   </separator>
   <separator name="electronic mixer" >
    <i name="AMIX">      0.40000000</i>
    <i name="BMIX">      1.00000000</i>
    <i name="AMIN">      0.10000000</i>
    <i name="AMIX_MAG">      1.60000000</i>
    <i name="BMIX_MAG">      1.00000000</i>
    <separator name="electronic mixer details" >
     <i type="int" name="IMIX">     4</i>
     <i type="logical" name="MIXFIRST"> F  </i>
     <i type="int" name="MAXMIX">   -45</i>
     <i name="WC">    100.00000000</i>
     <i type="int" name="INIMIX">     1</i>
     <i type="int" name="MIXPRE">     1</i>
     <i type="int" name="MREMOVE">     5</i>
    </separator>
   </separator>
   <separator name="electronic dipolcorrection" >
    <i type="logical" name="LDIPOL"> F  </i>
    <i type="logical" name="LMONO"> F  </i>
    <i type="int" name="IDIPOL">     0</i>
    <i name="EPSILON">      1.00000000</i>
    <v name="DIPOL">   -100.00000000   -100.00000000   -100.00000000</v>
    <i name="EFIELD">      0.00000000</i>
   </separator>
  </separator>
  <separator name="grids" >
   <i type="int" name="NGX">    70</i>
   <i type="int" name="NGY">    60</i>
   <i type="int" name="NGZ">   320</i>
   <i type="int" name="NGXF">   140</i>
   <i type="int" name="NGYF">   120</i>
   <i type="int" name="NGZF">   640</i>
   <i type="logical" name="ADDGRID"> F  </i>
  </separator>
  <separator name="ionic" >
   <i type="int" name="NSW">     5</i>
   <i type="int" name="IBRION">     2</i>
   <i type="int" name="MDALGO">     0</i>
   <i type="int" name="ISIF">     2</i>
   <i name="PSTRESS">      0.00000000</i>
   <i name="EDIFFG">      0.00001000</i>
   <i type="int" name="NFREE">     1</i>
   <i name="POTIM">      0.25000000</i>
   <i name="SMASS">     -3.00000000</i>
   <i name="SCALEE">      1.00000000</i>
  </separator>
  <separator name="ionic md" >
   <i name="TEBEG">      0.00010000</i>
   <i name="TEEND">      0.00010000</i>
   <i type="int" name="NBLOCK">     1</i>
   <i type="int" name="KBLOCK">     5</i>
   <i type="int" name="NPACO">   256</i>
   <i name="APACO">     16.00000000</i>
  </separator>
  <separator name="symmetry" >
   <i type="int" name="ISYM">     2</i>
   <i name="SYMPREC">      0.00001000</i>
  </separator>
  <separator name="dos" >
   <i type="int" name="LORBIT">     0</i>
   <v name="RWIGS">     -1.00000000     -1.00000000</v>
   <i type="int" name="NEDOS">   301</i>
   <i name="EMIN">     10.00000000</i>
   <i name="EMAX">    -10.00000000</i>
   <i name="EFERMI">      0.00000000</i>
  </separator>
  <separator name="writing" >
   <i type="int" name="NWRITE">     2</i>
   <i type="logical" name="LWAVE"> F  </i>
   <i type="logical" name="LDOWNSAMPLE"> F  </i>
   <i type="logical" name="LCHARG"> F  </i>
   <i type="logical" name="LPARD"> F  </i>
   <i type="logical" name="LVTOT"> F  </i>
   <i type="logical" name="LVHAR"> F  </i>
   <i type="logical" name="LELF"> F  </i>
   <i type="logical" name="LOPTICS"> F  </i>
   <v name="STM">      0.00000000      0.00000000      0.00000000      0.00000000      0.00000000      0.00000000      0.00000000</v>
  </separator>
  <separator name="performance" >
   <i type="int" name="NPAR">    14</i>
   <i type="int" name="NSIM">     4</i>
   <i type="int" name="NBLK">    -1</i>
   <i type="logical" name="LPLANE"> T  </i>
   <i type="logical" name="LSCALAPACK"> T  </i>
   <i type="logical" name="LSCAAWARE"> T  </i>
   <i type="logical" name="LSCALU"> F  </i>
   <i type="logical" name="LASYNC"> F  </i>
   <i type="logical" name="LORBITALREAL"> F  </i>
  </separator>
  <separator name="miscellaneous" >
   <i type="int" name="IDIOT">     3</i>
   <i type="int" name="ISPECIAL">     0</i>
   <i type="logical" name="LMUSIC"> F  </i>
   <v name="POMASS">     55.84700000     54.93800000</v>
   <v name="DARWINR">      0.00000000      0.00000000</v>
   <v name="DARWINV">      1.00000000      1.00000000</v>
   <i type="logical" name="LCORR"> T  </i>
  </separator>
  <i type="logical" name="GGA_COMPAT"> T  </i>
  <i type="logical" name="LBERRY"> F  </i>
  <i type="int" name="ICORELEVEL">     0</i>
  <i type="logical" name="LDAU"> F  </i>
  <i type="int" name="I_CONSTRAINED_M">     0</i>
  <separator name="electronic exchange-correlation" >
   <i type="string" name="GGA">--</i>
   <i type="int" name="VOSKOWN">     0</i>
   <i type="logical" name="LHFCALC"> F  </i>
   <i type="string" name="PRECFOCK"></i>
   <i type="logical" name="LSYMGRAD"> F  </i>
   <i type="logical" name="LHFONE"> F  </i>
   <i type="logical" name="LRHFCALC"> F  </i>
   <i type="logical" name="LTHOMAS"> F  </i>
   <i type="logical" name="LMODELHF"> F  </i>
   <i name="ENCUT4O">     -1.00000000</i>
   <i type="int" name="EXXOEP">     0</i>
   <i type="int" name="FOURORBIT">     0</i>
   <i name="AEXX">      0.00000000</i>
   <i name="HFALPHA">      0.00000000</i>
   <i name="MCALPHA">      0.00000000</i>
   <i name="ALDAX">      1.00000000</i>
   <i name="AGGAX">      1.00000000</i>
   <i name="ALDAC">      1.00000000</i>
   <i name="AGGAC">      1.00000000</i>
   <i type="int" name="NKREDX">     1</i>
   <i type="int" name="NKREDY">     1</i>
   <i type="int" name="NKREDZ">     1</i>
   <i type="logical" name="SHIFTRED"> F  </i>
   <i type="logical" name="ODDONLY"> F  </i>
   <i type="logical" name="EVENONLY"> F  </i>
   <i type="int" name="LMAXFOCK">     0</i>
   <i type="int" name="NMAXFOCKAE">     0</i>
   <i type="logical" name="LFOCKAEDFT"> F  </i>
   <i name="HFSCREEN">      0.00000000</i>
   <i name="HFSCREENC">      0.00000000</i>
   <i type="int" name="NBANDSGWLOW">     0</i>
  </separator>
  <separator name="vdW DFT" >
   <i type="logical" name="LUSE_VDW"> F  </i>
   <i name="Zab_VDW">     -0.84910000</i>
   <i name="PARAM1">      0.12340000</i>
   <i name="PARAM2">      1.00000000</i>
   <i name="PARAM3">      0.00000000</i>
  </separator>
  <separator name="model GW" >
   <i type="int" name="MODEL_GW">     0</i>
   <i name="MODEL_EPS0">      7.68123389</i>
   <i name="MODEL_ALPHA">      1.00000000</i>
  </separator>
  <separator name="linear response parameters" >
   <i type="logical" name="LEPSILON"> F  </i>
   <i type="logical" name="LRPA"> F  </i>
   <i type="logical" name="LNABLA"> F  </i>
   <i type="logical" name="LVEL"> F  </i>
   <i type="int" name="KINTER">     0</i>
   <i name="CSHIFT">      0.10000000</i>
   <i name="OMEGAMAX">     -1.00000000</i>
   <i name="DEG_THRESHOLD">      0.00200000</i>
   <i name="RTIME">     -0.10000000</i>
   <i name="WPLASMAI">      0.00000000</i>
   <v name="DFIELD">      0.00000000      0.00000000      0.00000000</v>
   <v name="WPLASMA">      0.00000000      0.00000000      0.00000000      0.00000000      0.00000000      0.00000000      0.00000000      0.00000000      0.00000000</v>
  </separator>
  <separator name="orbital magnetization" >
   <i type="logical" name="NUCIND"> F  </i>
   <v name="MAGPOS">      0.00000000      0.00000000      0.00000000</v>
   <i type="logical" name="LNICSALL"> T  </i>
   <i type="logical" name="ORBITALMAG"> F  </i>
   <i type="logical" name="LMAGBLOCH"> F  </i>
   <i type="logical" name="LCHIMAG"> F  </i>
   <i type="logical" name="LGAUGE"> T  </i>
   <i type="int" name="MAGATOM">     0</i>
   <v name="MAGDIPOL">      0.00000000      0.00000000      0.00000000</v>
   <v name="AVECCONST">      0.00000000      0.00000000      0.00000000</v>
  </separator>
  <separator name="response functions" >
   <i type="logical" name="LADDER"> F  </i>
   <i type="logical" name="LRPAFORCE"> F  </i>
   <i type="logical" name="LFXC"> F  </i>
   <i type="logical" name="LHARTREE"> T  </i>
   <i type="int" name="IBSE">     0</i>
   <v type="int" name="KPOINT">    -1     0     0     0</v>
   <i type="logical" name="LTCTE"> F  </i>
   <i type="logical" name="LTETE"> F  </i>
   <i type="logical" name="LTRIPLET"> F  </i>
   <i type="logical" name="LFXCEPS"> F  </i>
   <i type="logical" name="LFXHEG"> F  </i>
   <i type="int" name="NATURALO">     2</i>
   <i type="logical" name="L2ORDER"> F  </i>
   <i type="logical" name="LMP2LT"> F  </i>
   <i type="logical" name="LUSEW"> F  </i>
   <i name="ENCUTGW">     -2.00000000</i>
   <i name="ENCUTGWSOFT">     -2.00000000</i>
   <i name="ENCUTLF">     -1.00000000</i>
   <i type="int" name="LMAXMP2">    -1</i>
   <i name="SCISSOR">      0.00000000</i>
   <i type="int" name="NOMEGA">     0</i>
   <i type="int" name="NOMEGAR">     0</i>
   <i type="int" name="NBANDSGW">    -1</i>
   <i type="int" name="NBANDSO">    -1</i>
   <i type="int" name="NBANDSV">    -1</i>
   <i type="int" name="NELM">   200</i>
   <i type="int" name="NELMHF">     1</i>
   <i type="int" name="DIM">     3</i>
   <i type="int" name="ANTIRES">     0</i>
   <i name="OMEGAMAX">    -30.00000000</i>
   <i name="OMEGAMIN">    -30.00000000</i>
   <i name="OMEGATL">   -200.00000000</i>
   <i type="int" name="OMEGAGRID">   140</i>
   <i name="CSHIFT">     -0.10000000</i>
   <i type="logical" name="SELFENERGY"> F  </i>
   <i type="logical" name="LSPECTRAL"> F  </i>
   <i type="logical" name="LSPECTRALGW"> F  </i>
   <i type="logical" name="LSINGLES"> F  </i>
   <i type="logical" name="LFERMIGW"> F  </i>
   <i type="logical" name="ODDONLYGW"> F  </i>
   <i type="logical" name="EVENONLYGW"> F  </i>
   <i type="int" name="NKREDLFX">     1</i>
   <i type="int" name="NKREDLFY">     1</i>
   <i type="int" name="NKREDLFZ">     1</i>
   <i type="int" name="MAXMEM">  2800</i>
   <i type="int" name="TELESCOPE">     0</i>
   <i type="int" name="TAUPAR">     1</i>
   <i type="int" name="OMEGAPAR">    -1</i>
   <i name="LAMBDA">      1.00000000</i>
  </separator>
  <separator name="External order field" >
   <i name="OFIELD_KAPPA">      0.00000000</i>
   <v name="OFIELD_K">      0.00000000      0.00000000      0.00000000</v>
   <i name="OFIELD_Q6_NEAR">      0.00000000</i>
   <i name="OFIELD_Q6_FAR">      0.00000000</i>
   <i name="OFIELD_A">      0.00000000</i>
  </separator>
 </parameters>
 <atominfo>
  <atoms>     288 </atoms>
  <types>       2 </types>
  <array name="atoms" >
   <dimension dim="1">ion</dimension>
   <field type="string">element</field>
   <field type="int">atomtype</field>
   <set>
    <rc><c>Fe</c><c>   1</c></rc>
    <rc><c>Fe</c><c>   1</c></rc>
    <rc><c>Fe</c><c>   1</c></rc>
    <rc><c>Fe</c><c>   1</c></rc>
    <rc><c>Fe</c><c>   1</c></rc>
    <rc><c>Fe</c><c>   1</c></rc>
    <rc><c>Fe</c><c>   1</c></rc>
    <rc><c>Fe</c><c>   1</c></rc>
    <rc><c>Fe</c><c>   1</c></rc>
    <rc><c>Fe</c><c>   1</c></rc>
    <rc><c>Fe</c><c>   1</c></rc>
    <rc><c>Fe</c><c>   1</c></rc>
    <rc><c>Fe</c><c>   1</c></rc>
    <rc><c>Fe</c><c>   1</c></rc>
    <rc><c>Fe</c><c>   1</c></rc>
    <rc><c>Fe</c><c>   1</c></rc>
    <rc><c>Fe</c><c>   1</c></rc>
    <rc><c>Fe</c><c>   1</c></rc>
    <rc><c>Fe</c><c>   1</c></rc>
    <rc><c>Fe</c><c>   1</c></rc>
    <rc><c>Fe</c><c>   1</c></rc>
    <rc><c>Fe</c><c>   1</c></rc>
    <rc><c>Fe</c><c>   1</c></rc>
    <rc><c>Fe</c><c>   1</c></rc>
    <rc><c>Fe</c><c>   1</c></rc>
    <rc><c>Fe</c><c>   1</c></rc>
    <rc><c>Fe</c><c>   1</c></rc>
    <rc><c>Fe</c><c>   1</c></rc>
    <rc><c>Fe</c><c>   1</c></rc>
    <rc><c>Fe</c><c>   1</c></rc>
    <rc><c>Fe</c><c>   1</c></rc>
    <rc><c>Fe</c><c>   1</c></rc>
    <rc><c>Fe</c><c>   1</c></rc>
    <rc><c>Fe</c><c>   1</c></rc>
    <rc><c>Fe</c><c>   1</c></rc>
    <rc><c>Fe</c><c>   1</c></rc>
    <rc><c>Fe</c><c>   1</c></rc>
    <rc><c>Fe</c><c>   1</c></rc>
    <rc><c>Fe</c><c>   1</c></rc>
    <rc><c>Fe</c><c>   1</c></rc>
    <rc><c>Fe</c><c>   1</c></rc>
    <rc><c>Fe</c><c>   1</c></rc>
    <rc><c>Fe</c><c>   1</c></rc>
    <rc><c>Fe</c><c>   1</c></rc>
    <rc><c>Fe</c><c>   1</c></rc>
    <rc><c>Fe</c><c>   1</c></rc>
    <rc><c>Fe</c><c>   1</c></rc>
    <rc><c>Fe</c><c>   1</c></rc>
    <rc><c>Fe</c><c>   1</c></rc>
    <rc><c>Fe</c><c>   1</c></rc>
    <rc><c>Fe</c><c>   1</c></rc>
    <rc><c>Fe</c><c>   1</c></rc>
    <rc><c>Fe</c><c>   1</c></rc>
    <rc><c>Fe</c><c>   1</c></rc>
    <rc><c>Fe</c><c>   1</c></rc>
    <rc><c>Fe</c><c>   1</c></rc>
    <rc><c>Fe</c><c>   1</c></rc>
    <rc><c>Fe</c><c>   1</c></rc>
    <rc><c>Fe</c><c>   1</c></rc>
    <rc><c>Fe</c><c>   1</c></rc>
    <rc><c>Fe</c><c>   1</c></rc>
    <rc><c>Fe</c><c>   1</c></rc>
    <rc><c>Fe</c><c>   1</c></rc>
    <rc><c>Fe</c><c>   1</c></rc>
    <rc><c>Fe</c><c>   1</c></rc>
    <rc><c>Fe</c><c>   1</c></rc>
    <rc><c>Fe</c><c>   1</c></rc>
    <rc><c>Fe</c><c>   1</c></rc>
    <rc><c>Fe</c><c>   1</c></rc>
    <rc><c>Fe</c><c>   1</c></rc>
    <rc><c>Fe</c><c>   1</c></rc>
    <rc><c>Fe</c><c>   1</c></rc>
    <rc><c>Fe</c><c>   1</c></rc>
    <rc><c>Fe</c><c>   1</c></rc>
    <rc><c>Fe</c><c>   1</c></rc>
    <rc><c>Fe</c><c>   1</c></rc>
    <rc><c>Fe</c><c>   1</c></rc>
    <rc><c>Fe</c><c>   1</c></rc>
    <rc><c>Fe</c><c>   1</c></rc>
    <rc><c>Fe</c><c>   1</c></rc>
    <rc><c>Fe</c><c>   1</c></rc>
    <rc><c>Fe</c><c>   1</c></rc>
    <rc><c>Fe</c><c>   1</c></rc>
    <rc><c>Fe</c><c>   1</c></rc>
    <rc><c>Fe</c><c>   1</c></rc>
    <rc><c>Fe</c><c>   1</c></rc>
    <rc><c>Fe</c><c>   1</c></rc>
    <rc><c>Fe</c><c>   1</c></rc>
    <rc><c>Fe</c><c>   1</c></rc>
    <rc><c>Fe</c><c>   1</c></rc>
    <rc><c>Fe</c><c>   1</c></rc>
    <rc><c>Fe</c><c>   1</c></rc>
    <rc><c>Fe</c><c>   1</c></rc>
    <rc><c>Fe</c><c>   1</c></rc>
    <rc><c>Fe</c><c>   1</c></rc>
    <rc><c>Fe</c><c>   1</c></rc>
    <rc><c>Fe</c><c>   1</c></rc>
    <rc><c>Fe</c><c>   1</c></rc>
    <rc><c>Fe</c><c>   1</c></rc>
    <rc><c>Fe</c><c>   1</c></rc>
    <rc><c>Fe</c><c>   1</c></rc>
    <rc><c>Fe</c><c>   1</c></rc>
    <rc><c>Fe</c><c>   1</c></rc>
    <rc><c>Fe</c><c>   1</c></rc>
    <rc><c>Fe</c><c>   1</c></rc>
    <rc><c>Fe</c><c>   1</c></rc>
    <rc><c>Fe</c><c>   1</c></rc>
    <rc><c>Fe</c><c>   1</c></rc>
    <rc><c>Fe</c><c>   1</c></rc>
    <rc><c>Fe</c><c>   1</c></rc>
    <rc><c>Fe</c><c>   1</c></rc>
    <rc><c>Fe</c><c>   1</c></rc>
    <rc><c>Fe</c><c>   1</c></rc>
    <rc><c>Fe</c><c>   1</c></rc>
    <rc><c>Fe</c><c>   1</c></rc>
    <rc><c>Fe</c><c>   1</c></rc>
    <rc><c>Fe</c><c>   1</c></rc>
    <rc><c>Fe</c><c>   1</c></rc>
    <rc><c>Fe</c><c>   1</c></rc>
    <rc><c>Fe</c><c>   1</c></rc>
    <rc><c>Fe</c><c>   1</c></rc>
    <rc><c>Fe</c><c>   1</c></rc>
    <rc><c>Fe</c><c>   1</c></rc>
    <rc><c>Fe</c><c>   1</c></rc>
    <rc><c>Fe</c><c>   1</c></rc>
    <rc><c>Fe</c><c>   1</c></rc>
    <rc><c>Fe</c><c>   1</c></rc>
    <rc><c>Fe</c><c>   1</c></rc>
    <rc><c>Fe</c><c>   1</c></rc>
    <rc><c>Fe</c><c>   1</c></rc>
    <rc><c>Fe</c><c>   1</c></rc>
    <rc><c>Fe</c><c>   1</c></rc>
    <rc><c>Fe</c><c>   1</c></rc>
    <rc><c>Fe</c><c>   1</c></rc>
    <rc><c>Fe</c><c>   1</c></rc>
    <rc><c>Fe</c><c>   1</c></rc>
    <rc><c>Fe</c><c>   1</c></rc>
    <rc><c>Fe</c><c>   1</c></rc>
    <rc><c>Fe</c><c>   1</c></rc>
    <rc><c>Fe</c><c>   1</c></rc>
    <rc><c>Fe</c><c>   1</c></rc>
    <rc><c>Fe</c><c>   1</c></rc>
    <rc><c>Fe</c><c>   1</c></rc>
    <rc><c>Fe</c><c>   1</c></rc>
    <rc><c>Fe</c><c>   1</c></rc>
    <rc><c>Fe</c><c>   1</c></rc>
    <rc><c>Fe</c><c>   1</c></rc>
    <rc><c>Fe</c><c>   1</c></rc>
    <rc><c>Fe</c><c>   1</c></rc>
    <rc><c>Fe</c><c>   1</c></rc>
    <rc><c>Fe</c><c>   1</c></rc>
    <rc><c>Fe</c><c>   1</c></rc>
    <rc><c>Fe</c><c>   1</c></rc>
    <rc><c>Fe</c><c>   1</c></rc>
    <rc><c>Fe</c><c>   1</c></rc>
    <rc><c>Fe</c><c>   1</c></rc>
    <rc><c>Fe</c><c>   1</c></rc>
    <rc><c>Fe</c><c>   1</c></rc>
    <rc><c>Fe</c><c>   1</c></rc>
    <rc><c>Fe</c><c>   1</c></rc>
    <rc><c>Fe</c><c>   1</c></rc>
    <rc><c>Fe</c><c>   1</c></rc>
    <rc><c>Fe</c><c>   1</c></rc>
    <rc><c>Fe</c><c>   1</c></rc>
    <rc><c>Fe</c><c>   1</c></rc>
    <rc><c>Fe</c><c>   1</c></rc>
    <rc><c>Fe</c><c>   1</c></rc>
    <rc><c>Fe</c><c>   1</c></rc>
    <rc><c>Fe</c><c>   1</c></rc>
    <rc><c>Fe</c><c>   1</c></rc>
    <rc><c>Fe</c><c>   1</c></rc>
    <rc><c>Fe</c><c>   1</c></rc>
    <rc><c>Fe</c><c>   1</c></rc>
    <rc><c>Fe</c><c>   1</c></rc>
    <rc><c>Fe</c><c>   1</c></rc>
    <rc><c>Fe</c><c>   1</c></rc>
    <rc><c>Fe</c><c>   1</c></rc>
    <rc><c>Fe</c><c>   1</c></rc>
    <rc><c>Fe</c><c>   1</c></rc>
    <rc><c>Fe</c><c>   1</c></rc>
    <rc><c>Fe</c><c>   1</c></rc>
    <rc><c>Fe</c><c>   1</c></rc>
    <rc><c>Fe</c><c>   1</c></rc>
    <rc><c>Fe</c><c>   1</c></rc>
    <rc><c>Fe</c><c>   1</c></rc>
    <rc><c>Fe</c><c>   1</c></rc>
    <rc><c>Fe</c><c>   1</c></rc>
    <rc><c>Fe</c><c>   1</c></rc>
    <rc><c>Fe</c><c>   1</c></rc>
    <rc><c>Fe</c><c>   1</c></rc>
    <rc><c>Fe</c><c>   1</c></rc>
    <rc><c>Fe</c><c>   1</c></rc>
    <rc><c>Fe</c><c>   1</c></rc>
    <rc><c>Fe</c><c>   1</c></rc>
    <rc><c>Fe</c><c>   1</c></rc>
    <rc><c>Fe</c><c>   1</c></rc>
    <rc><c>Fe</c><c>   1</c></rc>
    <rc><c>Fe</c><c>   1</c></rc>
    <rc><c>Fe</c><c>   1</c></rc>
    <rc><c>Fe</c><c>   1</c></rc>
    <rc><c>Fe</c><c>   1</c></rc>
    <rc><c>Fe</c><c>   1</c></rc>
    <rc><c>Fe</c><c>   1</c></rc>
    <rc><c>Fe</c><c>   1</c></rc>
    <rc><c>Fe</c><c>   1</c></rc>
    <rc><c>Fe</c><c>   1</c></rc>
    <rc><c>Fe</c><c>   1</c></rc>
    <rc><c>Fe</c><c>   1</c></rc>
    <rc><c>Fe</c><c>   1</c></rc>
    <rc><c>Fe</c><c>   1</c></rc>
    <rc><c>Fe</c><c>   1</c></rc>
    <rc><c>Fe</c><c>   1</c></rc>
    <rc><c>Fe</c><c>   1</c></rc>
    <rc><c>Fe</c><c>   1</c></rc>
    <rc><c>Fe</c><c>   1</c></rc>
    <rc><c>Fe</c><c>   1</c></rc>
    <rc><c>Fe</c><c>   1</c></rc>
    <rc><c>Fe</c><c>   1</c></rc>
    <rc><c>Fe</c><c>   1</c></rc>
    <rc><c>Fe</c><c>   1</c></rc>
    <rc><c>Fe</c><c>   1</c></rc>
    <rc><c>Fe</c><c>   1</c></rc>
    <rc><c>Fe</c><c>   1</c></rc>
    <rc><c>Fe</c><c>   1</c></rc>
    <rc><c>Fe</c><c>   1</c></rc>
    <rc><c>Fe</c><c>   1</c></rc>
    <rc><c>Fe</c><c>   1</c></rc>
    <rc><c>Fe</c><c>   1</c></rc>
    <rc><c>Fe</c><c>   1</c></rc>
    <rc><c>Fe</c><c>   1</c></rc>
    <rc><c>Fe</c><c>   1</c></rc>
    <rc><c>Fe</c><c>   1</c></rc>
    <rc><c>Fe</c><c>   1</c></rc>
    <rc><c>Fe</c><c>   1</c></rc>
    <rc><c>Fe</c><c>   1</c></rc>
    <rc><c>Fe</c><c>   1</c></rc>
    <rc><c>Fe</c><c>   1</c></rc>
    <rc><c>Fe</c><c>   1</c></rc>
    <rc><c>Fe</c><c>   1</c></rc>
    <rc><c>Fe</c><c>   1</c></rc>
    <rc><c>Fe</c><c>   1</c></rc>
    <rc><c>Fe</c><c>   1</c></rc>
    <rc><c>Fe</c><c>   1</c></rc>
    <rc><c>Fe</c><c>   1</c></rc>
    <rc><c>Fe</c><c>   1</c></rc>
    <rc><c>Fe</c><c>   1</c></rc>
    <rc><c>Fe</c><c>   1</c></rc>
    <rc><c>Fe</c><c>   1</c></rc>
    <rc><c>Fe</c><c>   1</c></rc>
    <rc><c>Fe</c><c>   1</c></rc>
    <rc><c>Fe</c><c>   1</c></rc>
    <rc><c>Fe</c><c>   1</c></rc>
    <rc><c>Fe</c><c>   1</c></rc>
    <rc><c>Fe</c><c>   1</c></rc>
    <rc><c>Fe</c><c>   1</c></rc>
    <rc><c>Fe</c><c>   1</c></rc>
    <rc><c>Fe</c><c>   1</c></rc>
    <rc><c>Fe</c><c>   1</c></rc>
    <rc><c>Fe</c><c>   1</c></rc>
    <rc><c>Fe</c><c>   1</c></rc>
    <rc><c>Fe</c><c>   1</c></rc>
    <rc><c>Fe</c><c>   1</c></rc>
    <rc><c>Fe</c><c>   1</c></rc>
    <rc><c>Fe</c><c>   1</c></rc>
    <rc><c>Fe</c><c>   1</c></rc>
    <rc><c>Fe</c><c>   1</c></rc>
    <rc><c>Fe</c><c>   1</c></rc>
    <rc><c>Fe</c><c>   1</c></rc>
    <rc><c>Fe</c><c>   1</c></rc>
    <rc><c>Fe</c><c>   1</c></rc>
    <rc><c>Fe</c><c>   1</c></rc>
    <rc><c>Fe</c><c>   1</c></rc>
    <rc><c>Fe</c><c>   1</c></rc>
    <rc><c>Fe</c><c>   1</c></rc>
    <rc><c>Fe</c><c>   1</c></rc>
    <rc><c>Fe</c><c>   1</c></rc>
    <rc><c>Fe</c><c>   1</c></rc>
    <rc><c>Fe</c><c>   1</c></rc>
    <rc><c>Fe</c><c>   1</c></rc>
    <rc><c>Fe</c><c>   1</c></rc>
    <rc><c>Fe</c><c>   1</c></rc>
    <rc><c>Mn</c><c>   2</c></rc>
    <rc><c>Mn</c><c>   2</c></rc>
    <rc><c>Mn</c><c>   2</c></rc>
    <rc><c>Mn</c><c>   2</c></rc>
    <rc><c>Mn</c><c>   2</c></rc>
    <rc><c>Mn</c><c>   2</c></rc>
    <rc><c>Mn</c><c>   2</c></rc>
   </set>
  </array>
  <array name="atomtypes" >
   <dimension dim="1">type</dimension>
   <field type="int">atomspertype</field>
   <field type="string">element</field>
   <field>mass</field>
   <field>valence</field>
   <field type="string">pseudopotential</field>
   <set>
    <rc><c> 281</c><c>Fe</c><c>     55.84700000</c><c>      8.00000000</c><c>  PAW_PBE Fe_GW 31Mar2010               </c></rc>
    <rc><c>   7</c><c>Mn</c><c>     54.93800000</c><c>      7.00000000</c><c>  PAW_PBE Mn_GW 31Mar2010               </c></rc>
   </set>
  </array>
 </atominfo>
 <structure name="initialpos" >
  <crystal>
   <varray name="basis" >
    <v>       9.72667804       0.00000000       0.00000000 </v>
    <v>       0.00000000       8.42355028       0.00000000 </v>
    <v>       0.00000000       0.00000000      45.00000000 </v>
   </varray>
   <i name="volume">   3686.99226691 </i>
   <varray name="rec_basis" >
    <v>       0.10281002       0.00000000       0.00000000 </v>
    <v>       0.00000000       0.11871479       0.00000000 </v>
    <v>       0.00000000       0.00000000       0.02222222 </v>
   </varray>
  </crystal>
  <varray name="positions" >
   <v>       0.05335359       0.70185330       0.21142541 </v>
   <v>       0.31826883       0.72389492       0.87617526 </v>
   <v>       0.68760460       0.95825798       0.61132468 </v>
   <v>       0.43814480       0.45767719       0.61122002 </v>
   <v>       0.44006669       0.28811068       0.25548377 </v>
   <v>       0.05859891       0.38806499       0.83346030 </v>
   <v>       0.30855807       0.88767221       0.83350166 </v>
   <v>       0.44720794       0.62619726       0.70014586 </v>
   <v>       0.06041960       0.21217429       0.74482559 </v>
   <v>       0.17845970       0.45121102       0.21131316 </v>
   <v>       0.56776829       0.21063488       0.47746791 </v>
   <v>       0.06679675       0.87484960       0.56676469 </v>
   <v>       0.56773431       0.22388532       0.87612064 </v>
   <v>       0.81059281       0.53195677       0.12428842 </v>
   <v>       0.42824337       0.95126743       0.21144558 </v>
   <v>       0.56669599       0.37489491       0.56689454 </v>
   <v>       0.81221270       0.04189384       0.38861182 </v>
   <v>       0.68233068       0.78850564       0.52226855 </v>
   <v>       0.44275519       0.46070360       0.47748317 </v>
   <v>       0.43503521       0.96194958       0.74456949 </v>
   <v>       0.44206134       0.62500974       0.56672825 </v>
   <v>       0.06083544       0.53106579       0.12428594 </v>
   <v>       0.31006600       0.03182953       0.12426764 </v>
   <v>       0.69027254       0.95937335       0.34417420 </v>
   <v>       0.68164921       0.77754740       0.12406006 </v>
   <v>       0.05269114       0.37386871       0.29977397 </v>
   <v>       0.68943399       0.46756218       0.87588678 </v>
   <v>       0.42854936       0.45106825       0.21128986 </v>
   <v>       0.80846432       0.37510323       0.43313752 </v>
   <v>       0.56262917       0.70802022       0.61136638 </v>
   <v>       0.55992515       0.54148680       0.65568689 </v>
   <v>       0.93342821       0.12490576       0.43310164 </v>
   <v>       0.56574965       0.53757475       0.25547123 </v>
   <v>       0.69025463       0.45932076       0.34417812 </v>
   <v>       0.19133055       0.61195051       0.16674258 </v>
   <v>       0.19584303       0.79888988       0.78865614 </v>
   <v>       0.44742688       0.12618422       0.70018399 </v>
   <v>       0.92785561       0.62362933       0.29965742 </v>
   <v>       0.31821445       0.22384351       0.87605678 </v>
   <v>       0.31681724       0.87441709       0.56677417 </v>
   <v>       0.81763153       0.22340119       0.87611901 </v>
   <v>       0.80979336       0.54107597       0.65573175 </v>
   <v>       0.55915400       0.53177074       0.12424866 </v>
   <v>       0.57062356       0.04956565       0.78872875 </v>
   <v>       0.18990028       0.28821534       0.25546801 </v>
   <v>       0.80854085       0.87499646       0.43312619 </v>
   <v>       0.57222735       0.37610453       0.70018945 </v>
   <v>       0.06066786       0.03152597       0.12415421 </v>
   <v>       0.30967217       0.54070823       0.65581907 </v>
   <v>       0.56546156       0.20943817       0.34413502 </v>
   <v>       0.18776262       0.95811010       0.61130682 </v>
   <v>       0.30263409       0.37396766       0.29976634 </v>
   <v>       0.43442661       0.79090269       0.65564593 </v>
   <v>       0.19599740       0.29826009       0.78856890 </v>
   <v>       0.06626585       0.36243349       0.16654234 </v>
   <v>       0.69691266       0.62656393       0.70042258 </v>
   <v>       0.31218176       0.54176104       0.38857168 </v>
   <v>       0.06775473       0.72319123       0.87610609 </v>
   <v>       0.93345315       0.63758877       0.83353382 </v>
   <v>       0.32047729       0.54946932       0.78876942 </v>
   <v>       0.30335929       0.20184834       0.21142061 </v>
   <v>       0.06792485       0.71068507       0.47746781 </v>
   <v>       0.55352558       0.20152014       0.21144863 </v>
   <v>       0.31094923       0.21137791       0.74466730 </v>
   <v>       0.07214934       0.37617922       0.70030341 </v>
   <v>       0.18342395       0.63754054       0.83350983 </v>
   <v>       0.07107123       0.04885503       0.78880050 </v>
   <v>       0.44165921       0.12498742       0.56682014 </v>
   <v>       0.93474794       0.29083604       0.65576106 </v>
   <v>       0.80357831       0.20162751       0.21137028 </v>
   <v>       0.92886181       0.95116947       0.21133085 </v>
   <v>       0.94157234       0.62512249       0.56687668 </v>
   <v>       0.80854468       0.38787687       0.83350208 </v>
   <v>       0.19717957       0.62590604       0.70006688 </v>
   <v>       0.80850430       0.88767333       0.83351558 </v>
   <v>       0.68479292       0.29075270       0.65581660 </v>
   <v>       0.31286979       0.20802359       0.61133036 </v>
   <v>       0.43553899       0.46246002       0.74452335 </v>
   <v>       0.43704164       0.79177438       0.38853553 </v>
   <v>       0.68487455       0.96295249       0.74454266 </v>
   <v>       0.80327272       0.70178308       0.21147000 </v>
   <v>       0.81309751       0.70775756       0.61126967 </v>
   <v>       0.43179746       0.77805620       0.12420952 </v>
   <v>       0.31069146       0.71180621       0.74458177 </v>
   <v>       0.32057345       0.04934717       0.78883394 </v>
   <v>       0.81194220       0.54174802       0.38844044 </v>
   <v>       0.68242120       0.28813077       0.52231776 </v>
   <v>       0.69541552       0.79908868       0.78876996 </v>
   <v>       0.18993918       0.78816779       0.25547415 </v>
   <v>       0.69120440       0.11167635       0.16657737 </v>
   <v>       0.69284962       0.96063923       0.47746352 </v>
   <v>       0.94042311       0.95944485       0.34413354 </v>
   <v>       0.80737874       0.03825318       0.52235872 </v>
   <v>       0.68349336       0.62502075       0.43307620 </v>
   <v>       0.44032038       0.45929829       0.34419685 </v>
   <v>       0.81025329       0.21222842       0.74456949 </v>
   <v>       0.43961267       0.96766685       0.87604455 </v>
   <v>       0.56679896       0.87489572       0.56675570 </v>
   <v>       0.81096332       0.03167250       0.12429532 </v>
   <v>       0.42776576       0.62390049       0.29972515 </v>
   <v>       0.81741484       0.72354715       0.87613626 </v>
   <v>       0.68763106       0.45815445       0.61123078 </v>
   <v>       0.55859538       0.38778676       0.83318473 </v>
   <v>       0.80284913       0.37373360       0.29970725 </v>
   <v>       0.18707584       0.29180871       0.38852064 </v>
   <v>       0.82108825       0.54888924       0.78879154 </v>
   <v>       0.18244780       0.78829068       0.52239808 </v>
   <v>       0.30267498       0.87394768       0.29975433 </v>
   <v>       0.17873523       0.95128846       0.21126543 </v>
   <v>       0.18523005       0.46229429       0.74458117 </v>
   <v>       0.43239647       0.28824015       0.52229935 </v>
   <v>       0.06537495       0.70943932       0.34414646 </v>
   <v>       0.18474331       0.79059557       0.65581204 </v>
   <v>       0.44533268       0.79900685       0.78875463 </v>
   <v>       0.68345825       0.12500390       0.43306359 </v>
   <v>       0.93243442       0.78815739       0.52233473 </v>
   <v>       0.69176301       0.61276951       0.16655322 </v>
   <v>       0.81545091       0.70942403       0.34414915 </v>
   <v>       0.93455433       0.46268758       0.74490360 </v>
   <v>       0.19042801       0.45938282       0.34415685 </v>
   <v>       0.57025917       0.54942004       0.78886676 </v>
   <v>       0.56614119       0.36218936       0.16665418 </v>
   <v>       0.56539911       0.70952204       0.34413962 </v>
   <v>       0.55271958       0.37402697       0.29975470 </v>
   <v>       0.18949299       0.46738916       0.87591844 </v>
   <v>       0.19147324       0.11267548       0.16687087 </v>
   <v>       0.44513833       0.29883549       0.78874928 </v>
   <v>       0.68999512       0.78827782       0.25545362 </v>
   <v>       0.93369211       0.13760214       0.83348719 </v>
   <v>       0.44293813       0.96075466       0.47745429 </v>
   <v>       0.56774001       0.72423349       0.87606998 </v>
   <v>       0.19266604       0.46082855       0.47747787 </v>
   <v>       0.93461816       0.27896063       0.12409121 </v>
   <v>       0.31210325       0.04185326       0.38854481 </v>
   <v>       0.05967710       0.04058920       0.65589361 </v>
   <v>       0.55850282       0.37487731       0.43310130 </v>
   <v>       0.68449672       0.46252767       0.74489831 </v>
   <v>       0.31627759       0.36258041       0.16673015 </v>
   <v>       0.94678968       0.12672225       0.70030537 </v>
   <v>       0.55982211       0.04092755       0.65573744 </v>
   <v>       0.55727969       0.53842666       0.52234267 </v>
   <v>       0.17786255       0.12375840       0.29970437 </v>
   <v>       0.44149534       0.11230958       0.16683511 </v>
   <v>       0.67771858       0.62395993       0.29973528 </v>
   <v>       0.92769170       0.12396776       0.29980831 </v>
   <v>       0.81662621       0.37474598       0.56682614 </v>
   <v>       0.05276998       0.87392324       0.29980096 </v>
   <v>       0.19174659       0.62506263       0.56682564 </v>
   <v>       0.94597214       0.79889641       0.78875492 </v>
   <v>       0.30848708       0.38769321       0.83348719 </v>
   <v>       0.93950452       0.46743241       0.87595963 </v>
   <v>       0.43365940       0.63784993       0.83349254 </v>
   <v>       0.06530893       0.20942912       0.34411147 </v>
   <v>       0.18941605       0.96752426       0.87600193 </v>
   <v>       0.93189645       0.77875271       0.12405910 </v>
   <v>       0.68704189       0.79176584       0.38853948 </v>
   <v>       0.93453033       0.79074860       0.65582595 </v>
   <v>       0.94124504       0.11168549       0.16666060 </v>
   <v>       0.43480913       0.29067137       0.65589322 </v>
   <v>       0.05344928       0.20183961       0.21139102 </v>
   <v>       0.67828511       0.95134687       0.21157466 </v>
   <v>       0.17780351       0.62366782       0.29965116 </v>
   <v>       0.82185837       0.87592858       0.70021738 </v>
   <v>       0.94649186       0.62589269       0.70035780 </v>
   <v>       0.19715889       0.12628681       0.70028479 </v>
   <v>       0.94292399       0.46075698       0.47742612 </v>
   <v>       0.81267230       0.20782551       0.61135554 </v>
   <v>       0.18342001       0.62511484       0.43313100 </v>
   <v>       0.42772975       0.12405076       0.29975200 </v>
   <v>       0.67790031       0.12419031       0.29980011 </v>
   <v>       0.56209208       0.54177574       0.38854808 </v>
   <v>       0.81518422       0.20948043       0.34410992 </v>
   <v>       0.43966874       0.46747406       0.87587333 </v>
   <v>       0.55860293       0.88742852       0.83350572 </v>
   <v>       0.31787180       0.21067579       0.47745150 </v>
   <v>       0.19303563       0.96071418       0.47750376 </v>
   <v>       0.05864446       0.88774718       0.83343107 </v>
   <v>       0.05741845       0.53834094       0.52235340 </v>
   <v>       0.94286901       0.96067076       0.47744556 </v>
   <v>       0.06289017       0.70786180       0.61131185 </v>
   <v>       0.55746570       0.03829511       0.52236839 </v>
   <v>       0.69646321       0.29850023       0.78874053 </v>
   <v>       0.81635060       0.36214925       0.16650900 </v>
   <v>       0.43339833       0.12509361       0.43307571 </v>
   <v>       0.06793148       0.21065812       0.47746287 </v>
   <v>       0.30975525       0.04066897       0.65576105 </v>
   <v>       0.43223098       0.78834336       0.52228883 </v>
   <v>       0.18357430       0.13762476       0.83352418 </v>
   <v>       0.18201654       0.27763764       0.12404884 </v>
   <v>       0.94035095       0.45936168       0.34418437 </v>
   <v>       0.31646515       0.86243670       0.16674315 </v>
   <v>       0.30337567       0.70196608       0.21145480 </v>
   <v>       0.94125109       0.61230223       0.16663327 </v>
   <v>       0.18780520       0.45824266       0.61139043 </v>
   <v>       0.07227132       0.87622801       0.70013859 </v>
   <v>       0.05972735       0.54072681       0.65583331 </v>
   <v>       0.30923985       0.53065870       0.12424756 </v>
   <v>       0.93699679       0.79172945       0.38853249 </v>
   <v>       0.94651269       0.29852146       0.78860025 </v>
   <v>       0.18462474       0.29061764       0.65579165 </v>
   <v>       0.93761904       0.95800499       0.61132996 </v>
   <v>       0.81113068       0.71139992       0.74461658 </v>
   <v>       0.68995168       0.28811498       0.25548560 </v>
   <v>       0.06004710       0.71197127       0.74488765 </v>
   <v>       0.67840793       0.45087455       0.21128791 </v>
   <v>       0.81810092       0.21081144       0.47748290 </v>
   <v>       0.56769545       0.71043331       0.47746862 </v>
   <v>       0.06631261       0.86246595       0.16665958 </v>
   <v>       0.93238554       0.28818033       0.52235751 </v>
   <v>       0.68468163       0.79071579       0.65577888 </v>
   <v>       0.05829294       0.87472794       0.43312156 </v>
   <v>       0.06782027       0.22286945       0.87611875 </v>
   <v>       0.80978138       0.04083453       0.65576517 </v>
   <v>       0.56005084       0.03196225       0.12437428 </v>
   <v>       0.30841775       0.37484566       0.43310460 </v>
   <v>       0.31661834       0.37471579       0.56681095 </v>
   <v>       0.31782986       0.71056581       0.47739505 </v>
   <v>       0.05744166       0.03824736       0.52235217 </v>
   <v>       0.32233818       0.87610739       0.70026170 </v>
   <v>       0.06566055       0.53787551       0.25542738 </v>
   <v>       0.68339279       0.13760518       0.83346657 </v>
   <v>       0.81583702       0.03754963       0.25534516 </v>
   <v>       0.18354892       0.12497460       0.43313771 </v>
   <v>       0.69747815       0.12665025       0.70031404 </v>
   <v>       0.18243797       0.28820340       0.52233091 </v>
   <v>       0.44015276       0.78813504       0.25545916 </v>
   <v>       0.81567677       0.53768056       0.25544189 </v>
   <v>       0.06261565       0.20800894       0.61130768 </v>
   <v>       0.18686316       0.79161519       0.38846903 </v>
   <v>       0.30742250       0.53823470       0.52234561 </v>
   <v>       0.82229021       0.37613598       0.70010785 </v>
   <v>       0.68700052       0.29179202       0.38853047 </v>
   <v>       0.19159272       0.12498223       0.56689291 </v>
   <v>       0.68960130       0.96823678       0.87598016 </v>
   <v>       0.69179323       0.12513253       0.56672093 </v>
   <v>       0.44034574       0.95925596       0.34418517 </v>
   <v>       0.18541169       0.96218631       0.74435188 </v>
   <v>       0.93993830       0.78824834       0.25545745 </v>
   <v>       0.55848193       0.87505078       0.43307924 </v>
   <v>       0.30844967       0.87505622       0.43312329 </v>
   <v>       0.80740491       0.53829428       0.52237189 </v>
   <v>       0.92855285       0.45093947       0.21131140 </v>
   <v>       0.31516381       0.53793170       0.25544924 </v>
   <v>       0.56222117       0.04190961       0.38859415 </v>
   <v>       0.93762835       0.45823795       0.61137764 </v>
   <v>       0.06214964       0.04181322       0.38854931 </v>
   <v>       0.06212250       0.54177641       0.38851166 </v>
   <v>       0.43708562       0.29180409       0.38854979 </v>
   <v>       0.69294655       0.46075606       0.47744720 </v>
   <v>       0.06673404       0.37462394       0.56682144 </v>
   <v>       0.55370853       0.70181682       0.21149255 </v>
   <v>       0.93985140       0.28820147       0.25546515 </v>
   <v>       0.82067778       0.04922931       0.78884725 </v>
   <v>       0.19034841       0.95937352       0.34415087 </v>
   <v>       0.55275953       0.87388789       0.29987708 </v>
   <v>       0.05835371       0.37497844       0.43310574 </v>
   <v>       0.31534027       0.70940933       0.34416545 </v>
   <v>       0.31534431       0.20949758       0.34410663 </v>
   <v>       0.94165748       0.12505542       0.56685714 </v>
   <v>       0.43798376       0.95801271       0.61130483 </v>
   <v>       0.56545041       0.03747340       0.25544744 </v>
   <v>       0.18264223       0.77922321       0.12428293 </v>
   <v>       0.06558092       0.03760493       0.25545756 </v>
   <v>       0.69172844       0.62496463       0.56677754 </v>
   <v>       0.44173299       0.61249257       0.16679139 </v>
   <v>       0.30705962       0.03838997       0.52231559 </v>
   <v>       0.68227715       0.27899906       0.12418885 </v>
   <v>       0.81785116       0.71070121       0.47743600 </v>
   <v>       0.43364461       0.13780182       0.83349156 </v>
   <v>       0.32204705       0.37624773       0.70017609 </v>
   <v>       0.68364957       0.63774299       0.83349898 </v>
   <v>       0.56062258       0.71217941       0.74446081 </v>
   <v>       0.93719202       0.29191526       0.38858218 </v>
   <v>       0.93948747       0.96743409       0.87595009 </v>
   <v>       0.93536400       0.96228919       0.74445742 </v>
   <v>       0.81701800       0.87484497       0.56671174 </v>
   <v>       0.80267379       0.87409084       0.29984026 </v>
   <v>       0.31549578       0.03770306       0.25547391 </v>
   <v>       0.43070241       0.27806854       0.12417276 </v>
   <v>       0.31251952       0.70810126       0.61136976 </v>
   <v>       0.43341958       0.62508009       0.43310376 </v>
   <v>       0.93297326       0.62518049       0.43318170 </v>
   <v>       0.56579526       0.86164172       0.16586104 </v>
   <v>       0.07175455       0.54929787       0.78865862 </v>
   <v>       0.81731485       0.86204823       0.16585897 </v>
   <v>       0.56023549       0.21084330       0.74445391 </v>
   <v>       0.56266014       0.20681708       0.61124240 </v>
   <v>       0.57342778       0.87705358       0.70045621 </v>
  </varray>
 </structure>
 <calculation>
  <scstep>
   <time name="dav">   54.03   54.04</time>
   <time name="total">   54.19   54.22</time>
   <energy>
    <i name="alphaZ">  16403.00255340 </i>
    <i name="ewald"> 719050.66756770 </i>
    <i name="hartreedc">-910715.68109566 </i>
    <i name="XCdc">  -6389.46137566 </i>
    <i name="pawpsdc"> 163151.95320885 </i>
    <i name="pawaedc">-160818.84594568 </i>
    <i name="eentropy">     -1.04477050 </i>
    <i name="bandstr">  38625.04497888 </i>
    <i name="atom"> 169914.59583762 </i>
    <i name="e_fr_energy">  29220.23095897 </i>
    <i name="e_wo_entrp">  29221.27572946 </i>
    <i name="e_0_energy">  29220.75334421 </i>
   </energy>
  </scstep>
  <scstep>
   <time name="dav">   53.51   53.54</time>
   <time name="total">   53.51   53.54</time>
   <energy>
    <i name="e_fr_energy">   1194.23999996 </i>
    <i name="e_wo_entrp">   1195.69257166 </i>
    <i name="e_0_energy">   1194.96628581 </i>
   </energy>
  </scstep>
  <scstep>
   <time name="dav">   70.28   70.31</time>
   <time name="total">   70.29   70.31</time>
   <energy>
    <i name="e_fr_energy">  -1940.25243532 </i>
    <i name="e_wo_entrp">  -1936.67982758 </i>
    <i name="e_0_energy">  -1938.46613145 </i>
   </energy>
  </scstep>
  <scstep>
   <time name="dav">   88.34   88.34</time>
   <time name="total">   88.35   88.35</time>
   <energy>
    <i name="e_fr_energy">  -2607.00766650 </i>
    <i name="e_wo_entrp">  -2603.39251843 </i>
    <i name="e_0_energy">  -2605.20009246 </i>
   </energy>
  </scstep>
  <scstep>
   <time name="dav">   84.16   84.67</time>
   <time name="total">   86.20   86.70</time>
   <energy>
    <i name="e_fr_energy">  -2727.01518534 </i>
    <i name="e_wo_entrp">  -2723.22788041 </i>
    <i name="e_0_energy">  -2725.12153288 </i>
   </energy>
  </scstep>
  <scstep>
   <time name="diag">    8.21    8.21</time>
   <time name="diis">   37.65   37.65</time>
   <time name="orth">    2.28    2.28</time>
   <time name="total">   50.29   50.33</time>
   <energy>
    <i name="e_fr_energy">  -5712.68812145 </i>
    <i name="e_wo_entrp">  -5709.16237210 </i>
    <i name="e_0_energy">  -5710.92524677 </i>
   </energy>
  </scstep>
  <scstep>
   <time name="diag">    8.27    8.27</time>
   <time name="diis">   34.36   34.36</time>
   <time name="orth">    2.28    2.28</time>
   <time name="total">   47.04   47.08</time>
[...]
       <r>     5.8786     0.0000  2772.0000 </r>
       <r>     5.9214     0.0000  2772.0000 </r>
       <r>     5.9642     0.0000  2772.0000 </r>
       <r>     6.0070     0.0000  2772.0000 </r>
       <r>     6.0498     0.0000  2772.0000 </r>
       <r>     6.0926     0.0000  2772.0000 </r>
       <r>     6.1354     0.0000  2772.0000 </r>
       <r>     6.1782     0.0000  2772.0000 </r>
       <r>     6.2210     0.0000  2772.0000 </r>
       <r>     6.2638     0.0000  2772.0000 </r>
       <r>     6.3066     0.0000  2772.0000 </r>
       <r>     6.3494     0.0000  2772.0000 </r>
       <r>     6.3922     0.0000  2772.0000 </r>
       <r>     6.4350     0.0000  2772.0000 </r>
       <r>     6.4778     0.0000  2772.0000 </r>
       <r>     6.5206     0.0000  2772.0000 </r>
       <r>     6.5634     0.0000  2772.0000 </r>
       <r>     6.6063     0.0000  2772.0000 </r>
       <r>     6.6491     0.0000  2772.0000 </r>
       <r>     6.6919     0.0000  2772.0000 </r>
       <r>     6.7347     0.0000  2772.0000 </r>
       <r>     6.7775     0.0000  2772.0000 </r>
       <r>     6.8203     0.0000  2772.0000 </r>
      </set>
     </set>
    </array>
   </total>
  </dos>
 </calculation>
 <structure name="finalpos" >
  <crystal>
   <varray name="basis" >
    <v>       9.72667804       0.00000000       0.00000000 </v>
    <v>       0.00000000       8.42355028       0.00000000 </v>
    <v>       0.00000000       0.00000000      45.00000000 </v>
   </varray>
   <i name="volume">   3686.99226691 </i>
   <varray name="rec_basis" >
    <v>       0.10281002       0.00000000       0.00000000 </v>
    <v>       0.00000000       0.11871479       0.00000000 </v>
    <v>       0.00000000       0.00000000       0.02222222 </v>
   </varray>
  </crystal>
  <varray name="positions" >
   <v>       0.05730755       0.70145055       0.21149173 </v>
   <v>       0.31588149       0.71974788       0.87566736 </v>
   <v>       0.68827516       0.95745293       0.61130620 </v>
   <v>       0.43811455       0.45761751       0.61140017 </v>
   <v>       0.43585567       0.28724824       0.25567948 </v>
   <v>       0.06126960       0.38655340       0.83407595 </v>
   <v>       0.31193608       0.88638378       0.83414604 </v>
   <v>       0.44166789       0.62653790       0.70016114 </v>
   <v>       0.06436467       0.21289532       0.74430671 </v>
   <v>       0.18237927       0.45149572       0.21137125 </v>
   <v>       0.56375241       0.20888658       0.47785593 </v>
   <v>       0.06395919       0.87441328       0.56665746 </v>
   <v>       0.56544094       0.21949169       0.87555106 </v>
   <v>       0.81083672       0.52886613       0.12465316 </v>
   <v>       0.43219655       0.95192974       0.21145072 </v>
   <v>       0.56415622       0.37418455       0.56662354 </v>
   <v>       0.81189569       0.04234173       0.38854340 </v>
   <v>       0.68632952       0.79066090       0.52212105 </v>
   <v>       0.43874933       0.45879983       0.47781693 </v>
   <v>       0.43887854       0.96234010       0.74450637 </v>
   <v>       0.43863909       0.62441760       0.56671577 </v>
   <v>       0.06087357       0.52920296       0.12471936 </v>
   <v>       0.31121966       0.02915366       0.12485018 </v>
   <v>       0.68695354       0.95878618       0.34445227 </v>
   <v>       0.68443557       0.78108594       0.12397702 </v>
   <v>       0.05795961       0.37349417       0.29974063 </v>
   <v>       0.68908061       0.47136188       0.87533474 </v>
   <v>       0.43225920       0.45153033       0.21132655 </v>
   <v>       0.81125078       0.37519214       0.43312047 </v>
   <v>       0.56304575       0.70764252       0.61134311 </v>
   <v>       0.56307794       0.54155098       0.65545215 </v>
   <v>       0.93630774       0.12524950       0.43313413 </v>
   <v>       0.56081483       0.53763948       0.25563248 </v>
   <v>       0.68663951       0.45859061       0.34422029 </v>
   <v>       0.18837223       0.61280653       0.16614536 </v>
   <v>       0.19253018       0.79890138       0.78861621 </v>
   <v>       0.44161721       0.12657030       0.70018790 </v>
   <v>       0.93295834       0.62370041       0.29981993 </v>
   <v>       0.31527137       0.21948047       0.87562247 </v>
   <v>       0.31359613       0.87452946       0.56660669 </v>
   <v>       0.81540113       0.21953092       0.87556421 </v>
   <v>       0.81326060       0.54128918       0.65556905 </v>
   <v>       0.56049061       0.52867957       0.12479248 </v>
   <v>       0.56724973       0.04883702       0.78882113 </v>
   <v>       0.18576614       0.28742998       0.25570562 </v>
   <v>       0.81114131       0.87549832       0.43309477 </v>
   <v>       0.56693558       0.37687056       0.70029950 </v>
   <v>       0.06048117       0.02924633       0.12471830 </v>
   <v>       0.31315192       0.54139006       0.65553977 </v>
   <v>       0.56178450       0.20846493       0.34440014 </v>
   <v>       0.18825289       0.95747287       0.61144103 </v>
   <v>       0.30781817       0.37366915       0.29982536 </v>
   <v>       0.43789501       0.79106845       0.65549363 </v>
   <v>       0.19216887       0.29854885       0.78872010 </v>
   <v>       0.06363671       0.36364796       0.16626467 </v>
   <v>       0.69227253       0.62609761       0.70024653 </v>
   <v>       0.31190039       0.54203301       0.38856063 </v>
   <v>       0.06538795       0.71929610       0.87565353 </v>
   <v>       0.93699470       0.63689823       0.83405126 </v>
   <v>       0.31786252       0.54916312       0.78877191 </v>
   <v>       0.30745973       0.20134400       0.21148548 </v>
   <v>       0.06374163       0.70880479       0.47788967 </v>
   <v>       0.55740087       0.20109398       0.21145834 </v>
   <v>       0.31396574       0.21320017       0.74428278 </v>
   <v>       0.06692537       0.37634525       0.70026403 </v>
   <v>       0.18674673       0.63678166       0.83389712 </v>
   <v>       0.06724783       0.04881905       0.78876263 </v>
   <v>       0.43880529       0.12445997       0.56662997 </v>
   <v>       0.93824087       0.29154052       0.65557775 </v>
   <v>       0.80735901       0.20104922       0.21138551 </v>
   <v>       0.93229645       0.95162057       0.21126630 </v>
   <v>       0.93898350       0.62450653       0.56672161 </v>
   <v>       0.81164336       0.38659033       0.83414109 </v>
   <v>       0.19199239       0.62643246       0.70021944 </v>
   <v>       0.81110516       0.88640164       0.83408022 </v>
   <v>       0.68845595       0.29200342       0.65558664 </v>
   <v>       0.31264932       0.20775953       0.61139365 </v>
   <v>       0.43895707       0.46250219       0.74426979 </v>
   <v>       0.43687038       0.79210303       0.38858374 </v>
   <v>       0.68984706       0.96243519       0.74451981 </v>
   <v>       0.80725440       0.70084442       0.21150024 </v>
   <v>       0.81381489       0.70735099       0.61125604 </v>
   <v>       0.43451012       0.78070790       0.12435026 </v>
   <v>       0.31375751       0.71272641       0.74426587 </v>
   <v>       0.31808014       0.04923745       0.78892213 </v>
   <v>       0.81208138       0.54225883       0.38858134 </v>
   <v>       0.68659960       0.29055311       0.52202468 </v>
   <v>       0.69231721       0.79902040       0.78867760 </v>
   <v>       0.18578027       0.78710786       0.25566201 </v>
   <v>       0.68802953       0.11282290       0.16627780 </v>
   <v>       0.68842972       0.95897700       0.47786576 </v>
   <v>       0.93679668       0.95912188       0.34432109 </v>
   <v>       0.81164882       0.04004418       0.52191415 </v>
   <v>       0.68586394       0.62512962       0.43312955 </v>
   <v>       0.43682330       0.45882624       0.34435773 </v>
   <v>       0.81514355       0.21294875       0.74438426 </v>
   <v>       0.43905389       0.97158348       0.87539561 </v>
   <v>       0.56414292       0.87456372       0.56660269 </v>
   <v>       0.81071666       0.02921418       0.12439351 </v>
   <v>       0.43307269       0.62357771       0.29976998 </v>
   <v>       0.81509789       0.71956678       0.87566511 </v>
   <v>       0.68835504       0.45783931       0.61138809 </v>
   <v>       0.56140245       0.38675094       0.83400535 </v>
   <v>       0.80774241       0.37378019       0.29976083 </v>
   <v>       0.18696122       0.29209870       0.38854749 </v>
   <v>       0.81652133       0.54933101       0.78893384 </v>
   <v>       0.18672566       0.79054024       0.52217812 </v>
   <v>       0.30791745       0.87356216       0.29981246 </v>
   <v>       0.18215921       0.95146042       0.21132757 </v>
   <v>       0.18933420       0.46279439       0.74432569 </v>
   <v>       0.43654636       0.29049286       0.52201097 </v>
   <v>       0.06185971       0.70854693       0.34431868 </v>
   <v>       0.18800295       0.79110421       0.65553033 </v>
   <v>       0.44252356       0.79916544       0.78867250 </v>
   <v>       0.68563055       0.12522992       0.43315182 </v>
   <v>       0.93660768       0.79025272       0.52208148 </v>
   <v>       0.68814410       0.61352051       0.16622594 </v>
   <v>       0.81198240       0.70857942       0.34433166 </v>
   <v>       0.93919764       0.46267544       0.74424031 </v>
   <v>       0.18697129       0.45858292       0.34434639 </v>
   <v>       0.56785522       0.54843295       0.78886490 </v>
   <v>       0.56200749       0.36332881       0.16621329 </v>
   <v>       0.56188210       0.70857933       0.34440543 </v>
   <v>       0.55789684       0.37381623       0.29979711 </v>
   <v>       0.18888162       0.47121972       0.87540618 </v>
   <v>       0.18822554       0.11488548       0.16619060 </v>
   <v>       0.44238808       0.29842208       0.78856418 </v>
   <v>       0.68583417       0.78732109       0.25573131 </v>
   <v>       0.93699607       0.13641211       0.83382344 </v>
   <v>       0.43853820       0.95881308       0.47786319 </v>
   <v>       0.56541782       0.71992785       0.87561526 </v>
   <v>       0.18834250       0.45896496       0.47784733 </v>
   <v>       0.93474314       0.28083139       0.12458251 </v>
   <v>       0.31184684       0.04220830       0.38857031 </v>
   <v>       0.06303822       0.04123077       0.65561348 </v>
   <v>       0.56124619       0.37484515       0.43308252 </v>
   <v>       0.68917061       0.46234161       0.74435506 </v>
   <v>       0.31184033       0.36364027       0.16629622 </v>
   <v>       0.94239540       0.12698977       0.70026724 </v>
   <v>       0.56314245       0.04134745       0.65554509 </v>
   <v>       0.56155367       0.54101160       0.52194073 </v>
   <v>       0.18292038       0.12350814       0.29972617 </v>
   <v>       0.43800410       0.11363718       0.16629496 </v>
   <v>       0.68312191       0.62339344       0.29977761 </v>
   <v>       0.93310124       0.12322225       0.29974536 </v>
   <v>       0.81367777       0.37444717       0.56669504 </v>
   <v>       0.05791444       0.87352639       0.29977495 </v>
   <v>       0.18888198       0.62431568       0.56674073 </v>
   <v>       0.94151959       0.79890088       0.78875105 </v>
   <v>       0.31144898       0.38663428       0.83411272 </v>
   <v>       0.93911881       0.47124575       0.87540857 </v>
   <v>       0.43663164       0.63694140       0.83400329 </v>
   <v>       0.06195538       0.20877949       0.34442833 </v>
   <v>       0.18867340       0.97131630       0.87542406 </v>
   <v>       0.93450768       0.78115229       0.12420938 </v>
   <v>       0.68704187       0.79213101       0.38855818 </v>
   <v>       0.93823365       0.79099344       0.65553789 </v>
   <v>       0.93844095       0.11390973       0.16614275 </v>
   <v>       0.43815555       0.29192352       0.65560774 </v>
   <v>       0.05752714       0.20130181       0.21140949 </v>
   <v>       0.68256703       0.95200224       0.21131874 </v>
   <v>       0.18298056       0.62386584       0.29977630 </v>
   <v>       0.81771256       0.87665441       0.70023207 </v>
   <v>       0.94231846       0.62625085       0.70023854 </v>
   <v>       0.19236934       0.12681537       0.70014711 </v>
   <v>       0.93873184       0.45878340       0.47790716 </v>
   <v>       0.81362765       0.20769222       0.61137777 </v>
   <v>       0.18653384       0.62518775       0.43310549 </v>
   <v>       0.43295343       0.12352287       0.29976833 </v>
   <v>       0.68297959       0.12330552       0.29973227 </v>
   <v>       0.56178781       0.54195684       0.38856464 </v>
   <v>       0.81183847       0.20866884       0.34442297 </v>
   <v>       0.43907660       0.47148437       0.87527290 </v>
   <v>       0.56131063       0.88631195       0.83415371 </v>
   <v>       0.31370347       0.20888283       0.47785884 </v>
   <v>       0.18868295       0.95892129       0.47793427 </v>
   <v>       0.06149044       0.88632036       0.83408840 </v>
   <v>       0.06148135       0.54036776       0.52205848 </v>
   <v>       0.93857732       0.95874651       0.47785928 </v>
   <v>       0.06299028       0.70768059       0.61137795 </v>
   <v>       0.56144330       0.04072997       0.52200332 </v>
   <v>       0.69248634       0.29849034       0.78873274 </v>
   <v>       0.81338867       0.36304127       0.16619260 </v>
   <v>       0.43620902       0.12509282       0.43312309 </v>
   <v>       0.06360653       0.20868001       0.47785447 </v>
   <v>       0.31337650       0.04121446       0.65545522 </v>
   <v>       0.43652637       0.79064811       0.52201942 </v>
   <v>       0.18721322       0.13665399       0.83384844 </v>
   <v>       0.18494713       0.28011253       0.12455735 </v>
   <v>       0.93691355       0.45892049       0.34433353 </v>
   <v>       0.31313659       0.86406851       0.16630200 </v>
   <v>       0.30759459       0.70149749       0.21147431 </v>
   <v>       0.93773247       0.61256115       0.16620088 </v>
   <v>       0.18814956       0.45788906       0.61140872 </v>
   <v>       0.06732572       0.87679184       0.70016004 </v>
   <v>       0.06321712       0.54135440       0.65562332 </v>
   <v>       0.31068303       0.52870201       0.12480275 </v>
   <v>       0.93686976       0.79223848       0.38854939 </v>
   <v>       0.94193733       0.29866682       0.78875860 </v>
   <v>       0.18792119       0.29162131       0.65558422 </v>
   <v>       0.93810455       0.95719445       0.61145512 </v>
   <v>       0.81474865       0.71310551       0.74444849 </v>
   <v>       0.68596475       0.28709851       0.25564436 </v>
   <v>       0.06448906       0.71292675       0.74428814 </v>
   <v>       0.68253654       0.45156452       0.21122439 </v>
   <v>       0.81343157       0.20859393       0.47784569 </v>
   <v>       0.56365280       0.70885222       0.47792691 </v>
   <v>       0.06225626       0.86410184       0.16624882 </v>
   <v>       0.93659831       0.29024057       0.52215675 </v>
   <v>       0.68796494       0.79138896       0.65566068 </v>
   <v>       0.06135319       0.87505465       0.43306964 </v>
   <v>       0.06546753       0.21898439       0.87570169 </v>
   <v>       0.81313816       0.04122269       0.65547296 </v>
   <v>       0.56092279       0.02888794       0.12447705 </v>
   <v>       0.31118966       0.37483558       0.43308395 </v>
   <v>       0.31406507       0.37447456       0.56665090 </v>
   <v>       0.31366001       0.70893264       0.47784446 </v>
   <v>       0.06153468       0.04031207       0.52204880 </v>
   <v>       0.31641546       0.87650096       0.70017766 </v>
   <v>       0.06071535       0.53753565       0.25560624 </v>
   <v>       0.68716445       0.13681587       0.83390187 </v>
   <v>       0.81048167       0.03757531       0.25569813 </v>
   <v>       0.18673880       0.12516280       0.43310827 </v>
   <v>       0.69230202       0.12678611       0.70008777 </v>
   <v>       0.18640603       0.29050113       0.52208537 </v>
   <v>       0.43585665       0.78710005       0.25573360 </v>
   <v>       0.81070440       0.53766015       0.25558119 </v>
   <v>       0.06311446       0.20776380       0.61137865 </v>
   <v>       0.18672117       0.79210993       0.38861206 </v>
   <v>       0.31156118       0.54045491       0.52207576 </v>
   <v>       0.81718293       0.37697939       0.70031574 </v>
   <v>       0.68677299       0.29221059       0.38857259 </v>
   <v>       0.18887142       0.12431739       0.56666914 </v>
   <v>       0.68888416       0.97163138       0.87542013 </v>
   <v>       0.68888014       0.12457550       0.56663357 </v>
   <v>       0.43690231       0.95886066       0.34443850 </v>
   <v>       0.18877901       0.96214406       0.74437594 </v>
   <v>       0.93565157       0.78722191       0.25566374 </v>
   <v>       0.56126702       0.87571697       0.43312885 </v>
   <v>       0.31120716       0.87552873       0.43313066 </v>
   <v>       0.81149141       0.54038240       0.52209518 </v>
   <v>       0.93251922       0.45158736       0.21126821 </v>
   <v>       0.31123925       0.53740033       0.25561740 </v>
   <v>       0.56168660       0.04210419       0.38853793 </v>
   <v>       0.93822241       0.45799123       0.61140516 </v>
   <v>       0.06188279       0.04234790       0.38859018 </v>
   <v>       0.06188961       0.54200356       0.38855376 </v>
   <v>       0.43683298       0.29210327       0.38854671 </v>
   <v>       0.68871205       0.45885788       0.47788168 </v>
   <v>       0.06406303       0.37441649       0.56672337 </v>
   <v>       0.55782397       0.70093176       0.21147066 </v>
   <v>       0.93596329       0.28732666       0.25567105 </v>
   <v>       0.81690607       0.04930640       0.78886198 </v>
   <v>       0.18678669       0.95872875       0.34437501 </v>
   <v>       0.55792704       0.87361173       0.29977843 </v>
   <v>       0.06151649       0.37516060       0.43306902 </v>
   <v>       0.31196060       0.70859007       0.34436545 </v>
   <v>       0.31194803       0.20860311       0.34442180 </v>
   <v>       0.93906905       0.12442381       0.56663098 </v>
   <v>       0.43785465       0.95745421       0.61137313 </v>
   <v>       0.56079733       0.03776462       0.25576384 </v>
   <v>       0.18503253       0.78100461       0.12469509 </v>
   <v>       0.06069037       0.03787104       0.25564796 </v>
   <v>       0.68897386       0.62466974       0.56668654 </v>
   <v>       0.43880463       0.61317423       0.16613847 </v>
   <v>       0.31150453       0.04029237       0.52201368 </v>
   <v>       0.68483143       0.28119885       0.12462137 </v>
   <v>       0.81365121       0.70867815       0.47787822 </v>
   <v>       0.43735785       0.13653902       0.83388518 </v>
   <v>       0.31694628       0.37663136       0.70032122 </v>
   <v>       0.68734343       0.63681099       0.83390136 </v>
   <v>       0.56399824       0.71293856       0.74441863 </v>
   <v>       0.93697563       0.29223344       0.38857471 </v>
   <v>       0.93937217       0.97131938       0.87539839 </v>
   <v>       0.93904460       0.96257252       0.74445684 </v>
   <v>       0.81385392       0.87449600       0.56668682 </v>
   <v>       0.80801818       0.87361183       0.29975059 </v>
   <v>       0.31112909       0.03780752       0.25572687 </v>
   <v>       0.43480296       0.28052182       0.12461166 </v>
   <v>       0.31266047       0.70726209       0.61128506 </v>
   <v>       0.43594086       0.62510530       0.43311098 </v>
   <v>       0.93607682       0.62507935       0.43315189 </v>
   <v>       0.56254287       0.86387058       0.16593696 </v>
   <v>       0.06783297       0.54914045       0.78866365 </v>
   <v>       0.81466100       0.86380402       0.16585976 </v>
   <v>       0.56377121       0.21285572       0.74441045 </v>
   <v>       0.56304182       0.20826946       0.61125878 </v>
   <v>       0.56758277       0.87639579       0.70030102 </v>
  </varray>
 </structure>
</modeling>
