unknown system                          
           1
     9.726678    0.000000    0.000000
     0.000000    8.423550    0.000000
     0.000000    0.000000   45.000000
   Fe   Mn
 281   7
Direct configuration=     1
   0.05335359  0.70185330  0.21142541
   0.31826883  0.72389492  0.87617526
   0.68760460  0.95825798  0.61132468
   0.43814480  0.45767719  0.61122002
   0.44006669  0.28811068  0.25548377
   0.05859891  0.38806499  0.83346030
   0.30855807  0.88767221  0.83350166
   0.44720794  0.62619726  0.70014586
   0.06041960  0.21217429  0.74482559
   0.17845970  0.45121102  0.21131316
   0.56776829  0.21063488  0.47746791
   0.06679675  0.87484960  0.56676469
   0.56773431  0.22388532  0.87612064
   0.81059281  0.53195677  0.12428842
   0.42824337  0.95126743  0.21144558
   0.56669599  0.37489491  0.56689454
   0.81221270  0.04189384  0.38861182
   0.68233068  0.78850564  0.52226855
   0.44275519  0.46070360  0.47748317
   0.43503521  0.96194958  0.74456949
   0.44206134  0.62500974  0.56672825
   0.06083544  0.53106579  0.12428594
   0.31006600  0.03182953  0.12426764
   0.69027254  0.95937335  0.34417420
   0.68164921  0.77754740  0.12406006
   0.05269114  0.37386871  0.29977397
   0.68943399  0.46756218  0.87588678
   0.42854936  0.45106825  0.21128986
   0.80846432  0.37510323  0.43313752
   0.56262917  0.70802022  0.61136638
   0.55992515  0.54148680  0.65568689
   0.93342821  0.12490576  0.43310164
   0.56574965  0.53757475  0.25547123
   0.69025463  0.45932076  0.34417812
   0.19133055  0.61195051  0.16674258
   0.19584303  0.79888988  0.78865614
   0.44742688  0.12618422  0.70018399
   0.92785561  0.62362933  0.29965742
   0.31821445  0.22384351  0.87605678
   0.31681724  0.87441709  0.56677417
   0.81763153  0.22340119  0.87611901
   0.80979336  0.54107597  0.65573175
   0.55915400  0.53177074  0.12424866
   0.57062356  0.04956565  0.78872875
   0.18990028  0.28821534  0.25546801
   0.80854085  0.87499646  0.43312619
   0.57222735  0.37610453  0.70018945
   0.06066786  0.03152597  0.12415421
   0.30967217  0.54070823  0.65581907
   0.56546156  0.20943817  0.34413502
   0.18776262  0.95811010  0.61130682
   0.30263409  0.37396766  0.29976634
   0.43442661  0.79090269  0.65564593
   0.19599740  0.29826009  0.78856890
   0.06626585  0.36243349  0.16654234
   0.69691266  0.62656393  0.70042258
   0.31218176  0.54176104  0.38857168
   0.06775473  0.72319123  0.87610609
   0.93345315  0.63758877  0.83353382
   0.32047729  0.54946932  0.78876942
   0.30335929  0.20184834  0.21142061
   0.06792485  0.71068507  0.47746781
   0.55352558  0.20152014  0.21144863
   0.31094923  0.21137791  0.74466730
   0.07214934  0.37617922  0.70030341
   0.18342395  0.63754054  0.83350983
   0.07107123  0.04885503  0.78880050
   0.44165921  0.12498742  0.56682014
   0.93474794  0.29083604  0.65576106
   0.80357831  0.20162751  0.21137028
   0.92886181  0.95116947  0.21133085
   0.94157234  0.62512249  0.56687668
   0.80854468  0.38787687  0.83350208
   0.19717957  0.62590604  0.70006688
   0.80850430  0.88767333  0.83351558
   0.68479292  0.29075270  0.65581660
   0.31286979  0.20802359  0.61133036
   0.43553899  0.46246002  0.74452335
   0.43704164  0.79177438  0.38853553
   0.68487455  0.96295249  0.74454266
   0.80327272  0.70178308  0.21147000
   0.81309751  0.70775756  0.61126967
   0.43179746  0.77805620  0.12420952
   0.31069146  0.71180621  0.74458177
   0.32057345  0.04934717  0.78883394
   0.81194220  0.54174802  0.38844044
   0.68242120  0.28813077  0.52231776
   0.69541552  0.79908868  0.78876996
   0.18993918  0.78816779  0.25547415
   0.69120440  0.11167635  0.16657737
   0.69284962  0.96063923  0.47746352
   0.94042311  0.95944485  0.34413354
   0.80737874  0.03825318  0.52235872
   0.68349336  0.62502075  0.43307620
   0.44032038  0.45929829  0.34419685
   0.81025329  0.21222842  0.74456949
   0.43961267  0.96766685  0.87604455
   0.56679896  0.87489572  0.56675570
   0.81096332  0.03167250  0.12429532
   0.42776576  0.62390049  0.29972515
   0.81741484  0.72354715  0.87613626
   0.68763106  0.45815445  0.61123078
   0.55859538  0.38778676  0.83318473
   0.80284913  0.37373360  0.29970725
   0.18707584  0.29180871  0.38852064
   0.82108825  0.54888924  0.78879154
   0.18244780  0.78829068  0.52239808
   0.30267498  0.87394768  0.29975433
   0.17873523  0.95128846  0.21126543
   0.18523005  0.46229429  0.74458117
   0.43239647  0.28824015  0.52229935
   0.06537495  0.70943932  0.34414646
   0.18474331  0.79059557  0.65581204
   0.44533268  0.79900685  0.78875463
   0.68345825  0.12500390  0.43306359
   0.93243442  0.78815739  0.52233473
   0.69176301  0.61276951  0.16655322
   0.81545091  0.70942403  0.34414915
   0.93455433  0.46268758  0.74490360
   0.19042801  0.45938282  0.34415685
   0.57025917  0.54942004  0.78886676
   0.56614119  0.36218936  0.16665418
   0.56539911  0.70952204  0.34413962
   0.55271958  0.37402697  0.29975470
   0.18949299  0.46738916  0.87591844
   0.19147324  0.11267548  0.16687087
   0.44513833  0.29883549  0.78874928
   0.68999512  0.78827782  0.25545362
   0.93369211  0.13760214  0.83348719
   0.44293813  0.96075466  0.47745429
   0.56774001  0.72423349  0.87606998
   0.19266604  0.46082855  0.47747787
   0.93461816  0.27896063  0.12409121
   0.31210325  0.04185326  0.38854481
   0.05967710  0.04058920  0.65589361
   0.55850282  0.37487731  0.43310130
   0.68449672  0.46252767  0.74489831
   0.31627759  0.36258041  0.16673015
   0.94678968  0.12672225  0.70030537
   0.55982211  0.04092755  0.65573744
   0.55727969  0.53842666  0.52234267
   0.17786255  0.12375840  0.29970437
   0.44149534  0.11230958  0.16683511
   0.67771858  0.62395993  0.29973528
   0.92769170  0.12396776  0.29980831
   0.81662621  0.37474598  0.56682614
   0.05276998  0.87392324  0.29980096
   0.19174659  0.62506263  0.56682564
   0.94597214  0.79889641  0.78875492
   0.30848708  0.38769321  0.83348719
   0.93950452  0.46743241  0.87595963
   0.43365940  0.63784993  0.83349254
   0.06530893  0.20942912  0.34411147
   0.18941605  0.96752426  0.87600193
   0.93189645  0.77875271  0.12405910
   0.68704189  0.79176584  0.38853948
   0.93453033  0.79074860  0.65582595
   0.94124504  0.11168549  0.16666060
   0.43480913  0.29067137  0.65589322
   0.05344928  0.20183961  0.21139102
   0.67828511  0.95134687  0.21157466
   0.17780351  0.62366782  0.29965116
   0.82185837  0.87592858  0.70021738
   0.94649186  0.62589269  0.70035780
   0.19715889  0.12628681  0.70028479
   0.94292399  0.46075698  0.47742612
   0.81267230  0.20782551  0.61135554
   0.18342001  0.62511484  0.43313100
   0.42772975  0.12405076  0.29975200
   0.67790031  0.12419031  0.29980011
   0.56209208  0.54177574  0.38854808
   0.81518422  0.20948043  0.34410992
   0.43966874  0.46747406  0.87587333
   0.55860293  0.88742852  0.83350572
   0.31787180  0.21067579  0.47745150
   0.19303563  0.96071418  0.47750376
   0.05864446  0.88774718  0.83343107
   0.05741845  0.53834094  0.52235340
   0.94286901  0.96067076  0.47744556
   0.06289017  0.70786180  0.61131185
   0.55746570  0.03829511  0.52236839
   0.69646321  0.29850023  0.78874053
   0.81635060  0.36214925  0.16650900
   0.43339833  0.12509361  0.43307571
   0.06793148  0.21065812  0.47746287
   0.30975525  0.04066897  0.65576105
   0.43223098  0.78834336  0.52228883
   0.18357430  0.13762476  0.83352418
   0.18201654  0.27763764  0.12404884
   0.94035095  0.45936168  0.34418437
   0.31646515  0.86243670  0.16674315
   0.30337567  0.70196608  0.21145480
   0.94125109  0.61230223  0.16663327
   0.18780520  0.45824266  0.61139043
   0.07227132  0.87622801  0.70013859
   0.05972735  0.54072681  0.65583331
   0.30923985  0.53065870  0.12424756
   0.93699679  0.79172945  0.38853249
   0.94651269  0.29852146  0.78860025
   0.18462474  0.29061764  0.65579165
   0.93761904  0.95800499  0.61132996
   0.81113068  0.71139992  0.74461658
   0.68995168  0.28811498  0.25548560
   0.06004710  0.71197127  0.74488765
   0.67840793  0.45087455  0.21128791
   0.81810092  0.21081144  0.47748290
   0.56769545  0.71043331  0.47746862
   0.06631261  0.86246595  0.16665958
   0.93238554  0.28818033  0.52235751
   0.68468163  0.79071579  0.65577888
   0.05829294  0.87472794  0.43312156
   0.06782027  0.22286945  0.87611875
   0.80978138  0.04083453  0.65576517
   0.56005084  0.03196225  0.12437428
   0.30841775  0.37484566  0.43310460
   0.31661834  0.37471579  0.56681095
   0.31782986  0.71056581  0.47739505
   0.05744166  0.03824736  0.52235217
   0.32233818  0.87610739  0.70026170
   0.06566055  0.53787551  0.25542738
   0.68339279  0.13760518  0.83346657
   0.81583702  0.03754963  0.25534516
   0.18354892  0.12497460  0.43313771
   0.69747815  0.12665025  0.70031404
   0.18243797  0.28820340  0.52233091
   0.44015276  0.78813504  0.25545916
   0.81567677  0.53768056  0.25544189
   0.06261565  0.20800894  0.61130768
   0.18686316  0.79161519  0.38846903
   0.30742250  0.53823470  0.52234561
   0.82229021  0.37613598  0.70010785
   0.68700052  0.29179202  0.38853047
   0.19159272  0.12498223  0.56689291
   0.68960130  0.96823678  0.87598016
   0.69179323  0.12513253  0.56672093
   0.44034574  0.95925596  0.34418517
   0.18541169  0.96218631  0.74435188
   0.93993830  0.78824834  0.25545745
   0.55848193  0.87505078  0.43307924
   0.30844967  0.87505622  0.43312329
   0.80740491  0.53829428  0.52237189
   0.92855285  0.45093947  0.21131140
   0.31516381  0.53793170  0.25544924
   0.56222117  0.04190961  0.38859415
   0.93762835  0.45823795  0.61137764
   0.06214964  0.04181322  0.38854931
   0.06212250  0.54177641  0.38851166
   0.43708562  0.29180409  0.38854979
   0.69294655  0.46075606  0.47744720
   0.06673404  0.37462394  0.56682144
   0.55370853  0.70181682  0.21149255
   0.93985140  0.28820147  0.25546515
   0.82067778  0.04922931  0.78884725
   0.19034841  0.95937352  0.34415087
   0.55275953  0.87388789  0.29987708
   0.05835371  0.37497844  0.43310574
   0.31534027  0.70940933  0.34416545
   0.31534431  0.20949758  0.34410663
   0.94165748  0.12505542  0.56685714
   0.43798376  0.95801271  0.61130483
   0.56545041  0.03747340  0.25544744
   0.18264223  0.77922321  0.12428293
   0.06558092  0.03760493  0.25545756
   0.69172844  0.62496463  0.56677754
   0.44173299  0.61249257  0.16679139
   0.30705962  0.03838997  0.52231559
   0.68227715  0.27899906  0.12418885
   0.81785116  0.71070121  0.47743600
   0.43364461  0.13780182  0.83349156
   0.32204705  0.37624773  0.70017609
   0.68364957  0.63774299  0.83349898
   0.56062258  0.71217941  0.74446081
   0.93719202  0.29191526  0.38858218
   0.93948747  0.96743409  0.87595009
   0.93536400  0.96228919  0.74445742
   0.81701800  0.87484497  0.56671174
   0.80267379  0.87409084  0.29984026
   0.31549578  0.03770306  0.25547391
   0.43070241  0.27806854  0.12417276
   0.31251952  0.70810126  0.61136976
   0.43341958  0.62508009  0.43310376
   0.93297326  0.62518049  0.43318170
   0.56579526  0.86164172  0.16586104
   0.07175455  0.54929787  0.78865862
   0.81731485  0.86204823  0.16585897
   0.56023549  0.21084330  0.74445391
   0.56266014  0.20681708  0.61124240
   0.57342778  0.87705358  0.70045621
Direct configuration=     2
   0.05387550  0.70180014  0.21143416
   0.31795371  0.72334752  0.87610822
   0.68769311  0.95815172  0.61132224
   0.43814081  0.45766931  0.61124380
   0.43951085  0.28799684  0.25550960
   0.05895143  0.38786547  0.83354156
   0.30900396  0.88750214  0.83358671
   0.44647667  0.62624223  0.70014787
   0.06094034  0.21226946  0.74475710
   0.17897707  0.45124860  0.21132082
   0.56723821  0.21040411  0.47751913
   0.06642220  0.87479201  0.56675054
   0.56743159  0.22330538  0.87604546
   0.81062500  0.53154882  0.12433656
   0.42876517  0.95135485  0.21144626
   0.56636075  0.37480114  0.56685877
   0.81217085  0.04195296  0.38860279
   0.68285851  0.78879013  0.52224908
   0.44222643  0.46045231  0.47752723
   0.43554252  0.96200112  0.74456116
   0.44160961  0.62493158  0.56672660
   0.06084047  0.53081990  0.12434315
   0.31021828  0.03147632  0.12434453
   0.68983445  0.95929584  0.34421091
   0.68201700  0.77801448  0.12404910
   0.05338656  0.37381927  0.29976957
   0.68938734  0.46806373  0.87581391
   0.42903904  0.45112924  0.21129471
   0.80883213  0.37511496  0.43313527
   0.56268416  0.70797037  0.61136331
   0.56034131  0.54149527  0.65565591
   0.93380830  0.12495113  0.43310593
   0.56509827  0.53758329  0.25549251
   0.68977744  0.45922438  0.34418369
   0.19094006  0.61206350  0.16666375
   0.19540574  0.79889140  0.78865087
   0.44666003  0.12623518  0.70018451
   0.92852915  0.62363871  0.29967887
   0.31782597  0.22326761  0.87599945
   0.31639206  0.87443192  0.56675206
   0.81733712  0.22289033  0.87604577
   0.81025103  0.54110411  0.65571028
   0.55933042  0.53136272  0.12432044
   0.57017823  0.04946947  0.78874095
   0.18935459  0.28811168  0.25549938
   0.80888410  0.87506270  0.43312205
   0.57152885  0.37620564  0.70020398
   0.06064322  0.03122507  0.12422867
   0.31013148  0.54079823  0.65578220
   0.56497620  0.20930971  0.34417001
   0.18782733  0.95802599  0.61132454
   0.30331837  0.37392826  0.29977413
   0.43488443  0.79092457  0.65562582
   0.19549204  0.29829821  0.78858885
   0.06591881  0.36259380  0.16650569
   0.69630018  0.62650238  0.70039934
   0.31214462  0.54179694  0.38857022
   0.06744232  0.72267709  0.87604636
   0.93392062  0.63749762  0.83360212
   0.32013215  0.54942890  0.78876975
   0.30390054  0.20178177  0.21142917
   0.06737268  0.71043688  0.47752350
   0.55403711  0.20146389  0.21144992
   0.31134740  0.21161844  0.74461655
   0.07145979  0.37620114  0.70029821
   0.18386255  0.63744037  0.83356095
   0.07056655  0.04885028  0.78879551
   0.44128250  0.12491780  0.56679504
   0.93520899  0.29092903  0.65573686
   0.80407735  0.20155118  0.21137229
   0.92931517  0.95122901  0.21132233
   0.94123062  0.62504119  0.56685621
   0.80895370  0.38770705  0.83358643
   0.19649488  0.62597552  0.70008702
   0.80884761  0.88750547  0.83359011
   0.68527643  0.29091779  0.65578625
   0.31284069  0.20798874  0.61133871
   0.43599017  0.46246558  0.74448988
   0.43701903  0.79181776  0.38854189
   0.68553091  0.96288421  0.74453964
   0.80379829  0.70165918  0.21147399
   0.81319221  0.70770389  0.61126787
   0.43215552  0.77840622  0.12422810
   0.31109617  0.71192768  0.74454007
   0.32024434  0.04933269  0.78884558
   0.81196057  0.54181544  0.38845904
   0.68297273  0.28845051  0.52227907
   0.69500655  0.79907967  0.78875777
   0.18939022  0.78802788  0.25549894
   0.69078533  0.11182769  0.16653782
   0.69226620  0.96041982  0.47751661
   0.93994444  0.95940222  0.34415830
   0.80794238  0.03848958  0.52230004
   0.68380627  0.62503512  0.43308324
   0.43985878  0.45923599  0.34421808
   0.81089879  0.21232350  0.74454504
   0.43953891  0.96818383  0.87595889
   0.56644837  0.87485189  0.56673550
   0.81093076  0.03134801  0.12430828
   0.42846626  0.62385788  0.29973107
   0.81710901  0.72302175  0.87607407
   0.68772663  0.45811285  0.61125154
   0.55896590  0.38765004  0.83329305
   0.80349503  0.37373975  0.29971432
   0.18706071  0.29184699  0.38852418
   0.82048543  0.54894755  0.78881032
   0.18301246  0.78858762  0.52236905
   0.30336697  0.87389680  0.29976201
   0.17918718  0.95131116  0.21127363
   0.18577178  0.46236030  0.74454745
   0.43294424  0.28853750  0.52226128
   0.06491095  0.70932152  0.34416920
   0.18517357  0.79066271  0.65577486
   0.44496188  0.79902778  0.78874379
   0.68374498  0.12503373  0.43307523
   0.93298528  0.78843397  0.52230130
   0.69128533  0.61286864  0.16651002
   0.81499308  0.70931254  0.34417324
   0.93516723  0.46268598  0.74481605
   0.18997173  0.45927723  0.34418187
   0.56994185  0.54928974  0.78886651
   0.56559556  0.36233977  0.16659599
   0.56493487  0.70939761  0.34417470
   0.55340297  0.37399915  0.29976030
   0.18941229  0.46789478  0.87585082
   0.19104455  0.11296719  0.16678108
   0.44477531  0.29878092  0.78872485
   0.68944589  0.78815154  0.25549028
   0.93412823  0.13744506  0.83353158
   0.44235735  0.96049838  0.47750827
   0.56743349  0.72366516  0.87600996
   0.19209534  0.46058256  0.47752663
   0.93463466  0.27920756  0.12415606
   0.31206940  0.04190013  0.38854817
   0.06012075  0.04067388  0.65585664
   0.55886494  0.37487306  0.43309882
   0.68511366  0.46250311  0.74482660
   0.31569188  0.36272030  0.16667287
   0.94620965  0.12675756  0.70030034
   0.56026038  0.04098298  0.65571205
   0.55784384  0.53876786  0.52228962
   0.17853017  0.12372536  0.29970724
   0.44103451  0.11248482  0.16676381
   0.67843180  0.62388515  0.29974087
   0.92840574  0.12386935  0.29980000
   0.81623702  0.37470654  0.56680883
   0.05344903  0.87387086  0.29979753
   0.19136847  0.62496403  0.56681443
   0.94538442  0.79889700  0.78875441
   0.30887804  0.38755344  0.83356976
   0.93945360  0.46793576  0.87588689
   0.43405173  0.63773001  0.83355996
   0.06486628  0.20934337  0.34415330
   0.18931802  0.96802479  0.87592565
   0.93224113  0.77906945  0.12407894
   0.68704189  0.79181404  0.38854195
   0.93501916  0.79078091  0.65578792
   0.94087491  0.11197908  0.16659225
   0.43525085  0.29083665  0.65585554
   0.05398754  0.20176862  0.21139346
   0.67885031  0.95143337  0.21154088
   0.17848686  0.62369396  0.29966768
   0.82131114  0.87602439  0.70021932
   0.94594098  0.62593996  0.70034206
   0.19652669  0.12635658  0.70026662
   0.94237064  0.46049648  0.47748961
   0.81279840  0.20780792  0.61135848
   0.18383103  0.62512446  0.43312763
   0.42841926  0.12398108  0.29975415
   0.67857076  0.12407352  0.29979116
   0.56205191  0.54179964  0.38855027
   0.81474259  0.20937331  0.34415124
   0.43959058  0.46800340  0.87579408
   0.55896034  0.88728114  0.83359126
   0.31732159  0.21043912  0.47750527
   0.19246109  0.96047752  0.47756058
   0.05902012  0.88755884  0.83351783
   0.05795474  0.53860847  0.52231447
   0.94230252  0.96041677  0.47750017
   0.06290339  0.70783788  0.61132057
   0.55799073  0.03861650  0.52232020
   0.69593827  0.29849892  0.78873950
   0.81595963  0.36226700  0.16646723
   0.43376934  0.12509351  0.43308196
   0.06736060  0.21039702  0.47751456
   0.31023324  0.04074097  0.65572068
   0.43279796  0.78864758  0.52225327
   0.18405462  0.13749662  0.83356698
   0.18240337  0.27796432  0.12411596
   0.93989722  0.45930344  0.34420405
   0.31602579  0.86265209  0.16668492
   0.30393255  0.70190423  0.21145737
   0.94078664  0.61233641  0.16657619
   0.18785065  0.45819599  0.61139284
   0.07161851  0.87630243  0.70014142
   0.06018799  0.54080965  0.65580559
   0.30943034  0.53040042  0.12432084
   0.93698002  0.79179664  0.38853472
   0.94590876  0.29854065  0.78862115
   0.18505986  0.29075012  0.65576427
   0.93768313  0.95789800  0.61134648
   0.81160824  0.71162506  0.74459440
   0.68942541  0.28798081  0.25550656
   0.06063342  0.71209739  0.74480852
   0.67895289  0.45096562  0.21127952
   0.81748458  0.21051873  0.47753079
   0.56716184  0.71022461  0.47752911
   0.06577718  0.86268188  0.16660536
   0.93294161  0.28845227  0.52233101
   0.68511501  0.79080464  0.65576328
   0.05869688  0.87477106  0.43311471
   0.06750972  0.22235663  0.87606370
   0.81022446  0.04088577  0.65572660
   0.56016593  0.03155646  0.12438784
   0.30878363  0.37484433  0.43310188
   0.31628131  0.37468395  0.56678982
   0.31727946  0.71035024  0.47745437
   0.05798192  0.03851989  0.52231213
   0.32155640  0.87615934  0.70025061
   0.06500780  0.53783065  0.25545098
   0.68389064  0.13750099  0.83352403
   0.81513013  0.03755302  0.25539175
   0.18396997  0.12499945  0.43313382
   0.69679492  0.12666819  0.70028417
   0.18296175  0.28850670  0.52229850
   0.43958569  0.78799843  0.25549539
   0.81502043  0.53767786  0.25546028
   0.06268149  0.20797658  0.61131705
   0.18684442  0.79168049  0.38848791
   0.30796879  0.53852776  0.52230999
   0.82161607  0.37624731  0.70013529
   0.68697049  0.29184727  0.38853603
   0.19123352  0.12489447  0.56686337
   0.68950664  0.96868486  0.87590624
   0.69140871  0.12505900  0.56670940
   0.43989122  0.95920378  0.34421861
   0.18585617  0.96218073  0.74435505
   0.93937246  0.78811285  0.25548468
   0.55884955  0.87513871  0.43308579
   0.30881365  0.87511859  0.43312426
   0.80794432  0.53856990  0.52233537
   0.92907640  0.45102499  0.21130569
   0.31464578  0.53786156  0.25547144
   0.56215061  0.04193529  0.38858673
   0.93770676  0.45820538  0.61138127
   0.06211441  0.04188380  0.38855471
   0.06209176  0.54180639  0.38851722
   0.43705227  0.29184358  0.38854938
   0.69238761  0.46050550  0.47750455
   0.06638148  0.37459656  0.56680850
   0.55425176  0.70169999  0.21148966
   0.93933818  0.28808600  0.25549233
   0.82017993  0.04923949  0.78884919
   0.18987828  0.95928841  0.34418046
   0.55344162  0.87385144  0.29986406
   0.05877118  0.37500249  0.43310089
   0.31489416  0.70930119  0.34419185
   0.31489601  0.20937951  0.34414823
   0.94131582  0.12497205  0.56682729
   0.43796672  0.95793899  0.61131385
   0.56483622  0.03751184  0.25548920
   0.18295774  0.77945835  0.12433733
   0.06493538  0.03764005  0.25548269
   0.69136485  0.62492571  0.56676553
   0.44134646  0.61258254  0.16670520
   0.30764633  0.03864108  0.52227574
   0.68261431  0.27928943  0.12424594
   0.81729678  0.71043417  0.47749437
   0.43413475  0.13763513  0.83354351
   0.32137376  0.37629837  0.70019525
   0.68413714  0.63761997  0.83355210
   0.56106816  0.71227962  0.74445525
   0.93716345  0.29195726  0.38858119
   0.93947225  0.96794694  0.87587727
   0.93584982  0.96232659  0.74445734
   0.81660035  0.87479890  0.56670845
   0.80337924  0.87402761  0.29982842
   0.31491939  0.03771685  0.25550730
   0.43124367  0.27839236  0.12423069
   0.31253812  0.70799049  0.61135858
   0.43375238  0.62508342  0.43310471
   0.93338292  0.62516714  0.43317777
   0.56536595  0.86193593  0.16587106
   0.07123691  0.54927709  0.78865928
   0.81696455  0.86227999  0.16585907
   0.56070219  0.21110893  0.74444817
   0.56271052  0.20700879  0.61124456
   0.57265625  0.87696675  0.70043573
Direct configuration=     3
   0.05544123  0.70164065  0.21146043
   0.31700834  0.72170534  0.87590709
   0.68795865  0.95783292  0.61131492
   0.43812883  0.45764568  0.61131514
   0.43784332  0.28765532  0.25558710
   0.06000900  0.38726689  0.83378536
   0.31034162  0.88699194  0.83384188
   0.44428286  0.62637712  0.70015392
   0.06250255  0.21255498  0.74455163
   0.18052919  0.45136134  0.21134383
   0.56564796  0.20971180  0.47767278
   0.06529856  0.87461923  0.56670808
   0.56652344  0.22156554  0.87581991
   0.81072159  0.53032495  0.12448100
   0.43033060  0.95161712  0.21144830
   0.56535502  0.37451985  0.56675146
   0.81204532  0.04213032  0.38857569
   0.68444202  0.78964359  0.52219067
   0.44064015  0.45969843  0.47765939
   0.43706444  0.96215577  0.74453616
   0.44025443  0.62469710  0.56672166
   0.06085557  0.53008224  0.12451478
   0.31067512  0.03041670  0.12457521
   0.68852015  0.95906333  0.34432102
   0.68312037  0.77941571  0.12401621
   0.05547283  0.37367096  0.29975637
   0.68924741  0.46956837  0.87559531
   0.43050810  0.45131222  0.21130923
   0.80993553  0.37515017  0.43312852
   0.56284912  0.70782080  0.61135409
   0.56158978  0.54152068  0.65556295
   0.93494857  0.12508725  0.43311879
   0.56314413  0.53760892  0.25555636
   0.68834589  0.45893525  0.34420039
   0.18976859  0.61240248  0.16642726
   0.19409389  0.79889595  0.78863505
   0.44435945  0.12638806  0.70018606
   0.93054978  0.62366686  0.29974322
   0.31666054  0.22153988  0.87582747
   0.31511653  0.87447642  0.56668574
   0.81645391  0.22135773  0.87582608
   0.81162402  0.54118854  0.65564585
   0.55985971  0.53013864  0.12453579
   0.56884222  0.04918094  0.78877753
   0.18771751  0.28780068  0.25559347
   0.80991386  0.87526144  0.43310960
   0.56943336  0.37650899  0.70024755
   0.06056929  0.03032235  0.12445204
   0.31150943  0.54106823  0.65567160
   0.56352012  0.20892431  0.34427500
   0.18802147  0.95777365  0.61137768
   0.30537122  0.37381005  0.29979750
   0.43625788  0.79099021  0.65556551
   0.19397598  0.29841256  0.78864873
   0.06487770  0.36307471  0.16639573
   0.69446273  0.62631772  0.70032963
   0.31203320  0.54190463  0.38856584
   0.06650510  0.72113465  0.87586715
   0.93532304  0.63722417  0.83380702
   0.31909672  0.54930765  0.78877074
   0.30552427  0.20158206  0.21145486
   0.06571616  0.70969231  0.47769055
   0.55557169  0.20129513  0.21145376
   0.31254191  0.21234004  0.74446428
   0.06939115  0.37626688  0.70028262
   0.18517834  0.63713986  0.83371431
   0.06905252  0.04883603  0.78878051
   0.44015238  0.12470893  0.56671973
   0.93659216  0.29120800  0.65566427
   0.80557447  0.20132218  0.21137832
   0.93067525  0.95140765  0.21129677
   0.94020547  0.62479727  0.56679481
   0.81018075  0.38719759  0.83383947
   0.19444081  0.62618398  0.70014743
   0.80987752  0.88700190  0.83381371
   0.68672696  0.29141306  0.65569519
   0.31275338  0.20788417  0.61136378
   0.43734369  0.46248228  0.74438947
   0.43695122  0.79194790  0.38856098
   0.68749997  0.96267936  0.74453059
   0.80537500  0.70128748  0.21148596
   0.81347628  0.70754289  0.61126247
   0.43322971  0.77945626  0.12428383
   0.31231029  0.71229207  0.74441498
   0.31925702  0.04928924  0.78888051
   0.81201568  0.54201772  0.38851483
   0.68462734  0.28940973  0.52216302
   0.69377965  0.79905263  0.78872120
   0.18774333  0.78760816  0.25557334
   0.68952811  0.11228172  0.16641920
   0.69051597  0.95976159  0.47767590
   0.93850840  0.95927432  0.34423256
   0.80963329  0.03919881  0.52212399
   0.68474499  0.62507823  0.43310437
   0.43847397  0.45904906  0.34428179
   0.81283529  0.21260874  0.74447169
   0.43931764  0.96973478  0.87570192
   0.56539661  0.87472042  0.56667491
   0.81083308  0.03037454  0.12434716
   0.43056775  0.62373006  0.29974882
   0.81619152  0.72144557  0.87588750
   0.68801331  0.45798806  0.61131384
   0.56007748  0.38723986  0.83361801
   0.80543272  0.37375819  0.29973554
   0.18701532  0.29196182  0.38853482
   0.81867697  0.54912249  0.78886667
   0.18470645  0.78947842  0.52228194
   0.30544294  0.87374413  0.29978503
   0.18054305  0.95137926  0.21129824
   0.18739699  0.46255834  0.74444628
   0.43458756  0.28942955  0.52214709
   0.06351895  0.70896815  0.34423739
   0.18646436  0.79086413  0.65566330
   0.44384950  0.79909058  0.78871127
   0.68460520  0.12512323  0.43311017
   0.93463785  0.78926370  0.52220102
   0.68985227  0.61316603  0.16638042
   0.81361958  0.70897809  0.34424551
   0.93700594  0.46268117  0.74455339
   0.18860291  0.45896048  0.34425692
   0.56898991  0.54889887  0.78886578
   0.56395865  0.36279097  0.16642140
   0.56354217  0.70902430  0.34427996
   0.55545311  0.37391570  0.29977709
   0.18917019  0.46941165  0.87564797
   0.18975849  0.11384233  0.16651170
   0.44368623  0.29861721  0.78865155
   0.68779819  0.78777268  0.25560024
   0.93543656  0.13697382  0.83366473
   0.44061502  0.95972953  0.47767019
   0.56651392  0.72196017  0.87582989
   0.19038326  0.45984460  0.47767294
   0.93468415  0.27994837  0.12435061
   0.31196787  0.04204072  0.38855827
   0.06145173  0.04092794  0.65574571
   0.55995128  0.37486033  0.43309138
   0.68696447  0.46242943  0.74461148
   0.31393477  0.36314000  0.16650104
   0.94446956  0.12686350  0.70028524
   0.56157521  0.04114925  0.65563589
   0.55953630  0.53979147  0.52213045
   0.18053302  0.12362627  0.29971588
   0.43965201  0.11301054  0.16654992
   0.68057147  0.62366083  0.29975763
   0.93054787  0.12357414  0.29977507
   0.81506947  0.37458821  0.56675692
   0.05548619  0.87371371  0.29978723
   0.19023411  0.62466825  0.56678081
   0.94362126  0.79889877  0.78875287
   0.31005093  0.38713411  0.83381746
   0.93930087  0.46944580  0.87566868
   0.43522871  0.63737024  0.83376221
   0.06353830  0.20908612  0.34427877
   0.18902394  0.96952641  0.87569682
   0.93327515  0.78001966  0.12413845
   0.68704188  0.79195864  0.38854935
   0.93648563  0.79087787  0.65567386
   0.93976452  0.11285986  0.16638718
   0.43657600  0.29133249  0.65574249
   0.05560233  0.20155566  0.21140077
   0.68054591  0.95169289  0.21143954
   0.18053693  0.62377237  0.29971724
   0.81966944  0.87631181  0.70022513
   0.94428836  0.62608179  0.70029483
   0.19463007  0.12656589  0.70021210
   0.94071059  0.45971495  0.47768010
   0.81317671  0.20775513  0.61136728
   0.18506407  0.62515333  0.43311753
   0.43048779  0.12377204  0.29976062
   0.68058210  0.12372315  0.29976429
   0.56193143  0.54187136  0.38855682
   0.81341771  0.20905192  0.34427521
   0.43935610  0.46959145  0.87555631
   0.56003257  0.88683899  0.83384785
   0.31567098  0.20972913  0.47766657
   0.19073747  0.95976756  0.47773106
   0.06014710  0.88699384  0.83377813
   0.05956361  0.53941107  0.52219769
   0.94060305  0.95965479  0.47766400
   0.06294303  0.70776612  0.61134675
   0.55956582  0.03958068  0.52217564
   0.69436347  0.29849501  0.78873641
   0.81478674  0.36262023  0.16634194
   0.43488234  0.12509319  0.43310072
   0.06564796  0.20961370  0.47766963
   0.31166722  0.04095698  0.65559958
   0.43449889  0.78956024  0.52214658
   0.18549560  0.13711221  0.83369538
   0.18356386  0.27894435  0.12431733
   0.93853604  0.45912874  0.34426312
   0.31470771  0.86329827  0.16651023
   0.30560320  0.70171867  0.21146510
   0.93939330  0.61243894  0.16640497
   0.18798702  0.45805597  0.61140008
   0.06966010  0.87652570  0.70014992
   0.06156991  0.54105817  0.65572244
   0.31000183  0.52962559  0.12454069
   0.93692972  0.79199821  0.38854141
   0.94409696  0.29859821  0.78868386
   0.18636522  0.29114756  0.65568213
   0.93787539  0.95757703  0.61139604
   0.81304092  0.71230045  0.74452783
   0.68784663  0.28757830  0.25556943
   0.06239240  0.71247575  0.74457112
   0.68058778  0.45123884  0.21125437
   0.81563556  0.20964062  0.47767445