 288 288   0   0
  0.1280206E+02  0.9726678E-09  0.8423550E-09  0.4500000E-08  0.2500000E-15
  1.000000000000000E-004
  CAR 
 unknown system                          
      6.80012348     -6.02620023  301      4.31689927      1.00000000
     -6.026  0.0000E+00  0.0000E+00
     -5.983  0.0000E+00  0.0000E+00
     -5.941  0.0000E+00  0.0000E+00
     -5.898  0.0000E+00  0.0000E+00
     -5.855  0.0000E+00  0.0000E+00
     -5.812  0.0000E+00  0.0000E+00
     -5.770  0.0000E+00  0.0000E+00
     -5.727  0.0000E+00  0.0000E+00
     -5.684  0.0000E+00  0.0000E+00
     -5.641  0.0000E+00  0.0000E+00
     -5.599  0.0000E+00  0.0000E+00
     -5.556  0.0000E+00  0.0000E+00
     -5.513  0.0000E+00  0.0000E+00
     -5.470  0.0000E+00  0.0000E+00
     -5.428  0.0000E+00  0.0000E+00
     -5.385  0.1623E-15  0.6939E-17
     -5.342  0.4057E-14  0.1804E-15
     -5.299  0.8676E-13  0.3890E-14
     -5.257  0.1583E-11  0.7156E-13
     -5.214  0.2459E-10  0.1123E-11
     -5.171  0.3253E-09  0.1503E-10
     -5.128  0.3665E-08  0.1717E-09
     -5.086  0.3519E-07  0.1676E-08
     -5.043  0.2880E-06  0.1399E-07
     -5.000  0.2011E-05  0.9995E-07
     -4.957  0.1198E-04  0.6123E-06
     -4.915  0.6106E-04  0.3223E-05
     -4.872  0.2666E-03  0.1462E-04
     -4.829  0.1001E-02  0.5740E-04
     -4.786  0.3244E-02  0.1961E-03
     -4.744  0.9143E-02  0.5870E-03
     -4.701  0.2262E-01  0.1554E-02
     -4.658  0.4965E-01  0.3677E-02
     -4.615  0.9803E-01  0.7868E-02
     -4.573  0.1763E+00  0.1540E-01
     -4.530  0.2919E+00  0.2789E-01
     -4.487  0.4487E+00  0.4707E-01
     -4.444  0.6438E+00  0.7459E-01
     -4.402  0.8666E+00  0.1116E+00
     -4.359  0.1099E+01  0.1586E+00
     -4.316  0.1319E+01  0.2150E+00
     -4.273  0.1506E+01  0.2794E+00
     -4.231  0.1646E+01  0.3498E+00
     -4.188  0.1740E+01  0.4242E+00
     -4.145  0.1806E+01  0.5014E+00
     -4.102  0.1871E+01  0.5815E+00
     -4.059  0.1967E+01  0.6655E+00
     -4.017  0.2115E+01  0.7560E+00
     -3.974  0.2321E+01  0.8552E+00
     -3.931  0.2566E+01  0.9649E+00
     -3.888  0.2814E+01  0.1085E+01
     -3.846  0.3021E+01  0.1214E+01
     -3.803  0.3150E+01  0.1349E+01
     -3.760  0.3189E+01  0.1485E+01
     -3.717  0.3153E+01  0.1620E+01
     -3.675  0.3086E+01  0.1752E+01
     -3.632  0.3042E+01  0.1882E+01
     -3.589  0.3068E+01  0.2013E+01
     -3.546  0.3185E+01  0.2149E+01
     -3.504  0.3384E+01  0.2294E+01
     -3.461  0.3629E+01  0.2449E+01
     -3.418  0.3871E+01  0.2615E+01
     -3.375  0.4063E+01  0.2789E+01
     -3.333  0.4179E+01  0.2967E+01
     -3.290  0.4215E+01  0.3147E+01
     -3.247  0.4197E+01  0.3327E+01
     -3.204  0.4167E+01  0.3505E+01
     -3.162  0.4174E+01  0.3684E+01
     -3.119  0.4255E+01  0.3865E+01
     -3.076  0.4419E+01  0.4054E+01
     -3.033  0.4648E+01  0.4253E+01
     -2.991  0.4899E+01  0.4463E+01
     -2.948  0.5126E+01  0.4682E+01
     -2.905  0.5288E+01  0.4908E+01
     -2.862  0.5369E+01  0.5137E+01
     -2.820  0.5386E+01  0.5368E+01
     -2.777  0.5386E+01  0.5598E+01
     -2.734  0.5419E+01  0.5830E+01
     -2.691  0.5503E+01  0.6065E+01
     -2.649  0.5610E+01  0.6305E+01
     -2.606  0.5676E+01  0.6547E+01
     -2.563  0.5652E+01  0.6789E+01
     -2.520  0.5553E+01  0.7026E+01
     -2.478  0.5467E+01  0.7260E+01
     -2.435  0.5517E+01  0.7496E+01
     -2.392  0.5794E+01  0.7744E+01
     -2.349  0.6294E+01  0.8013E+01
     -2.307  0.6899E+01  0.8308E+01
     -2.264  0.7408E+01  0.8625E+01
     -2.221  0.7636E+01  0.8951E+01
     -2.178  0.7521E+01  0.9273E+01
     -2.136  0.7171E+01  0.9579E+01
     -2.093  0.6820E+01  0.9871E+01
     -2.050  0.6700E+01  0.1016E+02
     -2.007  0.6927E+01  0.1045E+02
     -1.965  0.7448E+01  0.1077E+02
     -1.922  0.8086E+01  0.1112E+02
     -1.879  0.8619E+01  0.1149E+02
     -1.836  0.8896E+01  0.1187E+02
     -1.794  0.8900E+01  0.1225E+02
     -1.751  0.8750E+01  0.1262E+02
     -1.708  0.8619E+01  0.1299E+02
     -1.665  0.8630E+01  0.1336E+02
     -1.622  0.8800E+01  0.1373E+02
     -1.580  0.9072E+01  0.1412E+02
     -1.537  0.9374E+01  0.1452E+02
     -1.494  0.9663E+01  0.1494E+02
     -1.451  0.9932E+01  0.1536E+02
     -1.409  0.1018E+02  0.1580E+02
     -1.366  0.1037E+02  0.1624E+02
     -1.323  0.1052E+02  0.1669E+02
     -1.280  0.1066E+02  0.1715E+02
     -1.238  0.1095E+02  0.1761E+02
     -1.195  0.1155E+02  0.1811E+02
     -1.152  0.1251E+02  0.1864E+02
     -1.109  0.1366E+02  0.1923E+02
     -1.067  0.1470E+02  0.1985E+02
     -1.024  0.1534E+02  0.2051E+02
     -0.981  0.1551E+02  0.2117E+02
     -0.938  0.1548E+02  0.2184E+02
     -0.896  0.1565E+02  0.2250E+02
     -0.853  0.1638E+02  0.2320E+02
     -0.810  0.1776E+02  0.2396E+02
     -0.767  0.1969E+02  0.2481E+02
     -0.725  0.2203E+02  0.2575E+02
     -0.682  0.2484E+02  0.2681E+02
     -0.639  0.2828E+02  0.2802E+02
     -0.596  0.3243E+02  0.2941E+02
     -0.554  0.3704E+02  0.3099E+02
     -0.511  0.4158E+02  0.3277E+02
     -0.468  0.4551E+02  0.3471E+02
     -0.425  0.4855E+02  0.3679E+02
     -0.383  0.5082E+02  0.3896E+02
     -0.340  0.5261E+02  0.4121E+02
     -0.297  0.5417E+02  0.4353E+02
     -0.254  0.5555E+02  0.4590E+02
     -0.212  0.5664E+02  0.4832E+02
     -0.169  0.5731E+02  0.5077E+02
     -0.126  0.5759E+02  0.5323E+02
     -0.083  0.5763E+02  0.5570E+02
     -0.041  0.5772E+02  0.5817E+02
      0.002  0.5807E+02  0.6065E+02
      0.045  0.5886E+02  0.6317E+02
      0.088  0.6024E+02  0.6574E+02
      0.130  0.6236E+02  0.6841E+02
      0.173  0.6522E+02  0.7120E+02
      0.216  0.6864E+02  0.7413E+02
      0.259  0.7226E+02  0.7722E+02
      0.301  0.7570E+02  0.8046E+02
      0.344  0.7873E+02  0.8382E+02
      0.387  0.8127E+02  0.8730E+02
      0.430  0.8331E+02  0.9086E+02
      0.472  0.8487E+02  0.9449E+02
      0.515  0.8595E+02  0.9816E+02
      0.558  0.8651E+02  0.1019E+03
      0.601  0.8658E+02  0.1056E+03
      0.643  0.8625E+02  0.1093E+03
      0.686  0.8561E+02  0.1129E+03
      0.729  0.8464E+02  0.1165E+03
      0.772  0.8326E+02  0.1201E+03
      0.815  0.8149E+02  0.1236E+03
      0.857  0.7960E+02  0.1270E+03
      0.900  0.7798E+02  0.1303E+03
      0.943  0.7692E+02  0.1336E+03
      0.986  0.7642E+02  0.1369E+03
      1.028  0.7621E+02  0.1401E+03
      1.071  0.7590E+02  0.1434E+03
      1.114  0.7529E+02  0.1466E+03
      1.157  0.7440E+02  0.1498E+03
      1.199  0.7358E+02  0.1529E+03
      1.242  0.7319E+02  0.1560E+03
      1.285  0.7337E+02  0.1592E+03
      1.328  0.7382E+02  0.1623E+03
      1.370  0.7395E+02  0.1655E+03
      1.413  0.7326E+02  0.1686E+03
      1.456  0.7171E+02  0.1717E+03
      1.499  0.6981E+02  0.1747E+03
      1.541  0.6827E+02  0.1776E+03
      1.584  0.6763E+02  0.1805E+03
      1.627  0.6809E+02  0.1834E+03
      1.670  0.6951E+02  0.1864E+03
      1.712  0.7160E+02  0.1894E+03
      1.755  0.7403E+02  0.1926E+03
      1.798  0.7653E+02  0.1959E+03
      1.841  0.7892E+02  0.1992E+03
      1.883  0.8110E+02  0.2027E+03
      1.926  0.8303E+02  0.2063E+03
      1.969  0.8477E+02  0.2099E+03
      2.012  0.8637E+02  0.2136E+03
      2.054  0.8793E+02  0.2173E+03
      2.097  0.8948E+02  0.2212E+03
      2.140  0.9104E+02  0.2251E+03
      2.183  0.9262E+02  0.2290E+03
      2.225  0.9424E+02  0.2330E+03
      2.268  0.9599E+02  0.2372E+03
      2.311  0.9812E+02  0.2413E+03
      2.354  0.1009E+03  0.2457E+03
      2.396  0.1045E+03  0.2501E+03
      2.439  0.1088E+03  0.2548E+03
      2.482  0.1134E+03  0.2596E+03
      2.525  0.1178E+03  0.2647E+03
      2.567  0.1216E+03  0.2699E+03
      2.610  0.1247E+03  0.2752E+03
      2.653  0.1268E+03  0.2806E+03
      2.696  0.1281E+03  0.2861E+03
      2.738  0.1289E+03  0.2916E+03
      2.781  0.1297E+03  0.2971E+03
      2.824  0.1311E+03  0.3027E+03
      2.867  0.1334E+03  0.3085E+03
      2.909  0.1367E+03  0.3143E+03
      2.952  0.1401E+03  0.3203E+03
      2.995  0.1420E+03  0.3264E+03
      3.038  0.1410E+03  0.3324E+03
      3.080  0.1364E+03  0.3382E+03
      3.123  0.1287E+03  0.3437E+03
      3.166  0.1192E+03  0.3488E+03
      3.209  0.1098E+03  0.3535E+03
      3.252  0.1020E+03  0.3579E+03
      3.294  0.9644E+02  0.3620E+03
      3.337  0.9311E+02  0.3660E+03
      3.380  0.9156E+02  0.3699E+03
      3.423  0.9106E+02  0.3738E+03
      3.465  0.9078E+02  0.3777E+03
      3.508  0.9001E+02  0.3815E+03
      3.551  0.8842E+02  0.3853E+03
      3.594  0.8627E+02  0.3890E+03
      3.636  0.8429E+02  0.3926E+03
      3.679  0.8336E+02  0.3962E+03
      3.722  0.8402E+02  0.3997E+03
      3.765  0.8615E+02  0.4034E+03
      3.807  0.8911E+02  0.4072E+03
      3.850  0.9214E+02  0.4112E+03
      3.893  0.9474E+02  0.4152E+03
      3.936  0.9685E+02  0.4194E+03
      3.978  0.9865E+02  0.4236E+03
      4.021  0.1003E+03  0.4279E+03
      4.064  0.1018E+03  0.4322E+03
      4.107  0.1029E+03  0.4366E+03
      4.149  0.1033E+03  0.4410E+03
      4.192  0.1028E+03  0.4454E+03
      4.235  0.1018E+03  0.4498E+03
      4.278  0.1005E+03  0.4541E+03
      4.320  0.9956E+02  0.4583E+03
      4.363  0.9909E+02  0.4626E+03
      4.406  0.9917E+02  0.4668E+03
      4.449  0.9960E+02  0.4711E+03
      4.491  0.1000E+03  0.4754E+03
      4.534  0.1001E+03  0.4796E+03
      4.577  0.9977E+02  0.4839E+03
      4.620  0.9902E+02  0.4881E+03
      4.662  0.9827E+02  0.4923E+03
      4.705  0.9804E+02  0.4965E+03
      4.748  0.9878E+02  0.5008E+03
      4.791  0.1006E+03  0.5051E+03
      4.833  0.1034E+03  0.5095E+03
      4.876  0.1066E+03  0.5140E+03
      4.919  0.1097E+03  0.5187E+03
      4.962  0.1120E+03  0.5235E+03
      5.004  0.1131E+03  0.5284E+03
      5.047  0.1120E+03  0.5331E+03
      5.090  0.1079E+03  0.5378E+03
      5.133  0.9964E+02  0.5420E+03
      5.175  0.8699E+02  0.5457E+03
      5.218  0.7073E+02  0.5488E+03
      5.261  0.5283E+02  0.5510E+03
      5.304  0.3583E+02  0.5525E+03
      5.346  0.2185E+02  0.5535E+03
      5.389  0.1190E+02  0.5540E+03
      5.432  0.5744E+01  0.5542E+03
      5.475  0.2448E+01  0.5543E+03
      5.517  0.9178E+00  0.5544E+03
      5.560  0.3016E+00  0.5544E+03
      5.603  0.8664E-01  0.5544E+03
      5.646  0.2171E-01  0.5544E+03
      5.689  0.4734E-02  0.5544E+03
      5.731  0.8970E-03  0.5544E+03
      5.774  0.1474E-03  0.5544E+03
      5.817  0.2096E-04  0.5544E+03
      5.860  0.2577E-05  0.5544E+03
      5.902  0.2735E-06  0.5544E+03
      5.945  0.2502E-07  0.5544E+03
      5.988  0.1971E-08  0.5544E+03
      6.031  0.1335E-09  0.5544E+03
      6.073  0.7770E-11  0.5544E+03
      6.116  0.3872E-12  0.5544E+03
      6.159  0.1578E-13  0.5544E+03
      6.202  0.3246E-15  0.5544E+03
      6.244  0.0000E+00  0.5544E+03
      6.287  0.0000E+00  0.5544E+03
      6.330  0.0000E+00  0.5544E+03
      6.373  0.0000E+00  0.5544E+03
      6.415  0.0000E+00  0.5544E+03
      6.458  0.0000E+00  0.5544E+03
      6.501  0.0000E+00  0.5544E+03
      6.544  0.0000E+00  0.5544E+03
      6.586  0.0000E+00  0.5544E+03
      6.629  0.0000E+00  0.5544E+03
      6.672  0.0000E+00  0.5544E+03
      6.715  0.0000E+00  0.5544E+03
      6.757  0.0000E+00  0.5544E+03
      6.800  0.0000E+00  0.5544E+03
