 288 288   0   0
  0.1280206E+02  0.9726678E-09  0.8423550E-09  0.4500000E-08  0.2500000E-15
  1.000000000000000E-004
  CAR 
 unknown system                          
      6.77750561     -6.02089049  301      4.29545649      1.00000000
     -6.021  0.0000E+00  0.0000E+00
     -5.978  0.0000E+00  0.0000E+00
     -5.936  0.0000E+00  0.0000E+00
     -5.893  0.0000E+00  0.0000E+00
     -5.850  0.0000E+00  0.0000E+00
     -5.808  0.0000E+00  0.0000E+00
     -5.765  0.0000E+00  0.0000E+00
     -5.722  0.0000E+00  0.0000E+00
     -5.680  0.0000E+00  0.0000E+00
     -5.637  0.0000E+00  0.0000E+00
     -5.594  0.0000E+00  0.0000E+00
     -5.552  0.0000E+00  0.0000E+00
     -5.509  0.0000E+00  0.0000E+00
     -5.466  0.0000E+00  0.0000E+00
     -5.424  0.0000E+00  0.0000E+00
     -5.381  0.1627E-15  0.6939E-17
     -5.338  0.3611E-14  0.1610E-15
     -5.296  0.7810E-13  0.3493E-14
     -5.253  0.1425E-11  0.6431E-13
     -5.210  0.2219E-10  0.1011E-11
     -5.168  0.2944E-09  0.1357E-10
     -5.125  0.3331E-08  0.1557E-09
     -5.082  0.3217E-07  0.1528E-08
     -5.040  0.2652E-06  0.1284E-07
     -4.997  0.1868E-05  0.9255E-07
     -4.954  0.1126E-04  0.5730E-06
     -4.912  0.5817E-04  0.3055E-05
     -4.869  0.2581E-03  0.1407E-04
     -4.826  0.9870E-03  0.5617E-04
     -4.784  0.3267E-02  0.1956E-03
     -4.741  0.9421E-02  0.5975E-03
     -4.698  0.2385E-01  0.1615E-02
     -4.656  0.5349E-01  0.3897E-02
     -4.613  0.1075E+00  0.8483E-02
     -4.570  0.1958E+00  0.1684E-01
     -4.528  0.3264E+00  0.3076E-01
     -4.485  0.5025E+00  0.5220E-01
     -4.442  0.7186E+00  0.8285E-01
     -4.400  0.9595E+00  0.1238E+00
     -4.357  0.1202E+01  0.1751E+00
     -4.314  0.1419E+01  0.2356E+00
     -4.272  0.1589E+01  0.3034E+00
     -4.229  0.1704E+01  0.3761E+00
     -4.186  0.1774E+01  0.4517E+00
     -4.144  0.1825E+01  0.5296E+00
     -4.101  0.1897E+01  0.6105E+00
     -4.058  0.2024E+01  0.6969E+00
     -4.016  0.2220E+01  0.7916E+00
     -3.973  0.2474E+01  0.8971E+00
     -3.930  0.2747E+01  0.1014E+01
     -3.888  0.2986E+01  0.1142E+01
     -3.845  0.3144E+01  0.1276E+01
     -3.803  0.3197E+01  0.1412E+01
     -3.760  0.3161E+01  0.1547E+01
     -3.717  0.3082E+01  0.1679E+01
     -3.675  0.3023E+01  0.1807E+01
     -3.632  0.3039E+01  0.1937E+01
     -3.589  0.3155E+01  0.2072E+01
     -3.547  0.3357E+01  0.2215E+01
     -3.504  0.3599E+01  0.2368E+01
     -3.461  0.3826E+01  0.2532E+01
     -3.419  0.3995E+01  0.2702E+01
     -3.376  0.4092E+01  0.2877E+01
     -3.333  0.4130E+01  0.3053E+01
     -3.291  0.4139E+01  0.3229E+01
     -3.248  0.4150E+01  0.3407E+01
     -3.205  0.4191E+01  0.3585E+01
     -3.163  0.4277E+01  0.3768E+01
     -3.120  0.4412E+01  0.3956E+01
     -3.077  0.4588E+01  0.4152E+01
     -3.035  0.4787E+01  0.4356E+01
     -2.992  0.4983E+01  0.4569E+01
     -2.949  0.5148E+01  0.4788E+01
     -2.907  0.5265E+01  0.5013E+01
     -2.864  0.5335E+01  0.5240E+01
     -2.821  0.5381E+01  0.5470E+01
     -2.779  0.5433E+01  0.5702E+01
     -2.736  0.5518E+01  0.5937E+01
     -2.693  0.5627E+01  0.6177E+01
     -2.651  0.5711E+01  0.6421E+01
     -2.608  0.5707E+01  0.6664E+01
     -2.565  0.5597E+01  0.6903E+01
     -2.523  0.5442E+01  0.7135E+01
     -2.480  0.5372E+01  0.7364E+01
     -2.437  0.5518E+01  0.7600E+01
     -2.395  0.5933E+01  0.7853E+01
     -2.352  0.6539E+01  0.8132E+01
     -2.309  0.7152E+01  0.8437E+01
     -2.267  0.7563E+01  0.8760E+01
     -2.224  0.7645E+01  0.9086E+01
     -2.181  0.7421E+01  0.9402E+01
     -2.139  0.7060E+01  0.9704E+01
     -2.096  0.6794E+01  0.9993E+01
     -2.053  0.6804E+01  0.1028E+02
     -2.011  0.7135E+01  0.1059E+02
     -1.968  0.7686E+01  0.1092E+02
     -1.925  0.8269E+01  0.1127E+02
     -1.883  0.8701E+01  0.1164E+02
     -1.840  0.8885E+01  0.1202E+02
     -1.797  0.8851E+01  0.1240E+02
     -1.755  0.8728E+01  0.1277E+02
     -1.712  0.8659E+01  0.1314E+02
     -1.669  0.8724E+01  0.1351E+02
     -1.627  0.8917E+01  0.1389E+02
     -1.584  0.9179E+01  0.1428E+02
     -1.541  0.9455E+01  0.1469E+02
     -1.499  0.9727E+01  0.1510E+02
     -1.456  0.9994E+01  0.1553E+02
     -1.413  0.1023E+02  0.1596E+02
     -1.371  0.1041E+02  0.1641E+02
     -1.328  0.1050E+02  0.1686E+02
     -1.285  0.1062E+02  0.1731E+02
     -1.243  0.1096E+02  0.1778E+02
     -1.200  0.1167E+02  0.1827E+02
     -1.157  0.1278E+02  0.1882E+02
     -1.115  0.1402E+02  0.1942E+02
     -1.072  0.1504E+02  0.2006E+02
     -1.030  0.1557E+02  0.2072E+02
     -0.987  0.1562E+02  0.2139E+02
     -0.944  0.1551E+02  0.2205E+02
     -0.902  0.1569E+02  0.2272E+02
     -0.859  0.1645E+02  0.2342E+02
     -0.816  0.1784E+02  0.2418E+02
     -0.774  0.1974E+02  0.2503E+02
     -0.731  0.2211E+02  0.2597E+02
     -0.688  0.2507E+02  0.2704E+02
     -0.646  0.2883E+02  0.2827E+02
     -0.603  0.3340E+02  0.2969E+02
     -0.560  0.3836E+02  0.3133E+02
     -0.518  0.4307E+02  0.3317E+02
     -0.475  0.4694E+02  0.3517E+02
     -0.432  0.4981E+02  0.3729E+02
     -0.390  0.5190E+02  0.3951E+02
     -0.347  0.5356E+02  0.4179E+02
     -0.304  0.5496E+02  0.4414E+02
     -0.262  0.5607E+02  0.4653E+02
     -0.219  0.5678E+02  0.4895E+02
     -0.176  0.5703E+02  0.5138E+02
     -0.134  0.5696E+02  0.5381E+02
     -0.091  0.5681E+02  0.5624E+02
     -0.048  0.5687E+02  0.5866E+02
     -0.006  0.5739E+02  0.6111E+02
      0.037  0.5857E+02  0.6361E+02
      0.080  0.6048E+02  0.6619E+02
      0.122  0.6311E+02  0.6888E+02
      0.165  0.6634E+02  0.7171E+02
      0.208  0.6997E+02  0.7470E+02
      0.250  0.7374E+02  0.7785E+02
      0.293  0.7736E+02  0.8115E+02
      0.336  0.8052E+02  0.8458E+02
      0.378  0.8305E+02  0.8812E+02
      0.421  0.8491E+02  0.9175E+02
      0.464  0.8622E+02  0.9542E+02
      0.506  0.8705E+02  0.9914E+02
      0.549  0.8740E+02  0.1029E+03
      0.592  0.8725E+02  0.1066E+03
      0.634  0.8667E+02  0.1103E+03
      0.677  0.8572E+02  0.1139E+03
      0.720  0.8444E+02  0.1175E+03
      0.762  0.8280E+02  0.1211E+03
      0.805  0.8084E+02  0.1245E+03
      0.848  0.7880E+02  0.1279E+03
      0.890  0.7706E+02  0.1312E+03
      0.933  0.7599E+02  0.1344E+03
      0.976  0.7568E+02  0.1376E+03
      1.018  0.7592E+02  0.1409E+03
      1.061  0.7627E+02  0.1441E+03
      1.104  0.7633E+02  0.1474E+03
      1.146  0.7594E+02  0.1506E+03
      1.189  0.7520E+02  0.1538E+03
      1.232  0.7434E+02  0.1570E+03
      1.274  0.7355E+02  0.1602E+03
      1.317  0.7287E+02  0.1633E+03
      1.360  0.7217E+02  0.1663E+03
      1.402  0.7124E+02  0.1694E+03
      1.445  0.6991E+02  0.1724E+03
      1.488  0.6826E+02  0.1753E+03
      1.530  0.6671E+02  0.1781E+03
      1.573  0.6584E+02  0.1809E+03
      1.615  0.6614E+02  0.1837E+03
      1.658  0.6773E+02  0.1866E+03
      1.701  0.7033E+02  0.1896E+03
      1.743  0.7343E+02  0.1928E+03
      1.786  0.7661E+02  0.1960E+03
      1.829  0.7962E+02  0.1994E+03
      1.871  0.8238E+02  0.2030E+03
      1.914  0.8484E+02  0.2066E+03
      1.957  0.8701E+02  0.2103E+03
      1.999  0.8894E+02  0.2141E+03
      2.042  0.9069E+02  0.2179E+03
      2.085  0.9226E+02  0.2219E+03
      2.127  0.9357E+02  0.2259E+03
      2.170  0.9465E+02  0.2299E+03
      2.213  0.9571E+02  0.2340E+03
      2.255  0.9714E+02  0.2381E+03
      2.298  0.9936E+02  0.2424E+03
      2.341  0.1026E+03  0.2468E+03
      2.383  0.1067E+03  0.2513E+03
      2.426  0.1111E+03  0.2560E+03
      2.469  0.1154E+03  0.2610E+03
      2.511  0.1190E+03  0.2660E+03
      2.554  0.1218E+03  0.2712E+03
      2.597  0.1240E+03  0.2765E+03
      2.639  0.1259E+03  0.2819E+03
      2.682  0.1278E+03  0.2874E+03
      2.725  0.1299E+03  0.2929E+03
      2.767  0.1322E+03  0.2985E+03
      2.810  0.1350E+03  0.3043E+03
      2.853  0.1379E+03  0.3102E+03
      2.895  0.1406E+03  0.3162E+03
      2.938  0.1422E+03  0.3222E+03
      2.981  0.1416E+03  0.3283E+03
      3.023  0.1383E+03  0.3342E+03
      3.066  0.1323E+03  0.3398E+03
      3.109  0.1242E+03  0.3451E+03
      3.151  0.1151E+03  0.3500E+03
      3.194  0.1064E+03  0.3546E+03
      3.237  0.9893E+02  0.3588E+03
      3.279  0.9323E+02  0.3628E+03
      3.322  0.8930E+02  0.3666E+03
      3.365  0.8682E+02  0.3703E+03
      3.407  0.8539E+02  0.3739E+03
      3.450  0.8460E+02  0.3775E+03
      3.493  0.8408E+02  0.3811E+03
      3.535  0.8354E+02  0.3847E+03
      3.578  0.8290E+02  0.3882E+03
      3.621  0.8245E+02  0.3917E+03
      3.663  0.8273E+02  0.3953E+03
      3.706  0.8426E+02  0.3989E+03
      3.749  0.8720E+02  0.4026E+03
      3.791  0.9126E+02  0.4065E+03
      3.834  0.9578E+02  0.4106E+03
      3.877  0.1001E+03  0.4148E+03
      3.919  0.1037E+03  0.4193E+03
      3.962  0.1065E+03  0.4238E+03
      4.005  0.1082E+03  0.4284E+03
      4.047  0.1089E+03  0.4331E+03
      4.090  0.1087E+03  0.4377E+03
      4.133  0.1079E+03  0.4423E+03
      4.175  0.1067E+03  0.4469E+03
      4.218  0.1054E+03  0.4513E+03
      4.260  0.1042E+03  0.4558E+03
      4.303  0.1031E+03  0.4602E+03
      4.346  0.1022E+03  0.4646E+03
      4.388  0.1017E+03  0.4689E+03
      4.431  0.1014E+03  0.4732E+03
      4.474  0.1010E+03  0.4775E+03
      4.516  0.1003E+03  0.4818E+03
      4.559  0.9914E+02  0.4860E+03
      4.602  0.9788E+02  0.4902E+03
      4.644  0.9704E+02  0.4943E+03
      4.687  0.9711E+02  0.4985E+03
      4.730  0.9829E+02  0.5027E+03
      4.772  0.1004E+03  0.5070E+03
      4.815  0.1031E+03  0.5114E+03
      4.858  0.1058E+03  0.5159E+03
      4.900  0.1081E+03  0.5205E+03
      4.943  0.1095E+03  0.5252E+03
      4.986  0.1096E+03  0.5298E+03
      5.028  0.1078E+03  0.5344E+03
      5.071  0.1033E+03  0.5388E+03
      5.114  0.9494E+02  0.5429E+03
      5.156  0.8244E+02  0.5464E+03
      5.199  0.6654E+02  0.5492E+03
      5.242  0.4921E+02  0.5513E+03
      5.284  0.3295E+02  0.5528E+03
      5.327  0.1981E+02  0.5536E+03
      5.370  0.1060E+02  0.5540E+03
      5.412  0.5031E+01  0.5543E+03
      5.455  0.2106E+01  0.5544E+03
      5.498  0.7746E+00  0.5544E+03
      5.540  0.2498E+00  0.5544E+03
      5.583  0.7041E-01  0.5544E+03
      5.626  0.1732E-01  0.5544E+03
      5.668  0.3709E-02  0.5544E+03
      5.711  0.6905E-03  0.5544E+03
      5.754  0.1116E-03  0.5544E+03
      5.796  0.1562E-04  0.5544E+03
      5.839  0.1893E-05  0.5544E+03
      5.882  0.1982E-06  0.5544E+03
      5.924  0.1791E-07  0.5544E+03
      5.967  0.1396E-08  0.5544E+03
      6.010  0.9370E-10  0.5544E+03
      6.052  0.5412E-11  0.5544E+03
      6.095  0.2671E-12  0.5544E+03
      6.138  0.1073E-13  0.5544E+03
      6.180  0.1952E-15  0.5544E+03
      6.223  0.0000E+00  0.5544E+03
      6.266  0.0000E+00  0.5544E+03
      6.308  0.0000E+00  0.5544E+03
      6.351  0.0000E+00  0.5544E+03
      6.394  0.0000E+00  0.5544E+03
      6.436  0.0000E+00  0.5544E+03
      6.479  0.0000E+00  0.5544E+03
      6.522  0.0000E+00  0.5544E+03
      6.564  0.0000E+00  0.5544E+03
      6.607  0.0000E+00  0.5544E+03
      6.650  0.0000E+00  0.5544E+03
      6.692  0.0000E+00  0.5544E+03
      6.735  0.0000E+00  0.5544E+03
      6.778  0.0000E+00  0.5544E+03
