unknown system                          
           1
     9.726678    0.000000    0.000000
     0.000000    8.423550    0.000000
     0.000000    0.000000   45.000000
   Fe   Mn
 281   7
Direct configuration=     1
   0.05331054  0.70142334  0.21134561
   0.31823253  0.72376401  0.87615067
   0.68762639  0.95822642  0.61135029
   0.43778142  0.45809634  0.61136498
   0.43991797  0.28809948  0.25546504
   0.05852206  0.38832534  0.83339002
   0.30858605  0.88763991  0.83349990
   0.44706855  0.62615048  0.70014712
   0.06027747  0.21229298  0.74482929
   0.17865964  0.45097768  0.21131540
   0.56784274  0.21066609  0.47752087
   0.06656224  0.87496313  0.56681774
   0.56807217  0.22411925  0.87606216
   0.80834275  0.52598255  0.12407040
   0.42955437  0.95119584  0.21148154
   0.56657272  0.37495275  0.56682289
   0.81223716  0.04199773  0.38862607
   0.68193609  0.78864718  0.52242310
   0.44268069  0.46058653  0.47751031
   0.43491823  0.96199567  0.74455647
   0.44155937  0.62479729  0.56683833
   0.57141678  0.87608345  0.70052547
   0.31164241  0.02801057  0.12403968
   0.69025368  0.95940675  0.34413793
   0.68774939  0.78449842  0.12428727
   0.05257953  0.37373106  0.29973942
   0.68938312  0.46759151  0.87586280
   0.42852957  0.45163987  0.21141630
   0.80849859  0.37522420  0.43308334
   0.56293748  0.70829921  0.61158117
   0.55978919  0.54135903  0.65567177
   0.93347399  0.12498749  0.43311781
   0.56475557  0.53752028  0.25540832
   0.69030547  0.45919388  0.34418721
   0.19142900  0.61053330  0.16630583
   0.19557414  0.79894917  0.78873233
   0.44733153  0.12595076  0.70016093
   0.92760764  0.62351825  0.29965951
   0.31749968  0.22297369  0.87607428
   0.31670881  0.87465034  0.56681946
   0.81721779  0.22358489  0.87611864
   0.80948435  0.54112236  0.65572112
   0.55924315  0.52581325  0.12385933
   0.57015203  0.04978357  0.78872328
   0.18978205  0.28815749  0.25547128
   0.80846359  0.87495859  0.43310138
   0.57237762  0.37608887  0.70020228
   0.06000947  0.02902913  0.12408683
   0.30946751  0.54066746  0.65583876
   0.56517536  0.20936792  0.34410666
   0.18765564  0.95816645  0.61137136
   0.30267409  0.37369198  0.29969982
   0.43448317  0.79050282  0.65583092
   0.19557806  0.29823321  0.78859452
   0.06655475  0.36324829  0.16651767
   0.69720380  0.62617188  0.70031375
   0.31210902  0.54174788  0.38862365
   0.06798530  0.72292612  0.87611214
   0.93357331  0.63754391  0.83363901
   0.32007787  0.54946128  0.78881658
   0.30352948  0.20129323  0.21123937
   0.06811573  0.71066016  0.47747787
   0.55357273  0.20161006  0.21133613
   0.31101631  0.21161649  0.74463939
   0.07216583  0.37629038  0.70033278
   0.18327201  0.63756632  0.83348987
   0.07063018  0.04910775  0.78882464
   0.44170840  0.12496212  0.56689688
   0.93467672  0.29091192  0.65577821
   0.80377500  0.20130634  0.21134420
   0.92914194  0.95082078  0.21162583
   0.94163860  0.62499438  0.56675568
   0.80825399  0.38771510  0.83349768
   0.19722136  0.62597026  0.70010807
   0.80849025  0.88784794  0.83353048
   0.68480566  0.29064784  0.65588310
   0.31262417  0.20791790  0.61133270
   0.43525509  0.46239866  0.74460863
   0.43684931  0.79167694  0.38849060
   0.68435481  0.96259636  0.74455425
   0.80279404  0.70110898  0.21149403
   0.81302334  0.70833428  0.61155236
   0.43517500  0.78451696  0.12411684
   0.31016984  0.71189612  0.74454941
   0.32124783  0.04920666  0.78869534
   0.81154822  0.54160866  0.38840996
   0.68237693  0.28818190  0.52234140
   0.69613973  0.79868301  0.78869861
   0.18999305  0.78826735  0.25546060
   0.69097854  0.11146373  0.16668249
   0.69261462  0.96060760  0.47750579
   0.94024315  0.95939333  0.34412996
   0.80706016  0.03847558  0.52253360
   0.68356421  0.62505149  0.43312111
   0.44043033  0.45928062  0.34420030
   0.81092013  0.21175564  0.74452982
   0.43924161  0.96766359  0.87591511
   0.56655170  0.87474329  0.56679553
   0.81028224  0.02801982  0.12405877
   0.42766538  0.62373199  0.29962858
   0.81698923  0.72297295  0.87620129
   0.68766367  0.45795503  0.61134539
   0.55851641  0.38759668  0.83327266
   0.80272127  0.37371915  0.29966385
   0.18705852  0.29176326  0.38849523
   0.82053023  0.54916882  0.78887698
   0.18230023  0.78901142  0.52256506
   0.30259638  0.87411873  0.29981218
   0.17847028  0.95152347  0.21148593
   0.18513015  0.46218181  0.74466771
   0.43250357  0.28845262  0.52233044
   0.06524034  0.70926512  0.34411959
   0.18480819  0.79074314  0.65575601
   0.44585875  0.79866546  0.78870057
   0.68338943  0.12497934  0.43307498
   0.93222900  0.78824084  0.52235993
   0.69129558  0.61221082  0.16650277
   0.81527324  0.70944145  0.34411312
   0.93463465  0.46257048  0.74495076
   0.19032751  0.45940366  0.34418152
   0.57044911  0.54919320  0.78885328
   0.56634296  0.36319168  0.16670275
   0.56523148  0.70950991  0.34412979
   0.55251696  0.37379392  0.29965781
   0.18929125  0.46744344  0.87587198
   0.19128473  0.11102247  0.16660977
   0.44480758  0.29844187  0.78871733
   0.69004570  0.78798263  0.25542635
   0.93355907  0.13755887  0.83350662
   0.44282491  0.96080166  0.47747846
   0.56759739  0.72460380  0.87606511
   0.19261570  0.46084957  0.47747433
   0.93314904  0.28341107  0.12407209
   0.31211514  0.04206862  0.38870071
   0.05965126  0.04030658  0.65591474
   0.55850600  0.37490902  0.43312974
   0.68433723  0.46237210  0.74494237
   0.31614660  0.36261478  0.16648778
   0.94726247  0.12622085  0.70037697
   0.55969893  0.04104803  0.65573503
   0.55689686  0.53873820  0.52254967
   0.17771050  0.12392212  0.29980807
   0.44077063  0.11121160  0.16667632
   0.67775535  0.62374023  0.29961219
   0.92756908  0.12401371  0.29983766
   0.81665113  0.37501749  0.56687835
   0.05275529  0.87378539  0.29986313
   0.19157588  0.62494088  0.56688246
   0.94605151  0.79904210  0.78871089
   0.30831279  0.38751956  0.83348094
   0.93886857  0.46822797  0.87588345
   0.43367146  0.63790148  0.83351226
   0.06504472  0.20918638  0.34400174
   0.18951191  0.96759908  0.87605096
   0.93715093  0.78538684  0.12429738
   0.68669881  0.79140178  0.38843099
   0.93456188  0.79072431  0.65581477
   0.94096531  0.11072852  0.16672664
   0.43485168  0.29059772  0.65590806
   0.05321283  0.20023746  0.21153103
   0.67812378  0.95150426  0.21141682
   0.17762780  0.62366475  0.29963588
   0.82209610  0.87610884  0.70031966
   0.94701329  0.62640438  0.70039470
   0.19719097  0.12601085  0.70019469
   0.94284578  0.46066659  0.47744931
   0.81276083  0.20801361  0.61135817
   0.18335814  0.62505252  0.43312295
   0.42756066  0.12392370  0.29977189
   0.67762501  0.12389510  0.29982252
   0.56192559  0.54172721  0.38848386
   0.81500438  0.20919689  0.34400767
   0.43919580  0.46762084  0.87574303
   0.55858996  0.88727040  0.83347779
   0.31772248  0.21060104  0.47747495
   0.19264773  0.96066443  0.47751559
   0.05853315  0.88779723  0.83344208
   0.05719008  0.53857025  0.52238184
   0.94278039  0.96058702  0.47741809
   0.06269230  0.70817446  0.61145756
   0.55729321  0.03828836  0.52235549
   0.69611054  0.29842146  0.78865593
   0.81671615  0.36336765  0.16664291
   0.43338726  0.12499277  0.43310948
   0.06782082  0.21065883  0.47747882
   0.30954305  0.04073794  0.65578767
   0.43211002  0.78856694  0.52239102
   0.18364122  0.13771638  0.83354741
   0.18697990  0.28418884  0.12408002
   0.94027038  0.45936794  0.34417658
   0.56678209  0.86273584  0.16648640
   0.30380193  0.70122086  0.21136839
   0.94032215  0.60975185  0.16634547
   0.18766000  0.45800936  0.61136605
   0.07216982  0.87625581  0.70015845
   0.05973538  0.54065671  0.65582140
   0.31037867  0.52646549  0.12374569
   0.93679930  0.79161311  0.38849831
   0.94605485  0.29773847  0.78856600
   0.18452436  0.29055046  0.65585314
   0.93756226  0.95801431  0.61137360
   0.81117855  0.71136897  0.74463010
   0.68984182  0.28815090  0.25549306
   0.05992442  0.71194571  0.74487287
   0.67862423  0.45127909  0.21133985
   0.81794239  0.21073774  0.47753045
   0.56774935  0.71053322  0.47744048
   0.06616837  0.86282713  0.16632182
   0.93230989  0.28820934  0.52237609
   0.68473060  0.79064629  0.65579022
   0.05817528  0.87447263  0.43314372
   0.06776536  0.22282795  0.87606764
   0.80984790  0.04066237  0.65580892
   0.56033533  0.02795640  0.12405278
   0.30839454  0.37494556  0.43307050
   0.31652109  0.37489278  0.56686126
   0.31783021  0.71053170  0.47740689
   0.05727674  0.03827984  0.52243113
   0.32193140  0.87625267  0.70039331
   0.06502893  0.53791368  0.25529681
   0.68340443  0.13770849  0.83350793
   0.81487389  0.03767577  0.25528944
   0.18345512  0.12501268  0.43310212
   0.69775542  0.12672910  0.70026548
   0.18234597  0.28834974  0.52236369
   0.43984953  0.78791591  0.25541160
   0.81471383  0.53787455  0.25549347
   0.06276425  0.20802304  0.61131869
   0.18648432  0.79139312  0.38840633
   0.30722820  0.53833313  0.52237584
   0.82203055  0.37598452  0.70009550
   0.68698528  0.29163073  0.38848732
   0.19147747  0.12505945  0.56688499
   0.68979372  0.96846798  0.87606776
   0.69153328  0.12498964  0.56687994
   0.44021133  0.95933026  0.34417008
   0.18474186  0.96199343  0.74451525
   0.94025455  0.78813071  0.25541262
   0.55844766  0.87502302  0.43311259
   0.30835682  0.87495894  0.43311743
   0.80724382  0.53908147  0.52255404
   0.92847857  0.45098828  0.21134338
   0.31446777  0.53763310  0.25558286
   0.56228081  0.04204574  0.38867526
   0.93771421  0.45796827  0.61140631
   0.06210923  0.04184101  0.38856891
   0.06214180  0.54156889  0.38848765
   0.43699426  0.29178174  0.38854415
   0.69276117  0.46076603  0.47745126
   0.06662829  0.37485320  0.56686907
   0.55315226  0.70176958  0.21134205
   0.93997544  0.28829265  0.25547544
   0.82004289  0.04943701  0.78889012
   0.19020023  0.95939325  0.34418906
   0.55273104  0.87390464  0.29987700
   0.05833458  0.37508615  0.43310693
   0.31520488  0.70938243  0.34412384
   0.31521263  0.20924419  0.34415136
   0.94173184  0.12497062  0.56677053
   0.43782898  0.95828007  0.61145053
   0.56448845  0.03749883  0.25540786
   0.18713687  0.78453145  0.12438865
   0.06509698  0.03732803  0.25511935
   0.69163415  0.62472138  0.56685594
   0.44117101  0.61207799  0.16648774
   0.30720524  0.03832743  0.52232266
   0.68449592  0.28281007  0.12397156
   0.81769045  0.71055924  0.47744552
   0.43356183  0.13778333  0.83345500
   0.32242561  0.37594680  0.70017035
   0.68352981  0.63788783  0.83348691
   0.56099388  0.71150582  0.74464019
   0.93734416  0.29201413  0.38863595
   0.93960884  0.96830994  0.87609070
   0.56256846  0.20792182  0.61130480
   0.81656845  0.87499763  0.56687357
   0.80259313  0.87398437  0.29978690
   0.31513911  0.03775761  0.25508312
   0.43580452  0.28289344  0.12386227
   0.31291697  0.70823008  0.61151005
   0.43332362  0.62506078  0.43311447
   0.93238822  0.62530796  0.43329001
   0.31795604  0.86240125  0.16614106
   0.07158062  0.54916367  0.78863356
   0.81749143  0.86345028  0.16608623
   0.56031708  0.21241216  0.74458487
   0.93395127  0.96168167  0.74449838
   0.05968224  0.52493749  0.12448932
Direct configuration=     2
   0.05389120  0.70134740  0.21132615
   0.31790571  0.72323543  0.87608566
   0.68770156  0.95815277  0.61135175
   0.43782713  0.45804298  0.61136529
   0.43935210  0.28799291  0.25548824
   0.05886791  0.38806695  0.83347270
   0.30898386  0.88750607  0.83357418
   0.44642775  0.62619629  0.70016532
   0.06085217  0.21238058  0.74476490
   0.17917421  0.45103902  0.21131253
   0.56729359  0.21044772  0.47756883
   0.06619148  0.87489554  0.56680595
   0.56769467  0.22349576  0.87599259
   0.80855583  0.52678879  0.12412199
   0.42998671  0.95134871  0.21146411
   0.56621719  0.37488788  0.56680828
   0.81217089  0.04203289  0.38861459
   0.68249996  0.78890756  0.52238712
   0.44216140  0.46037018  0.47755889
   0.43540960  0.96203488  0.74454326
   0.44118707  0.62476861  0.56683012
   0.57088755  0.87615794  0.70047812
   0.31158028  0.02846714  0.12406792
   0.68979140  0.95929836  0.34417690
   0.68777649  0.78379946  0.12431760
   0.05327312  0.37370777  0.29973611
   0.68931017  0.46811318  0.87579991
   0.42906887  0.45165008  0.21141194
   0.80885025  0.37520678  0.43309247
   0.56292811  0.70822439  0.61156213
   0.56021741  0.54135097  0.65565651
   0.93382303  0.12501426  0.43312353
   0.56420219  0.53750088  0.25541662
   0.68979202  0.45909861  0.34418547
   0.19101298  0.61083345  0.16627757
   0.19515709  0.79894386  0.78870977
   0.44666659  0.12600072  0.70017216
   0.92829255  0.62351968  0.29968272
   0.31718273  0.22251039  0.87600778
   0.31630564  0.87462921  0.56680643
   0.81696098  0.22304594  0.87604906
   0.80995080  0.54114147  0.65570737
   0.55946462  0.52647749  0.12395530
   0.56977025  0.04968497  0.78873742
   0.18925552  0.28804965  0.25549223
   0.80881130  0.87505639  0.43310011
   0.57166933  0.37621122  0.70021599
   0.06020188  0.02932447  0.12414695
   0.30996009  0.54073777  0.65580455
   0.56469394  0.20925744  0.34414322
   0.18771841  0.95813092  0.61137920
   0.30332452  0.37368559  0.29971569
   0.43494297  0.79067726  0.65580163
   0.19513208  0.29823825  0.78861217
   0.06622197  0.36337868  0.16643508
   0.69650732  0.62621576  0.70030399
   0.31206052  0.54177782  0.38861015
   0.06760206  0.72247926  0.87605796
   0.93397754  0.63743873  0.83371072
   0.31976080  0.54945647  0.78881417
   0.30403765  0.20125277  0.21123873
   0.06751203  0.71042544  0.47754130
   0.55410395  0.20156673  0.21132717
   0.31139611  0.21181654  0.74459475
   0.07147246  0.37633189  0.70032650
   0.18369516  0.63747380  0.83354695
   0.07018130  0.04906109  0.78882521
   0.44131577  0.12489131  0.56687371
   0.93514849  0.29101772  0.65574394
   0.80422161  0.20120952  0.21133706
   0.92960425  0.95096565  0.21159365
   0.94125300  0.62495099  0.56675603
   0.80865995  0.38756730  0.83357921
   0.19652586  0.62604517  0.70012615
   0.80885431  0.88766960  0.83361783
   0.68527081  0.29075690  0.65584631
   0.31269261  0.20791386  0.61134536
   0.43573044  0.46243180  0.74456573
   0.43683892  0.79172376  0.38850609
   0.68498545  0.96256028  0.74453791
   0.80337428  0.70112296  0.21147592
   0.81301340  0.70823597  0.61152143
   0.43536946  0.78385643  0.12415728
   0.31062139  0.71197711  0.74452171
   0.32076148  0.04918534  0.78871951
   0.81163875  0.54169737  0.38843184
   0.68292591  0.28853307  0.52230600
   0.69562005  0.79873299  0.78870444
   0.18943158  0.78815160  0.25548305
   0.69058794  0.11174231  0.16662979
   0.69206084  0.96039286  0.47755895
   0.93977908  0.95934643  0.34415686
   0.80763392  0.03872062  0.52247011
   0.68383515  0.62506303  0.43311741
   0.43993328  0.45922033  0.34421271
   0.81141662  0.21193974  0.74450383
   0.43922172  0.96820114  0.87585666
   0.56619389  0.87470261  0.56677688
   0.81044508  0.02843153  0.12408376
   0.42833941  0.62371699  0.29965922
   0.81674644  0.72259614  0.87613120
   0.68771832  0.45792835  0.61134907
   0.55885957  0.38746021  0.83336872
   0.80337672  0.37370570  0.29967784
   0.18703255  0.29180077  0.38849902
   0.82004230  0.54915592  0.78888962
   0.18287545  0.78919510  0.52251239
   0.30328958  0.87404740  0.29979768
   0.17901099  0.95152087  0.21147918
   0.18572242  0.46226605  0.74462207
   0.43300063  0.28873195  0.52229598
   0.06476275  0.70916968  0.34414376
   0.18525624  0.79076768  0.65572632
   0.44538098  0.79870953  0.78869258
   0.68368269  0.12500478  0.43308706
   0.93278045  0.78855235  0.52232867
   0.69085492  0.61241684  0.16646370
   0.81482148  0.70930701  0.34413922
   0.93523562  0.46258478  0.74486328
   0.18988281  0.45929458  0.34419690
   0.57007524  0.54912338  0.78884877
   0.56600023  0.36331643  0.16659201
   0.56477208  0.70936664  0.34416017
   0.55321920  0.37377341  0.29968206
   0.18921071  0.46791622  0.87581327
   0.19085147  0.11131545  0.16656333
   0.44446891  0.29847247  0.78870417
   0.68950601  0.78791385  0.25545212
   0.93401623  0.13739763  0.83357207
   0.44223732  0.96053450  0.47753151
   0.56729754  0.72400510  0.87600605
   0.19205511  0.46059541  0.47752544
   0.93360156  0.28281808  0.12416775
   0.31207002  0.04206281  0.38867609
   0.06010460  0.04044581  0.65587485
   0.55887069  0.37490040  0.43312861
   0.68489574  0.46233220  0.74485681
   0.31571099  0.36276619  0.16638748
   0.94661881  0.12627399  0.70035922
   0.56017307  0.04104583  0.65571667
   0.55752309  0.53898019  0.52248105
   0.17836475  0.12382666  0.29978170
   0.44044457  0.11152631  0.16661010
   0.67839545  0.62372109  0.29963662
   0.92826928  0.12388171  0.29981605
   0.81626485  0.37494608  0.56685874
   0.05343837  0.87373001  0.29984874
   0.19120676  0.62487875  0.56687456
   0.94543129  0.79901025  0.78872600
   0.30870862  0.38740799  0.83356401
   0.93889954  0.46863892  0.87581579
   0.43405873  0.63775279  0.83356712
   0.06462073  0.20913255  0.34405704
   0.18939317  0.96808525  0.87596472
   0.93696999  0.78464649  0.12430033
   0.68673776  0.79152530  0.38845411
   0.93503811  0.79079926  0.65579221
   0.94062240  0.11105542  0.16666779
   0.43528988  0.29075188  0.65587036
   0.05381168  0.20024995  0.21152334
   0.67867911  0.95160676  0.21142870
   0.17831824  0.62365555  0.29965685
   0.82140271  0.87618579  0.70030413
   0.94637922  0.62642517  0.70038288
   0.19649633  0.12607275  0.70020016
   0.94228878  0.46041278  0.47751012
   0.81281287  0.20798842  0.61136357
   0.18377413  0.62507017  0.43312304
   0.42824586  0.12382847  0.29976029
   0.67827909  0.12382116  0.29980261
   0.56190581  0.54176145  0.38849741
   0.81457867  0.20913507  0.34407146
   0.43913678  0.46811562  0.87569075
   0.55897549  0.88715296  0.83356454
   0.31718247  0.21037614  0.47753202
   0.19211765  0.96042146  0.47756283
   0.05890659  0.88762625  0.83353487
   0.05774740  0.53883184  0.52234435
   0.94221122  0.96033556  0.47747193
   0.06274863  0.70809036  0.61144461
   0.55781665  0.03862993  0.52232380
   0.69558015  0.29842296  0.78865994
   0.81631120  0.36336547  0.16654915
   0.43375565  0.12500649  0.43311573
   0.06725312  0.21039163  0.47753342
   0.31000078  0.04080250  0.65575143
   0.43266818  0.78880906  0.52234882
   0.18410058  0.13759244  0.83360408
   0.18696609  0.28346610  0.12416106
   0.93982294  0.45930659  0.34419489
   0.56641536  0.86301472  0.16642105
   0.30427119  0.70119452  0.21137534
   0.94011980  0.61020638  0.16633608
   0.18770980  0.45797082  0.61137373
   0.07149713  0.87629010  0.70015693
   0.06018438  0.54073997  0.65580337
   0.31052274  0.52725089  0.12384928
   0.93678266  0.79166980  0.38850559
   0.94549687  0.29783802  0.78858649
   0.18496968  0.29065675  0.65582066
   0.93762284  0.95797895  0.61138859
   0.81163381  0.71159767  0.74460558
   0.68930590  0.28803384  0.25550791
   0.06061204  0.71206217  0.74479471
   0.67909065  0.45130427  0.21135092
   0.81734950  0.21046106  0.47758032
   0.56719355  0.71031997  0.47750895
   0.06589928  0.86298381  0.16628543
   0.93284865  0.28850757  0.52234800
   0.68511887  0.79076677  0.65577564
   0.05857770  0.87457644  0.43313809
   0.06744592  0.22234906  0.87601531
   0.81029625  0.04072892  0.65577184
   0.56044066  0.02830230  0.12411981
   0.30875656  0.37491739  0.43307682
   0.31616591  0.37483530  0.56683692
   0.31726919  0.71031859  0.47747152
   0.05781970  0.03858227  0.52237854
   0.32124789  0.87627081  0.70036854
   0.06443270  0.53783904  0.25532697
   0.68386393  0.13761290  0.83357145
   0.81428802  0.03760291  0.25535319
   0.18388048  0.12501874  0.43311097
   0.69702664  0.12661869  0.70024979
   0.18288142  0.28865261  0.52232987
   0.43924761  0.78780448  0.25544601
   0.81417680  0.53775982  0.25550390
   0.06280295  0.20800792  0.61132756
   0.18652301  0.79148735  0.38843383
   0.30777093  0.53863986  0.52233962
   0.82132084  0.37607878  0.70012280
   0.68695008  0.29169870  0.38849639
   0.19114396  0.12498226  0.56685959
   0.68968124  0.96887892  0.87597867
   0.69116042  0.12493111  0.56685785
   0.43975444  0.95924303  0.34420283
   0.18530296  0.96202504  0.74449981
   0.93961709  0.78796767  0.25545170
   0.55880638  0.87510219  0.43311642
   0.30870747  0.87503619  0.43312315
   0.80778336  0.53921904  0.52248864
   0.92904044  0.45106348  0.21134966
   0.31394891  0.53756001  0.25558188
   0.56219248  0.04204222  0.38865400
   0.93776938  0.45792182  0.61141141
   0.06205304  0.04189347  0.38857041
   0.06207601  0.54163823  0.38849903
   0.43697607  0.29180338  0.38854505
   0.69221938  0.46050614  0.47751920
   0.06627220  0.37481463  0.56685040
   0.55374895  0.70165270  0.21132869
   0.93939789  0.28817329  0.25550658
   0.81959733  0.04934376  0.78887148
   0.18975481  0.95929955  0.34421684
   0.55339096  0.87386248  0.29986694
   0.05872972  0.37509540  0.43310706
   0.31476069  0.70927623  0.34414919
   0.31473700  0.20914404  0.34419177
   0.94133642  0.12492481  0.56676011
   0.43784852  0.95821365  0.61144571
   0.56400984  0.03749709  0.25544540
   0.18729009  0.78390190  0.12439341
   0.06448725  0.03742941  0.25521169
   0.69125592  0.62471113  0.56685236
   0.44069693  0.61220371  0.16643567
   0.30775649  0.03865750  0.52229357
   0.68477688  0.28228582  0.12408160
   0.81713403  0.71034538  0.47751114
   0.43402757  0.13761169  0.83350731
   0.32175562  0.37597815  0.70017792
   0.68404196  0.63775676  0.83353792
   0.56136669  0.71163136  0.74460454
   0.93724259  0.29201730  0.38862408
   0.93953752  0.96865861  0.87599410
   0.56264155  0.20789876  0.61131902
   0.81620398  0.87491576  0.56685850
   0.80329142  0.87392297  0.29977298
   0.31450423  0.03768325  0.25517570
   0.43590910  0.28238029  0.12398404
   0.31291947  0.70816849  0.61149205
   0.43365157  0.62508241  0.43311769
   0.93289788  0.62527416  0.43327377
   0.31752083  0.86250978  0.16608358
   0.07106965  0.54910840  0.78863544
   0.81709798  0.86340042  0.16604551
   0.56077149  0.21252581  0.74456550
   0.93454820  0.96179661  0.74450097
   0.05975529  0.52562603  0.12449961
Direct configuration=     3
   0.05563318  0.70111959  0.21126776
   0.31692523  0.72164969  0.87589062
   0.68792707  0.95793182  0.61135614
   0.43796428  0.45788291  0.61136622
   0.43765448  0.28767321  0.25555787
   0.05990544  0.38729179  0.83372074
   0.31017728  0.88710455  0.83379703
   0.44450536  0.62633374  0.70021990
   0.06257627  0.21264340  0.74457175
   0.18071795  0.45122305  0.21130393
   0.56564612  0.20979258  0.47771273
   0.06507920  0.87469276  0.56677057
   0.56656215  0.22162530  0.87578390
   0.80919504  0.52920753  0.12427677
   0.43128376  0.95180729  0.21141182
   0.56515060  0.37469327  0.56676447
   0.81197209  0.04213836  0.38858014
   0.68419160  0.78968871  0.52227917
   0.44060351  0.45972110  0.47770462
   0.43688370  0.96215251  0.74450363
   0.44007016  0.62468259  0.56680549
   0.56929988  0.87638142  0.70033604
   0.31139389  0.02983682  0.12415262
   0.68840457  0.95897322  0.34429382
   0.68785779  0.78170256  0.12440857
   0.05535389  0.37363790  0.29972617
   0.68909131  0.46967820  0.87561123
   0.43068677  0.45168070  0.21139889
   0.80990524  0.37515453  0.43311987
   0.56290003  0.70799994  0.61150503
   0.56150208  0.54132677  0.65561074
   0.93487017  0.12509454  0.43314067
   0.56254205  0.53744269  0.25544152
   0.68825167  0.45881279  0.34418026
   0.18976491  0.61173389  0.16619279
   0.19390594  0.79892792  0.78864211
   0.44467178  0.12615062  0.70020586
   0.93034730  0.62352397  0.29975235
   0.31623187  0.22112052  0.87580829
   0.31509611  0.87456583  0.56676734
   0.81619056  0.22142909  0.87584029
   0.81135016  0.54119880  0.65566612
   0.56012903  0.52847021  0.12424318
   0.56862489  0.04938916  0.78877981
   0.18767592  0.28772613  0.25555508
   0.80985443  0.87534979  0.43309628
   0.56954444  0.37657826  0.70025713
   0.06077913  0.03021048  0.12432729
   0.31143785  0.54094867  0.65570191
   0.56324968  0.20892598  0.34425287
   0.18790673  0.95802432  0.61140273
   0.30527580  0.37366640  0.29976327
   0.43632237  0.79120060  0.65571376
   0.19379411  0.29825339  0.78866512
   0.06522362  0.36376984  0.16618728
   0.69441788  0.62634738  0.70027471
   0.31191504  0.54186761  0.38856965
   0.06645236  0.72113869  0.87589543
   0.93519022  0.63712321  0.83392586
   0.31880961  0.54944205  0.78880694
   0.30556218  0.20113140  0.21123684
   0.06570096  0.70972129  0.47773159
   0.55569762  0.20143674  0.21130026
   0.31253551  0.21241671  0.74446084
   0.06939232  0.37645642  0.70030766
   0.18496460  0.63719624  0.83371817
   0.06883464  0.04892110  0.78882691
   0.44013786  0.12467888  0.56680420
   0.93656380  0.29133513  0.65564110
   0.80556142  0.20091907  0.21131564
   0.93099117  0.95140025  0.21149712
   0.94009622  0.62482082  0.56675706
   0.80987783  0.38712389  0.83382382
   0.19443935  0.62626990  0.70018039
   0.80994651  0.88713458  0.83387986
   0.68666628  0.29108409  0.65573594
   0.31289794  0.20790172  0.61138335
   0.43715648  0.46253120  0.74443702
   0.43680773  0.79186423  0.38855257
   0.68687739  0.96245203  0.74448888
   0.80511501  0.70116491  0.21142159
   0.81298357  0.70794104  0.61142865
   0.43595282  0.78187485  0.12427861
   0.31197604  0.71222007  0.74443863
   0.31930242  0.04912135  0.78879203
   0.81191032  0.54196347  0.38849745
   0.68457285  0.28958658  0.52219978
   0.69406103  0.79888292  0.78872193
   0.18774715  0.78780433  0.25555041
   0.68941616  0.11257808  0.16647168
   0.69039950  0.95974861  0.47771843
   0.93838685  0.95920570  0.34423758
   0.80935522  0.03945572  0.52227962
   0.68464798  0.62509764  0.43310631
   0.43844212  0.45903947  0.34424992
   0.81290612  0.21249201  0.74442588
   0.43916203  0.96981378  0.87568129
   0.56512048  0.87458058  0.56672094
   0.81093361  0.02966668  0.12415874
   0.43036152  0.62367202  0.29975114
   0.81601805  0.72146570  0.87592092
   0.68788228  0.45784832  0.61136012
   0.55988905  0.38705082  0.83365691
   0.80534308  0.37366535  0.29971981
   0.18695462  0.29191327  0.38851041
   0.81857849  0.54911722  0.78892756
   0.18460112  0.78974615  0.52235437
   0.30536920  0.87383340  0.29975416
   0.18063313  0.95151309  0.21145893
   0.18749923  0.46251877  0.74448516
   0.43449180  0.28956993  0.52219261
   0.06332997  0.70888337  0.34421626
   0.18660039  0.79084130  0.65563726
   0.44394765  0.79884176  0.78866863
   0.68456246  0.12508111  0.43312329
   0.93443483  0.78948688  0.52223490
   0.68953293  0.61303489  0.16634649
   0.81346621  0.70890370  0.34421752
   0.93703855  0.46262765  0.74460085
   0.18854872  0.45896735  0.34424305
   0.56895364  0.54891393  0.78883526
   0.56497206  0.36369069  0.16625978
   0.56339387  0.70893681  0.34425131
   0.55532592  0.37371188  0.29975481
   0.18896910  0.46933457  0.87563713
   0.18955170  0.11219439  0.16642403
   0.44345290  0.29856428  0.78866469
   0.68788695  0.78770751  0.25552944
   0.93538771  0.13691394  0.83376845
   0.44047455  0.95973301  0.47769064
   0.56639800  0.72220899  0.87582886
   0.19037335  0.45983294  0.47767876
   0.93495914  0.28103912  0.12445475
   0.31193465  0.04204539  0.38860226
   0.06146461  0.04086350  0.65575518
   0.55996476  0.37487453  0.43312522
   0.68657126  0.46221251  0.74460014
   0.31440416  0.36322043  0.16608657
   0.94468781  0.12643339  0.70030596
   0.56159551  0.04103923  0.65566158
   0.55940180  0.53970617  0.52227518
   0.18032751  0.12354027  0.29970257
   0.43946638  0.11247045  0.16641143
   0.68031574  0.62366366  0.29970992
   0.93036989  0.12348570  0.29975121
   0.81510602  0.37473183  0.56679991
   0.05548762  0.87356386  0.29980558
   0.19009939  0.62469237  0.56685085
   0.94357062  0.79891471  0.78877133
   0.30989611  0.38707330  0.83381324
   0.93899246  0.46987176  0.87561280
   0.43522054  0.63730672  0.83373170
   0.06334877  0.20897105  0.34422293
   0.18903693  0.96954376  0.87570598
   0.93642714  0.78242545  0.12430916
   0.68685463  0.79189586  0.38852349
   0.93646679  0.79102412  0.65572451
   0.93959367  0.11203611  0.16649125
   0.43660447  0.29121438  0.65575726
   0.05560822  0.20028745  0.21150024
   0.68034508  0.95191428  0.21146435
   0.18038958  0.62362794  0.29971975
   0.81932255  0.87641666  0.70025753
   0.94447701  0.62648755  0.70034742
   0.19441240  0.12625842  0.70021656
   0.94061777  0.45965134  0.47769257
   0.81296900  0.20791284  0.61137980
   0.18502209  0.62512311  0.43312330
   0.43030147  0.12354279  0.29972549
   0.68024132  0.12359933  0.29974289
   0.56184649  0.54186415  0.38853805
   0.81330155  0.20894962  0.34426284
   0.43895973  0.46959996  0.87553391
   0.56013207  0.88680062  0.83382479
   0.31556245  0.20970143  0.47770321
   0.19052741  0.95969253  0.47770454
   0.06002692  0.88711332  0.83381322
   0.05941933  0.53961661  0.52223187
   0.94050373  0.95958117  0.47763343
   0.06291762  0.70783807  0.61140574
   0.55938697  0.03965463  0.52222875
   0.69398897  0.29842746  0.78867197
   0.81509636  0.36335893  0.16626789
   0.43486079  0.12504767  0.43313447
   0.06555004  0.20959001  0.47769720
   0.31137395  0.04099618  0.65564272
   0.43434268  0.78953541  0.52222220
   0.18547865  0.13722063  0.83377406
   0.18692465  0.28129788  0.12440415
   0.93848062  0.45912254  0.34424983
   0.56531516  0.86385136  0.16622502
   0.30567896  0.70111550  0.21139619
   0.93951277  0.61156999  0.16630792
   0.18785918  0.45785519  0.61139679
   0.06947908  0.87639295  0.70015237
   0.06153138  0.54098975  0.65574930
   0.31095493  0.52960709  0.12416005
   0.93673273  0.79183986  0.38852742
   0.94382296  0.29813667  0.78864793
   0.18630566  0.29097563  0.65572320
   0.93780457  0.95787289  0.61143357
   0.81299960  0.71228376  0.74453204
   0.68769816  0.28768265  0.25555247
   0.06267491  0.71241156  0.74456021
   0.68048993  0.45137983  0.21138411
   0.81557082  0.20963103  0.47772992