       N       E                     dE             d eps       ncg     rms          rms(c)
DAV:   1     0.292338576838E+05    0.29234E+05   -0.86591E+05 27944   0.197E+03
DAV:   2     0.119758354035E+04   -0.28036E+05   -0.27424E+05 27720   0.605E+02
DAV:   3    -0.194050688995E+04   -0.31381E+04   -0.27260E+04 39088   0.280E+02
DAV:   4    -0.261058158713E+04   -0.67007E+03   -0.61016E+03 50904   0.977E+01
DAV:   5    -0.273091409009E+04   -0.12033E+03   -0.11269E+03 48356   0.398E+01    0.203E+02
RMM:   6    -0.609814039838E+04   -0.33672E+04   -0.12687E+04 48488   0.254E+02    0.664E+02
RMM:   7    -0.399656191241E+04    0.21016E+04   -0.35119E+03 47799   0.103E+02    0.391E+02
RMM:   8    -0.110644741746E+05   -0.70679E+04   -0.21008E+04 47679   0.384E+02    0.127E+03
RMM:   9    -0.136512581922E+05   -0.25868E+04   -0.18606E+04 49160   0.218E+02    0.999E+02
RMM:  10    -0.106075399833E+05    0.30437E+04   -0.89603E+03 45759   0.202E+02    0.887E+02
RMM:  11    -0.108653045172E+05   -0.25776E+03   -0.14435E+04 49304   0.193E+02    0.821E+02
RMM:  12    -0.104479530134E+05    0.41735E+03   -0.99334E+03 49025   0.119E+02    0.700E+02
RMM:  13    -0.608195267497E+04    0.43660E+04   -0.91673E+03 43722   0.259E+02    0.617E+02
RMM:  14    -0.347378667842E+04    0.26082E+04   -0.70469E+03 38143   0.159E+02    0.427E+02
RMM:  15    -0.455283936226E+04   -0.10791E+04   -0.21558E+03 39389   0.118E+02    0.429E+02
RMM:  16    -0.380507067055E+04    0.74777E+03   -0.24081E+03 29164   0.105E+02    0.365E+02
RMM:  17    -0.266213137609E+04    0.11429E+04   -0.11839E+03 36668   0.447E+01    0.246E+02
RMM:  18    -0.327709131397E+04   -0.61496E+03   -0.21435E+03 39054   0.568E+01    0.291E+02
RMM:  19    -0.265975076470E+04    0.61734E+03   -0.11152E+03 33755   0.498E+01    0.212E+02
RMM:  20    -0.260080254569E+04    0.58948E+02   -0.10338E+03 42481   0.353E+01    0.186E+02
RMM:  21    -0.246104197773E+04    0.13976E+03   -0.59047E+02 43790   0.176E+01    0.146E+02
RMM:  22    -0.252182126405E+04   -0.60779E+02   -0.42202E+02 35830   0.226E+01    0.158E+02
RMM:  23    -0.238171013192E+04    0.14011E+03   -0.33215E+02 40095   0.192E+01    0.922E+01
RMM:  24    -0.240429117443E+04   -0.22581E+02   -0.24205E+02 34099   0.212E+01    0.112E+02
RMM:  25    -0.237732914398E+04    0.26962E+02   -0.80328E+01 32362   0.133E+01    0.999E+01
RMM:  26    -0.236698237814E+04    0.10347E+02   -0.65908E+01 36210   0.831E+00    0.920E+01
RMM:  27    -0.236419799732E+04    0.27844E+01   -0.35427E+01 35210   0.706E+00    0.909E+01
RMM:  28    -0.235490851855E+04    0.92895E+01   -0.22599E+01 40318   0.439E+00    0.815E+01
RMM:  29    -0.234600126600E+04    0.89073E+01   -0.14440E+01 32175   0.538E+00    0.730E+01
RMM:  30    -0.235254782872E+04   -0.65466E+01   -0.24103E+01 38518   0.531E+00    0.772E+01
RMM:  31    -0.235038566371E+04    0.21622E+01   -0.11675E+01 44727   0.187E+00    0.759E+01
RMM:  32    -0.235044844215E+04   -0.62778E-01   -0.59905E+00 45149   0.696E-01    0.767E+01
RMM:  33    -0.235141663255E+04   -0.96819E+00   -0.50991E+00 37636   0.183E+00    0.772E+01
RMM:  34    -0.235145219613E+04   -0.35564E-01   -0.26792E+00 45010   0.767E-01    0.782E+01
RMM:  35    -0.235366425171E+04   -0.22121E+01   -0.17870E+00 46407   0.431E-01    0.811E+01
RMM:  36    -0.235618298525E+04   -0.25187E+01   -0.65948E+00 31499   0.358E+00    0.821E+01
RMM:  37    -0.234714712312E+04    0.90359E+01   -0.34324E+00 37992   0.203E+00    0.746E+01
RMM:  38    -0.234297709700E+04    0.41700E+01   -0.14067E+00 31448   0.180E+00    0.702E+01
RMM:  39    -0.233737702812E+04    0.56001E+01   -0.10183E+01 32339   0.455E+00    0.613E+01
RMM:  40    -0.232847396433E+04    0.89031E+01   -0.15074E+01 38730   0.403E+00    0.480E+01
RMM:  41    -0.232699076183E+04    0.14832E+01   -0.89292E+00 36754   0.330E+00    0.471E+01
RMM:  42    -0.232678411802E+04    0.20664E+00   -0.64133E+00 37747   0.273E+00    0.470E+01
RMM:  43    -0.232803058315E+04   -0.12465E+01   -0.44159E+00 34521   0.247E+00    0.481E+01
RMM:  44    -0.232736947410E+04    0.66111E+00   -0.30286E+00 43789   0.113E+00    0.472E+01
RMM:  45    -0.232732163366E+04    0.47840E-01   -0.10537E+00 45698   0.447E-01    0.473E+01
RMM:  46    -0.232895290666E+04   -0.16313E+01   -0.39066E-01 29767   0.116E+00    0.494E+01
RMM:  47    -0.233070150860E+04   -0.17486E+01   -0.67285E-01 31478   0.124E+00    0.520E+01
RMM:  48    -0.232961649470E+04    0.10850E+01   -0.78651E-01 37829   0.101E+00    0.509E+01
RMM:  49    -0.232794075283E+04    0.16757E+01   -0.64897E-01 30261   0.140E+00    0.484E+01
RMM:  50    -0.232737078108E+04    0.56997E+00   -0.13850E+00 30717   0.197E+00    0.482E+01
RMM:  51    -0.242319714353E+04   -0.95826E+02   -0.68820E+01 30935   0.133E+01    0.131E+02
RMM:  52    -0.237793665433E+04    0.45260E+02   -0.32297E+01 28385   0.113E+01    0.986E+01
RMM:  53    -0.246700145397E+04   -0.89065E+02   -0.42825E+01 33589   0.887E+00    0.159E+02
RMM:  54    -0.245581749076E+04    0.11184E+02   -0.24034E+01 38678   0.567E+00    0.154E+02
RMM:  55    -0.248971155117E+04   -0.33894E+02   -0.14389E+01 35522   0.445E+00    0.176E+02
RMM:  56    -0.243512145215E+04    0.54590E+02   -0.10862E+02 31120   0.149E+01    0.127E+02
RMM:  57    -0.243075638639E+04    0.43651E+01   -0.11441E+02 37163   0.125E+01    0.131E+02
RMM:  58    -0.245923854940E+04   -0.28482E+02   -0.59655E+01 32099   0.101E+01    0.141E+02
RMM:  59    -0.246509750548E+04   -0.58590E+01   -0.77289E+01 44510   0.369E+00    0.144E+02
RMM:  60    -0.246974813943E+04   -0.46506E+01   -0.40324E+01 44588   0.207E+00    0.151E+02
RMM:  61    -0.252634257628E+04   -0.56594E+02   -0.87716E+01 32787   0.137E+01    0.175E+02
RMM:  62    -0.250069802003E+04    0.25645E+02   -0.69292E+01 39825   0.842E+00    0.173E+02
RMM:  63    -0.249880949058E+04    0.18885E+01   -0.25920E+01 32434   0.720E+00    0.177E+02
RMM:  64    -0.249527007595E+04    0.35394E+01   -0.22922E+01 38090   0.577E+00    0.179E+02
RMM:  65    -0.248355579303E+04    0.11714E+02   -0.16505E+01 31695   0.620E+00    0.175E+02
RMM:  66    -0.243087321087E+04    0.52683E+02   -0.96821E+01 28726   0.183E+01    0.146E+02
RMM:  67    -0.235114035161E+04    0.79733E+02   -0.30310E+01 27720   0.132E+01    0.878E+01
RMM:  68    -0.234289211234E+04    0.82482E+01   -0.34600E+01 28907   0.109E+01    0.779E+01
RMM:  69    -0.233649002900E+04    0.64021E+01   -0.36455E+01 32857   0.822E+00    0.688E+01
RMM:  70    -0.233199120017E+04    0.44988E+01   -0.24716E+01 38860   0.551E+00    0.581E+01
RMM:  71    -0.236964276587E+04   -0.37652E+02   -0.34713E+01 30755   0.944E+00    0.100E+02
RMM:  72    -0.233410722866E+04    0.35536E+02   -0.11662E+01 27852   0.783E+00    0.581E+01
RMM:  73    -0.233252127709E+04    0.15860E+01   -0.97137E+00 32201   0.413E+00    0.562E+01
RMM:  74    -0.233241817501E+04    0.10310E+00   -0.59055E+00 33661   0.307E+00    0.559E+01
RMM:  75    -0.233094918914E+04    0.14690E+01   -0.28108E+00 32624   0.228E+00    0.535E+01
RMM:  76    -0.233791521146E+04   -0.69660E+01   -0.18004E+01 27951   0.833E+00    0.666E+01
RMM:  77    -0.232839182611E+04    0.95234E+01   -0.67869E+00 28397   0.545E+00    0.494E+01
RMM:  78    -0.232331290240E+04    0.50789E+01   -0.68954E+00 35052   0.287E+00    0.370E+01
RMM:  79    -0.232184172346E+04    0.14712E+01   -0.46485E+00 33422   0.295E+00    0.323E+01
RMM:  80    -0.232159257869E+04    0.24914E+00   -0.51345E+00 30223   0.386E+00    0.298E+01
RMM:  81    -0.232497403924E+04   -0.33815E+01   -0.72416E+00 29902   0.483E+00    0.378E+01
RMM:  82    -0.232211910889E+04    0.28549E+01   -0.37315E+00 28882   0.402E+00    0.293E+01
RMM:  83    -0.232058713771E+04    0.15320E+01   -0.29357E+00 34720   0.208E+00    0.241E+01
RMM:  84    -0.232013306239E+04    0.45408E+00   -0.11916E+00 30380   0.187E+00    0.221E+01
RMM:  85    -0.232003351958E+04    0.99543E-01   -0.10316E+00 32618   0.152E+00    0.210E+01
RMM:  86    -0.232196569192E+04   -0.19322E+01   -0.50956E+00 28357   0.450E+00    0.272E+01
RMM:  87    -0.231958631082E+04    0.23794E+01   -0.19562E+00 27724   0.371E+00    0.185E+01
RMM:  88    -0.231923082636E+04    0.35548E+00   -0.94731E-01 31316   0.149E+00    0.166E+01
RMM:  89    -0.231858869067E+04    0.64214E+00   -0.76604E-01 35182   0.109E+00    0.124E+01
RMM:  90    -0.231824462127E+04    0.34407E+00   -0.52259E-01 32161   0.104E+00    0.977E+00
RMM:  91    -0.231876332193E+04   -0.51870E+00   -0.11279E+00 33386   0.139E+00    0.134E+01
RMM:  92    -0.231837043755E+04    0.39288E+00   -0.37142E-01 28426   0.135E+00    0.107E+01
RMM:  93    -0.231838559624E+04   -0.15159E-01   -0.42785E-01 34383   0.857E-01    0.109E+01
RMM:  94    -0.231841209721E+04   -0.26501E-01   -0.19197E-01 29531   0.842E-01    0.108E+01
RMM:  95    -0.231833988796E+04    0.72209E-01   -0.17087E-01 30626   0.699E-01    0.991E+00
RMM:  96    -0.231998978359E+04   -0.16499E+01   -0.25472E+00 29211   0.291E+00    0.188E+01
RMM:  97    -0.231884159829E+04    0.11482E+01   -0.92737E-01 27730   0.246E+00    0.136E+01
RMM:  98    -0.231851451115E+04    0.32709E+00   -0.37252E-01 28662   0.133E+00    0.112E+01
RMM:  99    -0.231825974615E+04    0.25476E+00   -0.53595E-01 28437   0.148E+00    0.886E+00
RMM: 100    -0.231820706881E+04    0.52677E-01   -0.32897E-01 29043   0.116E+00
   1 F= -.23182071E+04 E0= -.23154302E+04  d E =-.231821E+04
       N       E                     dE             d eps       ncg     rms          rms(c)
DAV:   1    -0.232021271913E+04   -0.19530E+01   -0.51542E+01 42056   0.950E+00    0.199E+01
RMM:   2    -0.690945458157E+04   -0.45892E+04   -0.32883E+03 46033   0.114E+02    0.349E+02
RMM:   3    -0.330641017973E+04    0.36030E+04   -0.93517E+02 32961   0.536E+01    0.214E+02
RMM:   4    -0.277471112376E+04    0.53170E+03   -0.18560E+02 27831   0.278E+01    0.234E+02
RMM:   5    -0.247388557706E+04    0.30083E+03   -0.52393E+01 32622   0.117E+01    0.151E+02
RMM:   6    -0.237291978773E+04    0.10097E+03   -0.71491E+01 28622   0.163E+01    0.104E+02
RMM:   7    -0.238965589561E+04   -0.16736E+02   -0.14007E+02 40248   0.106E+01    0.924E+01
RMM:   8    -0.234110732266E+04    0.48549E+02   -0.42012E+01 38291   0.625E+00    0.663E+01
RMM:   9    -0.232461646832E+04    0.16491E+02   -0.29123E+01 33935   0.708E+00    0.331E+01
RMM:  10    -0.234818593684E+04   -0.23569E+02   -0.21307E+01 32349   0.636E+00    0.725E+01
RMM:  11    -0.232245565655E+04    0.25730E+02   -0.39941E+00 27912   0.428E+00    0.271E+01
RMM:  12    -0.232192782627E+04    0.52783E+00   -0.43505E+00 31269   0.308E+00    0.272E+01
RMM:  13    -0.232045552318E+04    0.14723E+01   -0.29977E+00 34950   0.223E+00    0.214E+01
RMM:  14    -0.231876548372E+04    0.16900E+01   -0.11779E+00 30788   0.179E+00    0.119E+01
RMM:  15    -0.231856475760E+04    0.20073E+00   -0.10989E+00 41331   0.881E-01    0.977E+00
RMM:  16    -0.231837562596E+04    0.18913E+00   -0.40593E-01 41158   0.507E-01    0.760E+00
RMM:  17    -0.231836117926E+04    0.14447E-01   -0.19913E-01 34389   0.536E-01    0.723E+00
RMM:  18    -0.231830400943E+04    0.57170E-01   -0.11143E-01 36267   0.424E-01    0.654E+00
RMM:  19    -0.231830944386E+04   -0.54344E-02   -0.69103E-02 30494   0.441E-01    0.656E+00
RMM:  20    -0.231826521352E+04    0.44230E-01   -0.67661E-02 36159   0.323E-01    0.570E+00
RMM:  21    -0.231821007007E+04    0.55143E-01   -0.49523E-02 33068   0.309E-01    0.471E+00
RMM:  22    -0.231819890183E+04    0.11168E-01   -0.74912E-02 33270   0.374E-01    0.469E+00
RMM:  23    -0.231830977428E+04   -0.11087E+00   -0.78110E-02 32640   0.390E-01    0.649E+00
RMM:  24    -0.231835166717E+04   -0.41893E-01   -0.74879E-02 34229   0.356E-01    0.694E+00
RMM:  25    -0.231823762157E+04    0.11405E+00   -0.37088E-02 29618   0.346E-01    0.513E+00
RMM:  26    -0.231821665332E+04    0.20968E-01   -0.23552E-02 29374   0.283E-01    0.472E+00
RMM:  27    -0.231817782532E+04    0.38828E-01   -0.38636E-02 29636   0.345E-01    0.388E+00
RMM:  28    -0.231814997825E+04    0.27847E-01   -0.24576E-02 29408   0.283E-01    0.319E+00
RMM:  29    -0.231816193303E+04   -0.11955E-01   -0.29621E-02 36601   0.198E-01    0.347E+00
RMM:  30    -0.231825505076E+04   -0.93118E-01   -0.22680E-02 33973   0.201E-01    0.533E+00
RMM:  31    -0.231826199506E+04   -0.69443E-02   -0.10381E-02 32266   0.147E-01    0.540E+00
RMM:  32    -0.231825976293E+04    0.22321E-02   -0.90939E-03 33216   0.135E-01    0.537E+00
RMM:  33    -0.231820461399E+04    0.55149E-01   -0.52655E-03 29909   0.130E-01    0.434E+00
RMM:  34    -0.231817820063E+04    0.26413E-01   -0.36266E-03 28951   0.119E-01    0.379E+00
RMM:  35    -0.231816561586E+04    0.12585E-01   -0.67881E-03 33805   0.111E-01    0.350E+00
RMM:  36    -0.231814538973E+04    0.20226E-01   -0.42782E-03 32513   0.924E-02    0.295E+00
RMM:  37    -0.231814395595E+04    0.14338E-02   -0.42429E-03 34222   0.846E-02    0.292E+00
RMM:  38    -0.231812684864E+04    0.17107E-01   -0.34765E-03 38374   0.687E-02    0.235E+00
RMM:  39    -0.231812071394E+04    0.61347E-02   -0.19493E-03 29884   0.810E-02    0.213E+00
RMM:  40    -0.231811616041E+04    0.45535E-02   -0.28041E-03 40440   0.570E-02    0.193E+00
RMM:  41    -0.231811291735E+04    0.32431E-02   -0.14849E-03 31494   0.592E-02    0.179E+00
RMM:  42    -0.231811315838E+04   -0.24103E-03   -0.13707E-03 35141   0.467E-02    0.180E+00
RMM:  43    -0.231810754278E+04    0.56156E-02   -0.14082E-03 41015   0.379E-02    0.149E+00
RMM:  44    -0.231810122076E+04    0.63220E-02   -0.10383E-03 34162   0.390E-02    0.105E+00
RMM:  45    -0.231809958398E+04    0.16368E-02   -0.10293E-03 42439   0.273E-02    0.905E-01
RMM:  46    -0.231809645509E+04    0.31289E-02   -0.84233E-04 37509   0.285E-02    0.499E-01
RMM:  47    -0.231809525247E+04    0.12026E-02   -0.12544E-03 38880   0.339E-02    0.181E-01
RMM:  48    -0.231809527711E+04   -0.24639E-04   -0.67229E-04 39172   0.263E-02    0.179E-01
RMM:  49    -0.231809519075E+04    0.86365E-04   -0.24101E-04 31990   0.224E-02    0.118E-01
RMM:  50    -0.231809519138E+04   -0.63147E-06   -0.22124E-04 42425   0.120E-02    0.102E-01
RMM:  51    -0.231809518383E+04    0.75477E-05   -0.78189E-05 35287   0.990E-03    0.851E-02
RMM:  52    -0.231809521547E+04   -0.31645E-04   -0.90680E-05 33467   0.122E-02    0.111E-01
RMM:  53    -0.231809520279E+04    0.12688E-04   -0.68541E-05 34667   0.109E-02    0.931E-02
RMM:  54    -0.231809517827E+04    0.24515E-04   -0.26161E-05 29652   0.902E-03    0.598E-02
RMM:  55    -0.231809517039E+04    0.78828E-05   -0.22581E-05 31222   0.610E-03    0.454E-02
RMM:  56    -0.231809516373E+04    0.66546E-05   -0.13404E-05 28313   0.521E-03    0.291E-02
RMM:  57    -0.231809517240E+04   -0.86704E-05   -0.15445E-05 28660   0.774E-03    0.497E-02
RMM:  58    -0.231809516975E+04    0.26526E-05   -0.66141E-06 23799   0.585E-03    0.434E-02
RMM:  59    -0.231809516354E+04    0.62148E-05   -0.48497E-06 20230   0.275E-03    0.252E-02
RMM:  60    -0.231809516069E+04    0.28504E-05   -0.23077E-06 17383   0.330E-03    0.882E-03
RMM:  61    -0.231809516086E+04   -0.17119E-06   -0.16214E-06 17010   0.176E-03
   2 F= -.23180952E+04 E0= -.23153103E+04  d E =0.111908E+00
       N       E                     dE             d eps       ncg     rms          rms(c)
DAV:   1    -0.231816166985E+04   -0.66509E-01   -0.13944E+02 27720   0.124E+01    0.243E+00
RMM:   2    -0.232890061937E+04   -0.10739E+02   -0.44006E+00 28540   0.429E+00    0.446E+01
RMM:   3    -0.232680493432E+04    0.20957E+01   -0.24554E+00 37553   0.190E+00    0.377E+01
RMM:   4    -0.232898805039E+04   -0.21831E+01   -0.83652E-01 28817   0.175E+00    0.426E+01
RMM:   5    -0.231987766730E+04    0.91104E+01   -0.60820E-01 28669   0.149E+00    0.158E+01
RMM:   6    -0.231905929023E+04    0.81838E+00   -0.64478E-01 30135   0.136E+00    0.119E+01
RMM:   7    -0.232031965826E+04   -0.12604E+01   -0.16087E+00 31111   0.195E+00    0.192E+01
RMM:   8    -0.231913967195E+04    0.11800E+01   -0.72552E-01 28677   0.162E+00    0.119E+01
RMM:   9    -0.231842894104E+04    0.71073E+00   -0.28954E-01 27730   0.125E+00    0.458E+00
RMM:  10    -0.231837214208E+04    0.56799E-01   -0.17739E-01 30058   0.694E-01    0.337E+00
RMM:  11    -0.231841668584E+04   -0.44544E-01   -0.23319E-01 32810   0.693E-01    0.443E+00
RMM:  12    -0.231833897630E+04    0.77710E-01   -0.84771E-02 28098   0.596E-01    0.212E+00
RMM:  13    -0.231832121391E+04    0.17762E-01   -0.37194E-02 28778   0.389E-01    0.148E+00
RMM:  14    -0.231832250224E+04   -0.12883E-02   -0.41112E-02 36608   0.215E-01    0.141E+00
RMM:  15    -0.231832157991E+04    0.92233E-03   -0.23534E-02 33948   0.206E-01    0.123E+00
RMM:  16    -0.231831617324E+04    0.54067E-02   -0.81563E-03 28754   0.180E-01    0.705E-01
RMM:  17    -0.231831582531E+04    0.34793E-03   -0.10421E-02 36928   0.119E-01    0.598E-01
RMM:  18    -0.231831585083E+04   -0.25519E-04   -0.51229E-03 30533   0.120E-01    0.612E-01
RMM:  19    -0.231831550599E+04    0.34484E-03   -0.24324E-03 29576   0.913E-02    0.558E-01
RMM:  20    -0.231831543677E+04    0.69222E-04   -0.26871E-03 39353   0.483E-02    0.526E-01
RMM:  21    -0.231831457646E+04    0.86031E-03   -0.87945E-04 31850   0.440E-02    0.308E-01
RMM:  22    -0.231831428816E+04    0.28830E-03   -0.47938E-04 31375   0.350E-02    0.201E-01
RMM:  23    -0.231831425623E+04    0.31932E-04   -0.54624E-04 36476   0.285E-02    0.170E-01
RMM:  24    -0.231831418502E+04    0.71207E-04   -0.18746E-04 29939   0.251E-02    0.131E-01
RMM:  25    -0.231831418331E+04    0.17176E-05   -0.16708E-04 35650   0.149E-02    0.122E-01
RMM:  26    -0.231831417523E+04    0.80771E-05   -0.10809E-04 34754   0.132E-02    0.109E-01
RMM:  27    -0.231831414161E+04    0.33622E-04   -0.39136E-05 30408   0.108E-02    0.664E-02
RMM:  28    -0.231831413669E+04    0.49169E-05   -0.42903E-05 36467   0.683E-03    0.546E-02
RMM:  29    -0.231831412690E+04    0.97937E-05   -0.21942E-05 31512   0.608E-03    0.287E-02
RMM:  30    -0.231831412371E+04    0.31914E-05   -0.83381E-06 24260   0.515E-03    0.179E-02
RMM:  31    -0.231831412402E+04   -0.31156E-06   -0.57068E-06 21518   0.290E-03
   3 F= -.23183141E+04 E0= -.23155195E+04  d E =-.107055E+00
       N       E                     dE             d eps       ncg     rms          rms(c)
DAV:   1    -0.231750530247E+04    0.80882E+00   -0.55669E+02 27720   0.249E+01    0.541E+00
RMM:   2    -0.236442564316E+04   -0.46920E+02   -0.22597E+01 28355   0.991E+00    0.901E+01
RMM:   3    -0.236094810705E+04    0.34775E+01   -0.11834E+01 37571   0.429E+00    0.827E+01
RMM:   4    -0.237290550366E+04   -0.11957E+02   -0.44823E+00 28785   0.393E+00    0.920E+01
RMM:   5    -0.232584440166E+04    0.47061E+02   -0.31552E+00 28856   0.332E+00    0.348E+01
RMM:   6    -0.232182145881E+04    0.40229E+01   -0.31482E+00 30775   0.291E+00    0.257E+01
RMM:   7    -0.232777611158E+04   -0.59547E+01   -0.71292E+00 31163   0.403E+00    0.420E+01
RMM:   8    -0.232164650358E+04    0.61296E+01   -0.32756E+00 28818   0.344E+00    0.238E+01
RMM:   9    -0.231883720137E+04    0.28093E+01   -0.14650E+00 27726   0.298E+00    0.982E+00
RMM:  10    -0.231876565081E+04    0.71551E-01   -0.92689E-01 28355   0.187E+00    0.958E+00
RMM:  11    -0.231896348414E+04   -0.19783E+00   -0.86286E-01 30074   0.153E+00    0.114E+01
RMM:  12    -0.231842228490E+04    0.54120E+00   -0.32940E-01 28584   0.105E+00    0.466E+00
RMM:  13    -0.231838443111E+04    0.37854E-01   -0.23958E-01 30999   0.745E-01    0.434E+00
RMM:  14    -0.231838818004E+04   -0.37489E-02   -0.21973E-01 36198   0.559E-01    0.416E+00
RMM:  15    -0.231835575372E+04    0.32426E-01   -0.72463E-02 30410   0.442E-01    0.322E+00
RMM:  16    -0.231833932985E+04    0.16424E-01   -0.43985E-02 30717   0.350E-01    0.267E+00
RMM:  17    -0.231832116227E+04    0.18168E-01   -0.57868E-02 34232   0.326E-01    0.188E+00
RMM:  18    -0.231832719512E+04   -0.60329E-02   -0.23764E-02 28924   0.308E-01    0.227E+00
RMM:  19    -0.231832776682E+04   -0.57170E-03   -0.28366E-02 36010   0.201E-01    0.223E+00
RMM:  20    -0.231831572537E+04    0.12041E-01   -0.11507E-02 29942   0.190E-01    0.155E+00
RMM:  21    -0.231830715329E+04    0.85721E-02   -0.49842E-03 29206   0.142E-01    0.828E-01
RMM:  22    -0.231830579999E+04    0.13533E-02   -0.54232E-03 34369   0.928E-02    0.640E-01
RMM:  23    -0.231830499845E+04    0.80154E-03   -0.37507E-03 34818   0.792E-02    0.522E-01
RMM:  24    -0.231830504168E+04   -0.43234E-04   -0.16814E-03 30946   0.686E-02    0.546E-01
RMM:  25    -0.231830493898E+04    0.10270E-03   -0.17270E-03 34711   0.555E-02    0.514E-01
RMM:  26    -0.231830435802E+04    0.58097E-03   -0.74986E-04 30272   0.482E-02    0.358E-01
RMM:  27    -0.231830430146E+04    0.56560E-04   -0.81361E-04 39763   0.282E-02    0.320E-01
RMM:  28    -0.231830403449E+04    0.26697E-03   -0.33248E-04 31701   0.280E-02    0.204E-01
RMM:  29    -0.231830386755E+04    0.16694E-03   -0.16642E-04 29514   0.250E-02    0.101E-01
RMM:  30    -0.231830390184E+04   -0.34294E-04   -0.23514E-04 32151   0.232E-02    0.127E-01
RMM:  31    -0.231830394875E+04   -0.46905E-04   -0.13098E-04 29907   0.205E-02    0.159E-01
RMM:  32    -0.231830393039E+04    0.18355E-04   -0.79447E-05 31595   0.138E-02    0.144E-01
RMM:  33    -0.231830390642E+04    0.23974E-04   -0.74721E-05 36321   0.982E-03    0.123E-01
RMM:  34    -0.231830385209E+04    0.54331E-04   -0.27593E-05 30240   0.879E-03    0.609E-02
RMM:  35    -0.231830384323E+04    0.88581E-05   -0.20665E-05 31665   0.585E-03    0.455E-02
RMM:  36    -0.231830383978E+04    0.34468E-05   -0.13830E-05 28586   0.494E-03    0.360E-02
RMM:  37    -0.231830383421E+04    0.55699E-05   -0.65263E-06 23154   0.468E-03    0.179E-02
RMM:  38    -0.231830383301E+04    0.12027E-05   -0.31277E-06 18805   0.319E-03    0.111E-02
RMM:  39    -0.231830383324E+04   -0.22998E-06   -0.30253E-06 18633   0.305E-03
   4 F= -.23183038E+04 E0= -.23154917E+04  d E =-.967644E-01
       N       E                     dE             d eps       ncg     rms          rms(c)
DAV:   1    -0.231821524951E+04    0.88584E-01   -0.14837E+02 27720   0.128E+01    0.239E+00
RMM:   2    -0.232666797302E+04   -0.84527E+01   -0.42580E+00 28601   0.414E+00    0.389E+01
RMM:   3    -0.232501300127E+04    0.16550E+01   -0.22505E+00 38854   0.171E+00    0.345E+01
RMM:   4    -0.232750852265E+04   -0.24955E+01   -0.70074E-01 28795   0.166E+00    0.415E+01
RMM:   5    -0.231970084444E+04    0.78077E+01   -0.52814E-01 29319   0.132E+00    0.146E+01
RMM:   6    -0.231936675915E+04    0.33409E+00   -0.61976E-01 29962   0.134E+00    0.136E+01
RMM:   7    -0.231975850403E+04   -0.39174E+00   -0.12719E+00 29527   0.190E+00    0.157E+01
RMM:   8    -0.231876628748E+04    0.99222E+00   -0.46935E-01 27730   0.154E+00    0.814E+00
RMM:   9    -0.231853223848E+04    0.23405E+00   -0.19971E-01 27973   0.889E-01    0.528E+00
RMM:  10    -0.231846416880E+04    0.68070E-01   -0.18833E-01 31581   0.615E-01    0.384E+00
RMM:  11    -0.231844340864E+04    0.20760E-01   -0.14781E-01 29170   0.673E-01    0.328E+00
RMM:  12    -0.231842057766E+04    0.22831E-01   -0.96010E-02 29023   0.567E-01    0.259E+00
RMM:  13    -0.231839047368E+04    0.30104E-01   -0.36038E-02 28392   0.401E-01    0.134E+00
RMM:  14    -0.231839103202E+04   -0.55834E-03   -0.40008E-02 34299   0.242E-01    0.129E+00
RMM:  15    -0.231838914453E+04    0.18875E-02   -0.19254E-02 30412   0.232E-01    0.112E+00
RMM:  16    -0.231838412027E+04    0.50243E-02   -0.73776E-03 28196   0.181E-01    0.579E-01
RMM:  17    -0.231838416999E+04   -0.49716E-04   -0.86077E-03 36546   0.105E-01    0.527E-01
RMM:  18    -0.231838390780E+04    0.26219E-03   -0.39430E-03 32085   0.934E-02    0.446E-01
RMM:  19    -0.231838322224E+04    0.68556E-03   -0.16885E-03 29920   0.750E-02    0.276E-01
RMM:  20    -0.231838327230E+04   -0.50063E-04   -0.20096E-03 38485   0.447E-02    0.252E-01
RMM:  21    -0.231838328904E+04   -0.16734E-04   -0.92596E-04 31365   0.474E-02    0.243E-01
RMM:  22    -0.231838313224E+04    0.15680E-03   -0.43164E-04 30103   0.385E-02    0.170E-01
RMM:  23    -0.231838312915E+04    0.30828E-05   -0.52509E-04 37431   0.239E-02    0.149E-01
RMM:  24    -0.231838307136E+04    0.57797E-04   -0.22234E-04 32734   0.206E-02    0.921E-02
RMM:  25    -0.231838305439E+04    0.16963E-04   -0.11808E-04 32813   0.152E-02    0.685E-02
RMM:  26    -0.231838305553E+04   -0.11341E-05   -0.10776E-04 40491   0.882E-03    0.598E-02
RMM:  27    -0.231838304447E+04    0.11056E-04   -0.36081E-05 33334   0.743E-03    0.313E-02
RMM:  28    -0.231838304207E+04    0.24032E-05   -0.18622E-05 29652   0.507E-03    0.186E-02
RMM:  29    -0.231838304261E+04   -0.54456E-06   -0.10267E-05 25482   0.390E-03    0.182E-02
RMM:  30    -0.231838304204E+04    0.57250E-06   -0.49754E-06 21419   0.422E-03
   5 F= -.23183830E+04 E0= -.23155794E+04  d E =-.175973E+00
