unknown system                          
           1
     9.726678    0.000000    0.000000
     0.000000    8.423550    0.000000
     0.000000    0.000000   45.000000
   Fe   Mn
 274  14
Direct configuration=     1
   0.06185605  0.03114761  0.12434329
   0.31659772  0.87498166  0.65486642
   0.18491630  0.12148345  0.78828178
   0.44159850  0.28774182  0.38909332
   0.31766469  0.71235742  0.83287119
   0.81779200  0.21390335  0.83333427
   0.19120085  0.96258647  0.83328875
   0.56225134  0.20716772  0.56549573
   0.06560064  0.03970783  0.74393566
   0.81148224  0.87133503  0.52132968
   0.19091089  0.29078666  0.74410575
   0.93370106  0.45231118  0.34492976
   0.94116205  0.28662772  0.38895940
   0.81315551  0.03956439  0.87545108
   0.18356767  0.78812957  0.61086346
   0.56647968  0.03774817  0.38907594
   0.94189621  0.96313780  0.83362182
   0.31423363  0.53891814  0.87586165
   0.69042450  0.29024516  0.74396968
   0.18226173  0.61393261  0.16670892
   0.81208170  0.20564257  0.47870056
   0.80875597  0.53780398  0.61092344
   0.31210915  0.87012397  0.43449151
   0.80920526  0.03828635  0.25614232
   0.68360797  0.95162467  0.34487665
   0.93114736  0.11474595  0.16718617
   0.06162065  0.87130235  0.52136845
   0.55870616  0.53842871  0.25612689
   0.68443520  0.79608662  0.87548478
   0.55622441  0.36570187  0.16674661
   0.43985005  0.79060801  0.74405600
   0.81158296  0.70674793  0.56548324
   0.55985375  0.87289482  0.78836308
   0.68658307  0.12141361  0.52134946
   0.81640130  0.37494938  0.65492560
   0.94139398  0.46275918  0.83356588
   0.06032524  0.20800844  0.69951722
   0.43512034  0.95795919  0.69954584
   0.31669276  0.21179664  0.83333749
   0.44144742  0.62486014  0.65485598
   0.30875742  0.53794015  0.61088214
   0.93676715  0.45682494  0.56553262
   0.69010598  0.79092063  0.74400511
   0.93367666  0.78836475  0.12467243
   0.69182765  0.78766879  0.38906323
   0.94056165  0.78998309  0.74412136
   0.05880257  0.20298671  0.34500515
   0.68348432  0.45250341  0.34511170
   0.43530642  0.12081314  0.78866940
   0.06470543  0.20518714  0.21157531
   0.05527248  0.36577882  0.16681589
   0.93362290  0.78869004  0.25587587
   0.56035175  0.20769932  0.69959271
   0.68512047  0.95812722  0.69964563
   0.81040031  0.87276337  0.78827530
   0.43687664  0.95715124  0.56541488
   0.81077789  0.37324539  0.78819016
   0.68409282  0.28962068  0.25607792
   0.18728693  0.45719146  0.56550706
   0.05570350  0.86559806  0.16679560
   0.18375728  0.28794781  0.61090316
   0.06226868  0.20726952  0.56536989
   0.31052452  0.20792108  0.69953137
   0.56359406  0.53890880  0.87568603
   0.06173638  0.70643677  0.56551295
   0.68483658  0.62152509  0.78823459
   0.31631318  0.53775587  0.38903700
   0.18672797  0.62138200  0.52142110
   0.56238484  0.87040579  0.43447890
   0.43702604  0.45730035  0.56545020
   0.43986847  0.29080481  0.74399017
   0.81939626  0.87487170  0.30041098
   0.80864655  0.70272596  0.34505875
   0.44188734  0.46228372  0.83315409
   0.68741388  0.95565514  0.47865926
   0.68497372  0.45790315  0.69958425
   0.56181867  0.87190049  0.52138330
   0.56650682  0.37494801  0.65489735
   0.81644784  0.87483489  0.65491800
   0.81190742  0.37146674  0.43425853
   0.80882566  0.53846883  0.25627062
   0.69193302  0.46119343  0.83304140
   0.18599945  0.78850652  0.12427378
   0.69128808  0.28738319  0.38908793
   0.31642606  0.37474459  0.65489621
   0.30889917  0.20273320  0.34496943
   0.81554456  0.53995026  0.74398281
   0.69148045  0.96168896  0.83310432
   0.56616582  0.87449913  0.65490636
   0.31180333  0.70691001  0.56541328
   0.31230270  0.53154610  0.12425590
   0.68965193  0.95590897  0.21193549
   0.31141562  0.20657607  0.56546647
   0.18725720  0.95573145  0.47869317
   0.68736587  0.95719833  0.56549767
   0.43370058  0.78792552  0.61091201
   0.68245703  0.61230107  0.16670782
   0.31906902  0.87440178  0.30025448
   0.31225461  0.70563190  0.47864709
   0.93367120  0.28780263  0.61089789
   0.44511670  0.62485816  0.30045132
   0.80680996  0.86433241  0.16720744
   0.56645175  0.20350837  0.21176126
   0.93286126  0.61304476  0.16685369
   0.43729352  0.95557210  0.47865819
   0.56017012  0.37192405  0.78836615
   0.06136161  0.37202395  0.52138817
   0.30680082  0.36460694  0.16688137
   0.69489384  0.12422257  0.30041408
   0.44276687  0.96172125  0.83318421
   0.18467635  0.28760912  0.12448568
   0.18425228  0.28953640  0.25609732
   0.31206941  0.37029891  0.43444231
   0.56222873  0.03264647  0.12453839
   0.43367405  0.28784103  0.61087662
   0.18385636  0.45284663  0.34512146
   0.43456729  0.28735035  0.12457077
   0.68392334  0.78932174  0.25607859
   0.43661695  0.12138287  0.52135586
   0.18850938  0.29375465  0.87577817
   0.19141172  0.12489776  0.65495927
   0.94146838  0.12490690  0.65493074
   0.81632964  0.53745653  0.38906089
   0.06647657  0.03768897  0.38908653
   0.18307376  0.11226169  0.16660223
   0.05869716  0.53789049  0.61089177
   0.93433162  0.28949240  0.25609910
   0.55868878  0.53788140  0.61086949
   0.93683577  0.95740632  0.56543872
   0.69398552  0.62492019  0.30032589
   0.93756605  0.62050042  0.43447751
   0.93410694  0.62319838  0.78799548
   0.56037125  0.70766392  0.69957270
   0.06614098  0.71528565  0.83370495
   0.94478797  0.12386452  0.30031934
   0.93371529  0.78757498  0.61091324
   0.43379049  0.78960083  0.25608934
   0.31012925  0.37238195  0.78816916
   0.43979962  0.45564388  0.21186089
   0.18666815  0.12146513  0.52137721
   0.81036345  0.70781062  0.69954934
   0.05871638  0.03784535  0.61083100
   0.56600684  0.21290532  0.83301702
   0.31162373  0.87146991  0.52138374
   0.68619788  0.28768370  0.12432653
   0.18980562  0.95639408  0.21204505
   0.68355939  0.28799730  0.61085470
   0.30859105  0.03786988  0.61093448
   0.93479940  0.12261809  0.78836397
   0.43695167  0.79583215  0.87576251
   0.81556509  0.04041757  0.74382828
   0.93476947  0.45804779  0.69955411
   0.19150878  0.62483826  0.65491419
   0.31029423  0.70772665  0.69957478
   0.93434040  0.28724141  0.12438480
   0.43731488  0.45562650  0.47860995
   0.06221949  0.70565814  0.47861648
   0.93712872  0.12014562  0.43461885
   0.44395745  0.12469361  0.30042822
   0.18759969  0.12010099  0.43437281
   0.56346076  0.03889379  0.87583945
   0.18705102  0.95733952  0.56547000
   0.68424264  0.78853568  0.12474708
   0.55902348  0.70274637  0.34505285
   0.31625658  0.03702028  0.38903752
   0.68242688  0.11441172  0.16717191
   0.81482765  0.20486641  0.21161185
   0.05985535  0.53816841  0.25597893
   0.56224995  0.70568905  0.47862351
   0.43449645  0.78777133  0.12451324
   0.56892921  0.37422474  0.30038476
   0.43349024  0.95253230  0.34510946
   0.18514842  0.95839568  0.69962630
   0.43188584  0.61375090  0.16664547
   0.94018011  0.45554923  0.21198923
   0.06187003  0.53119728  0.12429048
   0.81171313  0.37170086  0.52136495
   0.94435280  0.62460625  0.30013049
   0.30921098  0.03800881  0.25590113
   0.68362114  0.78817743  0.61083337
   0.19149236  0.46335807  0.83325778
   0.43221532  0.11260195  0.16669691
   0.31160878  0.37138281  0.52133304
   0.43373420  0.62159143  0.78847388
   0.05899286  0.03845296  0.25609736
   0.56187894  0.70691580  0.56548994
   0.93991735  0.28933185  0.74398548
   0.68338752  0.12196410  0.78839431
   0.18964263  0.45504908  0.21160535
   0.94127800  0.78769841  0.38904375
   0.68605994  0.29811318  0.87580356
   0.55566992  0.86492863  0.16668415
   0.43541757  0.45791556  0.69955184
   0.93398914  0.95153438  0.34490360
   0.68635353  0.62137539  0.52130302
   0.06648180  0.87475685  0.65487858
   0.06035678  0.87318511  0.78826176
   0.06653933  0.37489634  0.65489291
   0.68719423  0.45561152  0.47862777
   0.18437087  0.78940061  0.25597308
   0.43714457  0.12036240  0.43443182
   0.81352857  0.03156282  0.12431764
   0.93652187  0.62144758  0.52140791
   0.44140861  0.12480087  0.65487956
   0.81274283  0.53076902  0.12433188
   0.43374775  0.45251531  0.34509851
   0.80896860  0.20264455  0.34507334
   0.30880394  0.70231645  0.34497306
   0.69132277  0.12489539  0.65491619
   0.56922930  0.87447149  0.30051691
   0.06549945  0.53982116  0.74399972
   0.94040621  0.95544997  0.21161721
   0.81657896  0.70539062  0.21176102
   0.06917752  0.87444030  0.30045448
   0.19451341  0.12458439  0.30045438
   0.05847333  0.70223592  0.34498868
   0.80878106  0.03784890  0.61089232
   0.06249037  0.37082526  0.43443012
   0.55892540  0.20272991  0.34499038
   0.81943766  0.37442812  0.30028632
   0.55945209  0.03880378  0.25590674
   0.56635407  0.53755256  0.38908181
   0.06254430  0.20578901  0.47867392
   0.31137383  0.87173453  0.78807816
   0.93524877  0.95834688  0.69958549
   0.06895626  0.37490221  0.30033038
   0.69141312  0.62501312  0.65494391
   0.68697156  0.45707186  0.56542226
   0.43984287  0.95680613  0.21225405
   0.31225709  0.20570880  0.47867869
   0.81316801  0.53809416  0.87560395
   0.68760473  0.62036599  0.43445455
   0.81054118  0.20765505  0.69966244
   0.81229660  0.70561389  0.47866045
   0.81171920  0.87066361  0.43425468
   0.93724559  0.95526102  0.47871750
   0.56220054  0.20578096  0.47864938
   0.18696196  0.62023129  0.43440642
   0.31522175  0.04082201  0.74390624
   0.94157178  0.62521101  0.65487508
   0.56631965  0.71264397  0.83305381
   0.31964162  0.37355730  0.30036892
   0.56506594  0.70463150  0.21172588
   0.18713937  0.45553709  0.47869963
   0.31448319  0.04027915  0.87563493
   0.18480242  0.45808252  0.69959678
   0.56152336  0.37139393  0.52130561
   0.19129278  0.28767828  0.38904874
   0.31545056  0.20568892  0.21158880
   0.06679265  0.70560438  0.21168329
   0.56216810  0.37041982  0.43443075
   0.43655385  0.62152454  0.52136497
   0.81669071  0.71404070  0.83300224
   0.06135492  0.37332322  0.78810446
   0.43670170  0.29666241  0.87602108
   0.31127110  0.03162989  0.12440431
   0.68748716  0.11992141  0.43438997
   0.18380542  0.95256927  0.34507940
   0.06677193  0.21377508  0.83365186
   0.55890175  0.03817244  0.61094739
   0.68966104  0.45578339  0.21204457
   0.19063777  0.78997470  0.74417462
   0.19410605  0.62470878  0.30044150
   0.44134778  0.78763995  0.38907926
   0.43382660  0.28953095  0.25612849
   0.06485347  0.53871463  0.87556503
   0.56597913  0.04053153  0.74389616
   0.18735192  0.79545323  0.87570977
   0.93725882  0.45567639  0.47864217
   0.56579228  0.54075328  0.74391903
   0.81132427  0.20672143  0.56546503
   0.43737298  0.62014606  0.43446426
   0.06700536  0.53808956  0.38911404
   0.06051545  0.70780515  0.69954932
   0.30848941  0.53843333  0.25570960
   0.31516195  0.70388940  0.21234171
   0.30520602  0.86525604  0.16609218
   0.18527167  0.62013628  0.78778682
   0.81752098  0.03890916  0.38927161
   0.93489699  0.29645016  0.87527849
   0.93716107  0.79393437  0.87525799
   0.06574811  0.03747008  0.87543096
   0.56294944  0.53017426  0.12483440
   0.80501711  0.36634486  0.16642994
   0.06189765  0.87085495  0.43444354
   0.93652227  0.12125255  0.52140624
   0.19214460  0.78784562  0.38904072
   0.31570454  0.53998761  0.74418755
Direct configuration=     2
   0.06171395  0.03157511  0.12440941
   0.31616523  0.87485112  0.65486559
   0.18521286  0.12182079  0.78825057
   0.44137472  0.28776842  0.38917284
   0.31720106  0.71206156  0.83295226
   0.81750279  0.21351966  0.83334512
   0.19087691  0.96234677  0.83333229
   0.56214735  0.20699729  0.56553019
   0.06527085  0.03984695  0.74393457
   0.81140405  0.87148616  0.52141827
   0.19054007  0.29075822  0.74408519
   0.93418456  0.45260575  0.34494913
   0.94087410  0.28680531  0.38904455
   0.81301954  0.04031709  0.87541740
   0.18390391  0.78825242  0.61078735
   0.56615178  0.03780110  0.38914933
   0.94184105  0.96287602  0.83360609
   0.31413391  0.53966740  0.87577133
   0.69019284  0.29028333  0.74397250
   0.18262010  0.61440056  0.16669084
   0.81207661  0.20558087  0.47862677
   0.80903421  0.53797819  0.61084808
   0.31223740  0.87026343  0.43446916
   0.80959455  0.03828490  0.25613634
   0.68410540  0.95202504  0.34490295
   0.93148082  0.11505595  0.16711611
   0.06175887  0.87148877  0.52143160
   0.55915951  0.53845798  0.25611470
   0.68481449  0.79552823  0.87546261
   0.55655981  0.36588921  0.16670482
   0.43967292  0.79069216  0.74404883
   0.81160988  0.70667239  0.56551726
   0.56022070  0.87294378  0.78830979
   0.68653288  0.12153093  0.52141612
   0.81603150  0.37483712  0.65493114
   0.94131465  0.46254280  0.83355310
   0.06053062  0.20794878  0.69952038
   0.43536239  0.95784783  0.69954275
   0.31638724  0.21151680  0.83338912
   0.44103501  0.62475094  0.65485484
   0.30908214  0.53811194  0.61080491
   0.93677327  0.45665918  0.56557048
   0.68995354  0.79094605  0.74401312
   0.93368603  0.78770583  0.12473247
   0.69153835  0.78767072  0.38913188
   0.94034978  0.79010331  0.74410306
   0.05932690  0.20321192  0.34500493
   0.68407596  0.45271870  0.34510635
   0.43553636  0.12128677  0.78859656
   0.06447115  0.20502211  0.21160116
   0.05558395  0.36591365  0.16676067
   0.93403840  0.78870271  0.25589332
   0.56056647  0.20764322  0.69958705
   0.68537159  0.95796906  0.69964119
   0.81056813  0.87296547  0.78823249
   0.43687048  0.95699684  0.56547186
   0.81093548  0.37325413  0.78815060
   0.68445421  0.28938022  0.25608996
   0.18720348  0.45699892  0.56554579
   0.05616978  0.86586864  0.16675232
   0.18409948  0.28813888  0.61083886
   0.06218654  0.20708704  0.56542490
   0.31073969  0.20787163  0.69954556
   0.56370830  0.53979380  0.87560079
   0.06172640  0.70637248  0.56554501
   0.68506478  0.62188310  0.78819920
   0.31603750  0.53774347  0.38912181
   0.18681243  0.62160674  0.52147811
   0.56237689  0.87055929  0.43444457
   0.43697883  0.45710095  0.56549721
   0.43974692  0.29083248  0.74398375
   0.81879512  0.87461648  0.30038133
   0.80915623  0.70282090  0.34506698
   0.44163545  0.46194407  0.83322738
   0.68742237  0.95552238  0.47858600
   0.68523988  0.45779842  0.69958613
   0.56183513  0.87190282  0.52144174
   0.56612136  0.37479077  0.65488555
   0.81604794  0.87470736  0.65491866
   0.81191785  0.37137154  0.43424664
   0.80923768  0.53840441  0.25625071
   0.69176223  0.46112047  0.83311007
   0.18585041  0.78778066  0.12431997
   0.69097669  0.28740774  0.38915556
   0.31598237  0.37463272  0.65488131
   0.30940347  0.20290364  0.34499663
   0.81529756  0.54002295  0.74395728
   0.69136342  0.96153691  0.83318925
   0.56580443  0.87444973  0.65490452
   0.31180383  0.70680606  0.56546470
   0.31199756  0.53203522  0.12431424
   0.68942316  0.95567046  0.21193992
   0.31149463  0.20654735  0.56550630
   0.18726880  0.95561686  0.47862055
   0.68731567  0.95703162  0.56554206
   0.43401102  0.78809636  0.61082597
   0.68248386  0.61280707  0.16671617
   0.31854197  0.87416078  0.30026629
   0.31223495  0.70544362  0.47856395
   0.93399824  0.28796315  0.61082273
   0.44439371  0.62454225  0.30045317
   0.80695266  0.86460558  0.16713263
   0.56604157  0.20355875  0.21180854
   0.93310922  0.61346127  0.16685209
   0.43727958  0.95546642  0.47859296
   0.56040513  0.37205504  0.78831738
   0.06142023  0.37213378  0.52144704
   0.30701074  0.36487219  0.16680524
   0.69423801  0.12406810  0.30041488
   0.44247323  0.96148588  0.83325267
   0.18472129  0.28703672  0.12456031
   0.18459424  0.28919638  0.25609872
   0.31221792  0.37041097  0.43441607
   0.56201485  0.03287440  0.12457665
   0.43397480  0.28803732  0.61080127
   0.18433592  0.45304715  0.34512017
   0.43438044  0.28675638  0.12462703
   0.68433018  0.78917379  0.25609039
   0.43664109  0.12160910  0.52141560
   0.18864903  0.29340091  0.87574962
   0.19101301  0.12476512  0.65496185
   0.94107617  0.12475719  0.65492399
   0.81606110  0.53746433  0.38912621
   0.06620816  0.03778752  0.38915300
   0.18308872  0.11282523  0.16663351
   0.05902424  0.53803266  0.61081396
   0.93467868  0.28923610  0.25609352
   0.55900660  0.53807555  0.61079087
   0.93683887  0.95712955  0.56548913
   0.69348603  0.62467497  0.30035424
   0.93758114  0.62058401  0.43443888
   0.93435600  0.62351891  0.78799451
   0.56054821  0.70754141  0.69956653
   0.06591690  0.71478129  0.83367273
   0.94411877  0.12379331  0.30032557
   0.93400863  0.78776287  0.61084602
   0.43426512  0.78944625  0.25610878
   0.31043672  0.37232024  0.78815158
   0.43969549  0.45542824  0.21186980
   0.18672732  0.12160600  0.52143872
   0.81057938  0.70774931  0.69955746
   0.05899202  0.03805109  0.61075655
   0.56579496  0.21251119  0.83305791
   0.31164396  0.87156728  0.52144771
   0.68613360  0.28697850  0.12439473
   0.18951728  0.95627916  0.21203028
   0.68385519  0.28818179  0.61079551
   0.30892003  0.03802723  0.61085574
   0.93504755  0.12291669  0.78832365
   0.43710981  0.79521921  0.87570254
   0.81531938  0.04047930  0.74384187
   0.93504401  0.45788321  0.69953898
   0.19110261  0.62472773  0.65491200
   0.31052458  0.70767842  0.69956669
   0.93432133  0.28663614  0.12444998
   0.43727400  0.45546033  0.47852737
   0.06223707  0.70539889  0.47854994
   0.93715723  0.12029095  0.43460853
   0.44352079  0.12440109  0.30042463
   0.18762965  0.12020890  0.43433488
   0.56364738  0.03967764  0.87576109
   0.18694725  0.95714852  0.56551948
   0.68439845  0.78794053  0.12481005
   0.55947990  0.70291498  0.34506918
   0.31601522  0.03714592  0.38911970
   0.68276053  0.11469675  0.16712445
   0.81468641  0.20472753  0.21166037
   0.06007204  0.53822444  0.25597780
   0.56223898  0.70552382  0.47854786
   0.43445381  0.78721574  0.12452685
   0.56839527  0.37400954  0.30037869
   0.43402367  0.95271115  0.34510732
   0.18540056  0.95832524  0.69961387
   0.43216686  0.61416063  0.16665444
   0.93993203  0.45543051  0.21200283
   0.06166460  0.53153661  0.12435528
   0.81172528  0.37188236  0.52142675
   0.94382172  0.62441974  0.30015231
   0.30958964  0.03808432  0.25592419
   0.68396041  0.78828151  0.61076867
   0.19130661  0.46302783  0.83332444
   0.43256576  0.11305823  0.16673228
   0.31161593  0.37160768  0.52140481
   0.43432569  0.62192569  0.78842456
   0.05931301  0.03845372  0.25608485
   0.56184211  0.70679471  0.56552571
   0.93975627  0.28945539  0.74397946
   0.68387039  0.12228833  0.78831944
   0.18930805  0.45498437  0.21163967
   0.94093146  0.78761572  0.38911597
   0.68621075  0.29715085  0.87574563
   0.55591718  0.86516743  0.16668331
   0.43564483  0.45779961  0.69954698
   0.93452670  0.95192912  0.34493702
   0.68635953  0.62158950  0.52137173
   0.06607776  0.87462806  0.65488079
   0.06055393  0.87326854  0.78823521
   0.06611520  0.37474357  0.65488985
   0.68718656  0.45538309  0.47853987
   0.18466611  0.78930172  0.25600434
   0.43720012  0.12051439  0.43441224
   0.81313345  0.03205138  0.12441187
   0.93651387  0.62162621  0.52146345
   0.44103679  0.12468284  0.65487892
   0.81263141  0.53132184  0.12435215
   0.43429238  0.45274707  0.34509534
   0.80942220  0.20281213  0.34507435
   0.30934210  0.70256331  0.34498799
   0.69092657  0.12476882  0.65491076
   0.56868747  0.87424461  0.30049644
   0.06516024  0.53987866  0.74396845
   0.94017567  0.95542397  0.21167095
   0.81615280  0.70516683  0.21179232
   0.06860101  0.87421134  0.30045776
   0.19390321  0.12440746  0.30042645
   0.05903712  0.70249688  0.34500183
   0.80912101  0.03804189  0.61081234
   0.06249220  0.37086007  0.43438838
   0.55944265  0.20284428  0.34501393
   0.81884153  0.37426292  0.30029401
   0.55984833  0.03883917  0.25594273
   0.56599078  0.53753331  0.38915785
   0.06250876  0.20560495  0.47860904
   0.31152481  0.87187087  0.78804806
   0.93549914  0.95820393  0.69957448
   0.06850433  0.37463659  0.30033815
   0.69101054  0.62489305  0.65493453
   0.68692728  0.45691143  0.56547075
   0.43964548  0.95656023  0.21222468
   0.31226285  0.20548696  0.47859312
   0.81317318  0.53905861  0.87554326
   0.68759917  0.62040967  0.43441257
   0.81074525  0.20761617  0.69964780
   0.81231320  0.70546152  0.47857871
   0.81175219  0.87070128  0.43425038
   0.93722850  0.95515010  0.47864270
   0.56222679  0.20554146  0.47856968
   0.18708752  0.62032059  0.43439081
   0.31498240  0.04090429  0.74391274
   0.94115990  0.62506680  0.65487473
   0.56612819  0.71232854  0.83309496
   0.31900571  0.37349015  0.30038362
   0.56488706  0.70458308  0.21174539
   0.18719026  0.45539220  0.47861731
   0.31460204  0.04104524  0.87557386
   0.18508005  0.45798336  0.69957919
   0.56160442  0.37162547  0.52137639
   0.19096840  0.28768800  0.38913611
   0.31516608  0.20548490  0.21162437
   0.06630390  0.70536752  0.21169403
   0.56218726  0.37049134  0.43441027
   0.43660445  0.62172343  0.52142117
   0.81649786  0.71365354  0.83302562
   0.06144307  0.37334451  0.78809627
   0.43682525  0.29600646  0.87593614
   0.31122143  0.03206548  0.12438747
   0.68748401  0.12016672  0.43436703
   0.18428025  0.95273718  0.34507781
   0.06645563  0.21329847  0.83359671
   0.55918538  0.03830740  0.61086056
   0.68940290  0.45558887  0.21203940
   0.19031318  0.79010581  0.74413565
   0.19357677  0.62441302  0.30043270
   0.44112006  0.78758337  0.38915096
   0.43426984  0.28928731  0.25611526
   0.06500915  0.53946109  0.87553629
   0.56575117  0.04061366  0.74391735
   0.18753291  0.79488988  0.87569051
   0.93723163  0.45540210  0.47856752
   0.56558551  0.54077898  0.74391443
   0.81136715  0.20667389  0.56550646
   0.43734581  0.62022266  0.43443366
   0.06670501  0.53809686  0.38919249
   0.06074868  0.70774970  0.69954847
   0.30887597  0.53837645  0.25576170
   0.31498962  0.70396305  0.21230260
   0.30551904  0.86543019  0.16610709
   0.18541981  0.62070035  0.78781650
   0.81718895  0.03874757  0.38930873
   0.93514145  0.29590674  0.87531350
   0.93713511  0.79337717  0.87527981
   0.06574362  0.03829966  0.87540546
   0.56275361  0.53068587  0.12485171
   0.80539867  0.36638318  0.16637686
   0.06189129  0.87090729  0.43441325
   0.93658105  0.12153620  0.52143846
   0.19182133  0.78767158  0.38908174
   0.31553032  0.54005358  0.74414083
Direct configuration=     3
   0.06128766  0.03285760  0.12460775
   0.31486775  0.87445950  0.65486313
   0.18610253  0.12283281  0.78815695
   0.44070335  0.28784821  0.38941140
   0.31581018  0.71117395  0.83319548
   0.81663515  0.21236858  0.83337767
   0.18990507  0.96162766  0.83346292
   0.56183539  0.20648597  0.56563356
   0.06428148  0.04026432  0.74393130
   0.81116947  0.87193957  0.52168404
   0.18942763  0.29067293  0.74402350
   0.93563507  0.45348946  0.34500721
   0.94001022  0.28733807  0.38930000
   0.81261164  0.04257521  0.87531637
   0.18491263  0.78862098  0.61055901
   0.56516806  0.03795990  0.38936950
   0.94167559  0.96209068  0.83355890
   0.31383475  0.54191516  0.87550037
   0.68949787  0.29039782  0.74398096
   0.18369522  0.61580440  0.16663659
   0.81206132  0.20539576  0.47840538
   0.80986890  0.53850083  0.61062201
   0.31262215  0.87068180  0.43440212
   0.81076244  0.03828053  0.25611839
   0.68559769  0.95322616  0.34498188
   0.93248120  0.11598592  0.16690592
   0.06217354  0.87204803  0.52162103
   0.56051957  0.53854580  0.25607813
   0.68595237  0.79385306  0.87539609
   0.55756601  0.36645125  0.16657944
   0.43914154  0.79094461  0.74402730
   0.81169064  0.70644580  0.56561932
   0.56132155  0.87309069  0.78814993
   0.68638233  0.12188288  0.52161610
   0.81492211  0.37450034  0.65494779
   0.94107663  0.46189364  0.83351474
   0.06114677  0.20776979  0.69952984
   0.43608854  0.95751374  0.69953348
   0.31547065  0.21067726  0.83354400
   0.43979775  0.62442335  0.65485143
   0.31005631  0.53862729  0.61057322
   0.93679162  0.45616190  0.56568407
   0.68949623  0.79102230  0.74403715
   0.93371413  0.78572910  0.12491259
   0.69067047  0.78767650  0.38933781
   0.93971418  0.79046400  0.74404816
   0.06089987  0.20388756  0.34500425
   0.68585090  0.45336458  0.34509028
   0.43622617  0.12270768  0.78837803
   0.06376829  0.20452700  0.21167874
   0.05651836  0.36631815  0.16659503
   0.93528493  0.78874073  0.25594565
   0.56121061  0.20747491  0.69957008
   0.68612496  0.95749458  0.69962788
   0.81107160  0.87357178  0.78810405
   0.43685201  0.95653364  0.56564279
   0.81140825  0.37328036  0.78803192
   0.68553836  0.28865882  0.25612607
   0.18695313  0.45642132  0.56566195
   0.05756862  0.86668040  0.16662247
   0.18512608  0.28871212  0.61064595
   0.06194013  0.20653959  0.56558992
   0.31138521  0.20772327  0.69958814
   0.56405105  0.54244880  0.87534505
   0.06169649  0.70617961  0.56564117
   0.68574939  0.62295712  0.78809303
   0.31521046  0.53770627  0.38937625
   0.18706580  0.62228096  0.52164912
   0.56235302  0.87101977  0.43434155
   0.43683722  0.45650273  0.56563825
   0.43938224  0.29091550  0.74396449
   0.81699169  0.87385080  0.30029238
   0.81068527  0.70310571  0.34509168
   0.44087976  0.46092510  0.83344725
   0.68744782  0.95512410  0.47836622
   0.68603835  0.45748422  0.69959178
   0.56188452  0.87190980  0.52161708
   0.56496500  0.37431904  0.65485015
   0.81484825  0.87432478  0.65492065
   0.81194915  0.37108594  0.43421098
   0.81047375  0.53821118  0.25619098
   0.69124986  0.46090160  0.83331609
   0.18540331  0.78560308  0.12445856
   0.69004251  0.28748137  0.38935844
   0.31465130  0.37429711  0.65483662
   0.31091636  0.20341498  0.34507822
   0.81455658  0.54024103  0.74388068
   0.69101231  0.96108077  0.83344405
   0.56472026  0.87430152  0.65489901
   0.31180533  0.70649419  0.56561896
   0.31108213  0.53350256  0.12448927
   0.68873683  0.95495492  0.21195318
   0.31173165  0.20646118  0.56562580
   0.18730358  0.95527312  0.47840269
   0.68716507  0.95653147  0.56567525
   0.43494234  0.78860888  0.61056788
   0.68256437  0.61432509  0.16674121
   0.31696080  0.87343781  0.30030175
   0.31217595  0.70487876  0.47831452
   0.93497936  0.28844473  0.61059726
   0.44222475  0.62359451  0.30045873
   0.80738074  0.86542509  0.16690819
   0.56481104  0.20370990  0.21195038
   0.93385309  0.61471079  0.16684728
   0.43723777  0.95514938  0.47839724
   0.56111014  0.37244802  0.78817107
   0.06159608  0.37246324  0.52162364
   0.30764048  0.36566795  0.16657685
   0.69227050  0.12360468  0.30041727
   0.44159233  0.96077979  0.83345806
   0.18485613  0.28531954  0.12478421
   0.18562010  0.28817632  0.25610293
   0.31266346  0.37074715  0.43433734
   0.56137319  0.03355821  0.12469145
   0.43487703  0.28862618  0.61057522
   0.18577459  0.45364870  0.34511627
   0.43381991  0.28497448  0.12479581
   0.68555072  0.78872995  0.25612580
   0.43671351  0.12228779  0.52159483
   0.18906796  0.29233970  0.87566396
   0.18981688  0.12436720  0.65496956
   0.93989953  0.12430804  0.65490374
   0.81525549  0.53748774  0.38932215
   0.06540293  0.03808317  0.38935242
   0.18313359  0.11451587  0.16672733
   0.06000548  0.53845917  0.61058053
   0.93571986  0.28846718  0.25607676
   0.55996008  0.53865802  0.61055503
   0.93684819  0.95629925  0.56564033
   0.69198754  0.62393930  0.30043929
   0.93762643  0.62083477  0.43432299
   0.93510319  0.62448049  0.78799158
   0.56107906  0.70717386  0.69954802
   0.06524463  0.71326821  0.83357607
   0.94211116  0.12357967  0.30034423
   0.93488865  0.78832653  0.61064436
   0.43568902  0.78898251  0.25616710
   0.31135913  0.37213511  0.78809885
   0.43938308  0.45478134  0.21189655
   0.18690482  0.12202859  0.52162323
   0.81122716  0.70756538  0.69958183
   0.05981894  0.03866830  0.61053321
   0.56515932  0.21132880  0.83318057
   0.31170465  0.87185939  0.52163961
   0.68594076  0.28486288  0.12459933
   0.18865225  0.95593439  0.21198600
   0.68474258  0.28873527  0.61061792
   0.30990696  0.03849926  0.61061951
   0.93579198  0.12381247  0.78820270
   0.43758425  0.79338040  0.87552263
   0.81458223  0.04066450  0.74388264
   0.93586764  0.45738948  0.69949359
   0.18988410  0.62439614  0.65490541
   0.31121562  0.70753376  0.69954240
   0.93426413  0.28482033  0.12464554
   0.43715134  0.45496183  0.47827961
   0.06228980  0.70462115  0.47835032
   0.93724276  0.12072694  0.43457759
   0.44221081  0.12352352  0.30041387
   0.18771954  0.12053262  0.43422110
   0.56420724  0.04202918  0.87552600
   0.18663592  0.95657551  0.56566792
   0.68486585  0.78615507  0.12499895
   0.56084913  0.70342081  0.34511815
   0.31529112  0.03752283  0.38936622
   0.68376148  0.11555184  0.16698207
   0.81426271  0.20431089  0.21180593
   0.06072210  0.53839253  0.25597442
   0.56220608  0.70502811  0.47832089
   0.43432588  0.78554895  0.12456768
   0.56679346  0.37336395  0.30036045
   0.43562397  0.95324769  0.34510091
   0.18615697  0.95811391  0.69957657
   0.43300991  0.61538984  0.16668134
   0.93918777  0.45507435  0.21204364
   0.06104831  0.53255462  0.12454966
   0.81176173  0.37242686  0.52161215
   0.94222847  0.62386020  0.30021777
   0.31072562  0.03831082  0.25599338
   0.68497825  0.78859374  0.61057456
   0.19074935  0.46203713  0.83352441
   0.43361707  0.11442706  0.16683836
   0.31163736  0.37228232  0.52162014
   0.43610017  0.62292845  0.78827661
   0.06027348  0.03845600  0.25604730
   0.56173160  0.70643146  0.56563302
   0.93927306  0.28982601  0.74396143
   0.68531901  0.12326104  0.78809480
   0.18830432  0.45479024  0.21174266
   0.93989182  0.78736764  0.38933262
   0.68666318  0.29426387  0.87557182
   0.55665896  0.86588384  0.16668078
   0.43632662  0.45745178  0.69953242
   0.93613938  0.95311335  0.34503728
   0.68637752  0.62223182  0.52157786
   0.06486566  0.87424169  0.65488743
   0.06114539  0.87351881  0.78815556
   0.06484282  0.37428528  0.65488069
   0.68716353  0.45469781  0.47827618
   0.18555182  0.78900504  0.25609811
   0.43736677  0.12097034  0.43435349
   0.81194809  0.03351706  0.12469454
   0.93648986  0.62216208  0.52163007
   0.43992134  0.12432875  0.65487699
   0.81229715  0.53298031  0.12441297
   0.43592627  0.45344238  0.34508586