 288 288   0   0
  0.1280206E+02  0.9726678E-09  0.8423550E-09  0.4500000E-08  0.2500000E-15
  1.000000000000000E-004
  CAR 
 unknown system                          
      6.75666845     -6.05900568  301      4.29900423      1.00000000
     -6.059  0.0000E+00  0.0000E+00
     -6.016  0.0000E+00  0.0000E+00
     -5.974  0.0000E+00  0.0000E+00
     -5.931  0.0000E+00  0.0000E+00
     -5.888  0.0000E+00  0.0000E+00
     -5.845  0.0000E+00  0.0000E+00
     -5.803  0.0000E+00  0.0000E+00
     -5.760  0.0000E+00  0.0000E+00
     -5.717  0.0000E+00  0.0000E+00
     -5.675  0.0000E+00  0.0000E+00
     -5.632  0.0000E+00  0.0000E+00
     -5.589  0.0000E+00  0.0000E+00
     -5.546  0.0000E+00  0.0000E+00
     -5.504  0.0000E+00  0.0000E+00
     -5.461  0.0000E+00  0.0000E+00
     -5.418  0.1624E-15  0.6939E-17
     -5.376  0.3866E-14  0.1721E-15
     -5.333  0.8326E-13  0.3729E-14
     -5.290  0.1518E-11  0.6859E-13
     -5.247  0.2359E-10  0.1076E-11
     -5.205  0.3122E-09  0.1441E-10
     -5.162  0.3520E-08  0.1648E-09
     -5.119  0.3383E-07  0.1610E-08
     -5.076  0.2772E-06  0.1345E-07
     -5.034  0.1937E-05  0.9621E-07
     -4.991  0.1156E-04  0.5901E-06
     -4.948  0.5901E-04  0.3111E-05
     -4.906  0.2580E-03  0.1413E-04
     -4.863  0.9700E-03  0.5557E-04
     -4.820  0.3149E-02  0.1901E-03
     -4.777  0.8885E-02  0.5697E-03
     -4.735  0.2200E-01  0.1509E-02
     -4.692  0.4832E-01  0.3574E-02
     -4.649  0.9544E-01  0.7651E-02
     -4.607  0.1717E+00  0.1499E-01
     -4.564  0.2845E+00  0.2714E-01
     -4.521  0.4377E+00  0.4584E-01
     -4.478  0.6291E+00  0.7271E-01
     -4.436  0.8486E+00  0.1090E+00
     -4.393  0.1079E+01  0.1551E+00
     -4.350  0.1300E+01  0.2106E+00
     -4.308  0.1490E+01  0.2742E+00
     -4.265  0.1636E+01  0.3441E+00
     -4.222  0.1739E+01  0.4184E+00
     -4.179  0.1813E+01  0.4959E+00
     -4.137  0.1885E+01  0.5764E+00
     -4.094  0.1982E+01  0.6611E+00
     -4.051  0.2126E+01  0.7519E+00
     -4.008  0.2323E+01  0.8511E+00
     -3.966  0.2556E+01  0.9603E+00
     -3.923  0.2792E+01  0.1080E+01
     -3.880  0.2992E+01  0.1207E+01
     -3.838  0.3121E+01  0.1341E+01
     -3.795  0.3168E+01  0.1476E+01
     -3.752  0.3147E+01  0.1611E+01
     -3.709  0.3097E+01  0.1743E+01
     -3.667  0.3068E+01  0.1874E+01
     -3.624  0.3100E+01  0.2006E+01
     -3.581  0.3213E+01  0.2144E+01
     -3.539  0.3399E+01  0.2289E+01
     -3.496  0.3623E+01  0.2444E+01
     -3.453  0.3846E+01  0.2608E+01
     -3.410  0.4026E+01  0.2780E+01
     -3.368  0.4140E+01  0.2957E+01
     -3.325  0.4187E+01  0.3136E+01
     -3.282  0.4186E+01  0.3314E+01
     -3.240  0.4173E+01  0.3493E+01
     -3.197  0.4190E+01  0.3672E+01
     -3.154  0.4269E+01  0.3854E+01
     -3.111  0.4423E+01  0.4043E+01
     -3.069  0.4636E+01  0.4241E+01
     -3.026  0.4874E+01  0.4449E+01
     -2.983  0.5094E+01  0.4667E+01
     -2.941  0.5256E+01  0.4891E+01
     -2.898  0.5342E+01  0.5119E+01
     -2.855  0.5364E+01  0.5349E+01
     -2.812  0.5366E+01  0.5578E+01
     -2.770  0.5399E+01  0.5809E+01
     -2.727  0.5489E+01  0.6043E+01
     -2.684  0.5610E+01  0.6283E+01
     -2.641  0.5697E+01  0.6526E+01
     -2.599  0.5693E+01  0.6769E+01
     -2.556  0.5600E+01  0.7008E+01
     -2.513  0.5495E+01  0.7243E+01
     -2.471  0.5501E+01  0.7478E+01
     -2.428  0.5719E+01  0.7722E+01
     -2.385  0.6172E+01  0.7986E+01
     -2.342  0.6764E+01  0.8275E+01
     -2.300  0.7308E+01  0.8587E+01
     -2.257  0.7612E+01  0.8912E+01
     -2.214  0.7581E+01  0.9236E+01
     -2.172  0.7287E+01  0.9548E+01
     -2.129  0.6937E+01  0.9844E+01
     -2.086  0.6763E+01  0.1013E+02
     -2.043  0.6901E+01  0.1043E+02
     -2.001  0.7341E+01  0.1074E+02
     -1.958  0.7936E+01  0.1108E+02
     -1.915  0.8485E+01  0.1144E+02
     -1.873  0.8822E+01  0.1182E+02
     -1.830  0.8900E+01  0.1220E+02
     -1.787  0.8807E+01  0.1258E+02
     -1.744  0.8694E+01  0.1295E+02
     -1.702  0.8683E+01  0.1332E+02
     -1.659  0.8808E+01  0.1369E+02
     -1.616  0.9030E+01  0.1408E+02
     -1.574  0.9296E+01  0.1448E+02
     -1.531  0.9573E+01  0.1489E+02
     -1.488  0.9852E+01  0.1531E+02
     -1.445  0.1012E+02  0.1574E+02
     -1.403  0.1035E+02  0.1618E+02
     -1.360  0.1051E+02  0.1663E+02
     -1.317  0.1065E+02  0.1709E+02
     -1.274  0.1088E+02  0.1755E+02
     -1.232  0.1140E+02  0.1804E+02
     -1.189  0.1229E+02  0.1856E+02
     -1.146  0.1343E+02  0.1914E+02
     -1.104  0.1453E+02  0.1976E+02
     -1.061  0.1526E+02  0.2041E+02
     -1.018  0.1552E+02  0.2107E+02
     -0.975  0.1548E+02  0.2173E+02
     -0.933  0.1556E+02  0.2240E+02
     -0.890  0.1615E+02  0.2309E+02
     -0.847  0.1740E+02  0.2383E+02
     -0.805  0.1923E+02  0.2465E+02
     -0.762  0.2150E+02  0.2557E+02
     -0.719  0.2419E+02  0.2661E+02
     -0.676  0.2746E+02  0.2778E+02
     -0.634  0.3142E+02  0.2912E+02
     -0.591  0.3594E+02  0.3066E+02
     -0.548  0.4056E+02  0.3239E+02
     -0.506  0.4469E+02  0.3430E+02
     -0.463  0.4799E+02  0.3635E+02
     -0.420  0.5047E+02  0.3850E+02
     -0.377  0.5238E+02  0.4074E+02
     -0.335  0.5397E+02  0.4305E+02
     -0.292  0.5535E+02  0.4541E+02
     -0.249  0.5645E+02  0.4782E+02
     -0.207  0.5717E+02  0.5026E+02
     -0.164  0.5749E+02  0.5272E+02
     -0.121  0.5757E+02  0.5518E+02
     -0.078  0.5762E+02  0.5764E+02
     -0.036  0.5788E+02  0.6011E+02
      0.007  0.5852E+02  0.6261E+02
      0.050  0.5972E+02  0.6517E+02
      0.093  0.6166E+02  0.6780E+02
      0.135  0.6441E+02  0.7055E+02
      0.178  0.6780E+02  0.7345E+02
      0.221  0.7148E+02  0.7650E+02
      0.263  0.7501E+02  0.7971E+02
      0.306  0.7812E+02  0.8304E+02
      0.349  0.8073E+02  0.8649E+02
      0.392  0.8285E+02  0.9003E+02
      0.434  0.8454E+02  0.9364E+02
      0.477  0.8576E+02  0.9731E+02
      0.520  0.8646E+02  0.1010E+03
      0.562  0.8662E+02  0.1047E+03
      0.605  0.8633E+02  0.1084E+03
      0.648  0.8570E+02  0.1120E+03
      0.691  0.8476E+02  0.1157E+03
      0.733  0.8344E+02  0.1192E+03
      0.776  0.8173E+02  0.1227E+03
      0.819  0.7983E+02  0.1261E+03
      0.861  0.7814E+02  0.1295E+03
      0.904  0.7700E+02  0.1328E+03
      0.947  0.7648E+02  0.1360E+03
      0.990  0.7634E+02  0.1393E+03
      1.032  0.7617E+02  0.1425E+03
      1.075  0.7566E+02  0.1458E+03
      1.118  0.7477E+02  0.1490E+03
      1.160  0.7379E+02  0.1521E+03
      1.203  0.7316E+02  0.1552E+03
      1.246  0.7315E+02  0.1584E+03
      1.289  0.7358E+02  0.1615E+03
      1.331  0.7389E+02  0.1647E+03
      1.374  0.7349E+02  0.1678E+03
      1.417  0.7219E+02  0.1709E+03
      1.460  0.7035E+02  0.1739E+03
      1.502  0.6867E+02  0.1768E+03
      1.545  0.6775E+02  0.1797E+03
      1.588  0.6790E+02  0.1826E+03
      1.630  0.6906E+02  0.1856E+03
      1.673  0.7098E+02  0.1886E+03
      1.716  0.7333E+02  0.1917E+03
      1.759  0.7583E+02  0.1950E+03
      1.801  0.7826E+02  0.1983E+03
      1.844  0.8049E+02  0.2018E+03
      1.887  0.8247E+02  0.2053E+03
      1.929  0.8424E+02  0.2089E+03
      1.972  0.8587E+02  0.2126E+03
      2.015  0.8746E+02  0.2163E+03
      2.058  0.8906E+02  0.2201E+03
      2.100  0.9068E+02  0.2240E+03
      2.143  0.9232E+02  0.2279E+03
      2.186  0.9397E+02  0.2319E+03
      2.228  0.9571E+02  0.2360E+03
      2.271  0.9774E+02  0.2402E+03
      2.314  0.1003E+03  0.2445E+03
      2.357  0.1037E+03  0.2489E+03
      2.399  0.1078E+03  0.2535E+03
      2.442  0.1123E+03  0.2583E+03
      2.485  0.1168E+03  0.2633E+03
      2.527  0.1209E+03  0.2685E+03
      2.570  0.1244E+03  0.2738E+03
      2.613  0.1270E+03  0.2792E+03
      2.656  0.1287E+03  0.2847E+03
      2.698  0.1297E+03  0.2902E+03
      2.741  0.1303E+03  0.2958E+03
      2.784  0.1312E+03  0.3014E+03
      2.827  0.1330E+03  0.3071E+03
      2.869  0.1360E+03  0.3129E+03
      2.912  0.1396E+03  0.3189E+03
      2.955  0.1423E+03  0.3250E+03
      2.997  0.1424E+03  0.3310E+03
      3.040  0.1386E+03  0.3370E+03
      3.083  0.1313E+03  0.3426E+03
      3.126  0.1217E+03  0.3478E+03
      3.168  0.1119E+03  0.3525E+03
      3.211  0.1033E+03  0.3570E+03
      3.254  0.9704E+02  0.3611E+03
      3.296  0.9308E+02  0.3651E+03
      3.339  0.9110E+02  0.3690E+03
      3.382  0.9043E+02  0.3728E+03
      3.425  0.9024E+02  0.3767E+03
      3.467  0.8974E+02  0.3805E+03
      3.510  0.8844E+02  0.3843E+03
      3.553  0.8641E+02  0.3880E+03
      3.595  0.8433E+02  0.3916E+03
      3.638  0.8312E+02  0.3951E+03
      3.681  0.8343E+02  0.3987E+03
      3.724  0.8533E+02  0.4024E+03
      3.766  0.8828E+02  0.4061E+03
      3.809  0.9151E+02  0.4100E+03
      3.852  0.9449E+02  0.4141E+03
      3.895  0.9703E+02  0.4182E+03
      3.937  0.9916E+02  0.4225E+03
      3.980  0.1010E+03  0.4268E+03
      4.023  0.1024E+03  0.4311E+03
      4.065  0.1034E+03  0.4356E+03
      4.108  0.1038E+03  0.4400E+03
      4.151  0.1034E+03  0.4444E+03
      4.194  0.1025E+03  0.4488E+03
      4.236  0.1013E+03  0.4531E+03
      4.279  0.1002E+03  0.4574E+03
      4.322  0.9945E+02  0.4617E+03
      4.364  0.9928E+02  0.4659E+03
      4.407  0.9966E+02  0.4702E+03
      4.450  0.1003E+03  0.4744E+03
      4.493  0.1007E+03  0.4787E+03
      4.535  0.1006E+03  0.4830E+03
      4.578  0.9986E+02  0.4873E+03
      4.621  0.9894E+02  0.4915E+03
      4.663  0.9839E+02  0.4957E+03
      4.706  0.9877E+02  0.4999E+03
      4.749  0.1003E+03  0.5042E+03
      4.792  0.1028E+03  0.5086E+03
      4.834  0.1059E+03  0.5131E+03
      4.877  0.1090E+03  0.5178E+03
      4.920  0.1117E+03  0.5226E+03
      4.962  0.1134E+03  0.5274E+03
      5.005  0.1130E+03  0.5322E+03
      5.048  0.1095E+03  0.5369E+03
      5.091  0.1019E+03  0.5413E+03
      5.133  0.8974E+02  0.5451E+03
      5.176  0.7385E+02  0.5483E+03
      5.219  0.5602E+02  0.5507E+03
      5.262  0.3873E+02  0.5523E+03
      5.304  0.2415E+02  0.5533E+03
      5.347  0.1347E+02  0.5539E+03
      5.390  0.6670E+01  0.5542E+03
      5.432  0.2917E+01  0.5543E+03
      5.475  0.1122E+01  0.5544E+03
      5.518  0.3778E+00  0.5544E+03
      5.561  0.1111E+00  0.5544E+03
      5.603  0.2848E-01  0.5544E+03
      5.646  0.6342E-02  0.5544E+03
      5.689  0.1225E-02  0.5544E+03
      5.731  0.2050E-03  0.5544E+03
      5.774  0.2965E-04  0.5544E+03
      5.817  0.3701E-05  0.5544E+03
      5.860  0.3983E-06  0.5544E+03
      5.902  0.3691E-07  0.5544E+03
      5.945  0.2941E-08  0.5544E+03
      5.988  0.2013E-09  0.5544E+03
      6.030  0.1182E-10  0.5544E+03
      6.073  0.5939E-12  0.5544E+03
      6.116  0.2475E-13  0.5544E+03
      6.159  0.5198E-15  0.5544E+03
      6.201  0.0000E+00  0.5544E+03
      6.244  0.0000E+00  0.5544E+03
      6.287  0.0000E+00  0.5544E+03
      6.329  0.0000E+00  0.5544E+03
      6.372  0.0000E+00  0.5544E+03
      6.415  0.0000E+00  0.5544E+03
      6.458  0.0000E+00  0.5544E+03
      6.500  0.0000E+00  0.5544E+03
      6.543  0.0000E+00  0.5544E+03
      6.586  0.0000E+00  0.5544E+03
      6.629  0.0000E+00  0.5544E+03
      6.671  0.0000E+00  0.5544E+03
      6.714  0.0000E+00  0.5544E+03
      6.757  0.0000E+00  0.5544E+03
