unknown system                          
           1
     9.726678    0.000000    0.000000
     0.000000    8.423550    0.000000
     0.000000    0.000000   45.000000
   Fe   Mn
 281   7
Direct configuration=     1
   0.06299768  0.03180542  0.12489919
   0.06324205  0.87114324  0.52117912
   0.19004399  0.12189860  0.78834315
   0.43383149  0.28821302  0.38907641
   0.30806773  0.71251066  0.83314705
   0.80798164  0.21257434  0.83298556
   0.18374623  0.78831334  0.38906796
   0.56350253  0.20688344  0.56524041
   0.05963201  0.04052699  0.74381995
   0.81356112  0.87141451  0.52129834
   0.18463122  0.29091706  0.74382656
   0.94062409  0.45242868  0.34505487
   0.93371197  0.28800542  0.38908889
   0.81114465  0.03884518  0.87538020
   0.18870965  0.79070340  0.61063065
   0.55834406  0.03732174  0.38906012
   0.93255282  0.96227673  0.83297664
   0.31103539  0.53897773  0.87541374
   0.68472066  0.29067843  0.74384460
   0.19283824  0.61432236  0.16720591
   0.81293444  0.20536296  0.47864586
   0.81362586  0.54041470  0.61065590
   0.31346743  0.86936678  0.43448314
   0.81567483  0.03868010  0.25623096
   0.69068233  0.95322729  0.34520344
   0.94160645  0.11310608  0.16698053
   0.93850174  0.12118081  0.52121825
   0.56583454  0.53901472  0.25625195
   0.68754838  0.79274695  0.87538728
   0.56868974  0.36502896  0.16707714
   0.43458282  0.79066230  0.74389109
   0.81400506  0.70724014  0.56542029
   0.56495444  0.87101115  0.78825270
   0.68845753  0.12132708  0.52124865
   0.81103689  0.37488500  0.65473375
   0.93244600  0.46213830  0.83291164
   0.06375319  0.20779031  0.69963949
   0.43848128  0.95782380  0.69962167
   0.30789447  0.21240867  0.83318862
   0.43539662  0.62503494  0.65476665
   0.31367626  0.54048603  0.61062466
   0.93873406  0.45658436  0.56539015
   0.68509289  0.79105113  0.74393853
   0.94083907  0.78738711  0.12480741
   0.68356609  0.78761241  0.38903003
   0.93488308  0.79069928  0.74384081
   0.06672934  0.20245748  0.34506731
   0.80854301  0.03783549  0.38907691
   0.44053706  0.12175899  0.78838670
   0.06050106  0.20725463  0.21213499
   0.06840333  0.36505372  0.16706631
   0.94157578  0.78868968  0.25623080
   0.56295864  0.20821580  0.69946388
   0.68812418  0.95774864  0.69938335
   0.44100608  0.78714282  0.12482779
   0.43894044  0.95729843  0.56545033
   0.81521794  0.37046468  0.78809529
   0.69153710  0.28868132  0.25623045
   0.18878831  0.45728191  0.56534877
   0.06826346  0.86468731  0.16722371
   0.18850698  0.29035671  0.61060496
   0.56616687  0.70269382  0.34505319
   0.31253671  0.20772028  0.69943480
   0.56100630  0.53872334  0.87538163
   0.06344324  0.70661388  0.56537769
   0.69015802  0.62163178  0.78832707
   0.30857136  0.53771874  0.38908534
   0.18851153  0.62144014  0.52127129
   0.56285820  0.86988093  0.43451005
   0.43873530  0.45707415  0.56537010
   0.43507373  0.29069598  0.74389517
   0.80518363  0.87419912  0.30036567
   0.81653572  0.70260042  0.34522483
   0.43260065  0.46214099  0.83293964
   0.68807470  0.95546654  0.47867916
   0.68759018  0.45790622  0.69950824
   0.56354761  0.87122406  0.52119383
   0.56141704  0.37462055  0.65475972
   0.81083590  0.87454592  0.65483650
   0.81322622  0.36954730  0.43442719
   0.81575832  0.53921127  0.25627323
   0.68258109  0.46201705  0.83294281
   0.19118479  0.78757439  0.12482382
   0.06154838  0.03931537  0.87549978
   0.31145298  0.37432666  0.65461631
   0.31606981  0.20299368  0.34514579
   0.80967713  0.54060762  0.74388684
   0.68257646  0.96208385  0.83292978
   0.56201960  0.87507179  0.65464413
   0.31374882  0.70690301  0.56548214
   0.31316279  0.53247282  0.12479344
   0.68596546  0.95638189  0.21208034
   0.31381745  0.20751508  0.56536522
   0.30972114  0.54025582  0.74396385
   0.68868276  0.95675153  0.56540884
   0.43862203  0.79075205  0.61063706
   0.69272381  0.61308036  0.16728388
   0.30516792  0.87408686  0.30046081
   0.31247061  0.70547898  0.47869128
   0.93843033  0.29005440  0.61056422
   0.43055788  0.62482341  0.30047076
   0.81820564  0.86439888  0.16722473
   0.56085607  0.20698975  0.21215180
   0.94246933  0.61306685  0.16722276
   0.93761756  0.79265739  0.87541466
   0.56506342  0.37079479  0.78812290
   0.06335818  0.37158612  0.52125828
   0.56342912  0.37130900  0.52125486
   0.68004180  0.12426898  0.30050090
   0.43276931  0.96204306  0.83311215
   0.19126362  0.28731750  0.12485631
   0.81501734  0.87094198  0.78819515
   0.31267467  0.37001010  0.43446877
   0.56287979  0.03193219  0.12492546
   0.43828533  0.29072852  0.61062625
   0.19150033  0.45234222  0.34509234
   0.43974742  0.28773815  0.12465172
   0.69096753  0.78833123  0.25637422
   0.43838781  0.12089896  0.52120425
   0.18730795  0.29267395  0.87552310
   0.18697715  0.12353767  0.65472145
   0.93685811  0.12446748  0.65465980
   0.31045791  0.20643307  0.21196820
   0.05854959  0.03741543  0.38898463
   0.19320803  0.11428338  0.16710887
   0.06324577  0.54033409  0.61059401
   0.94153656  0.28863164  0.25629295
   0.56349909  0.54030259  0.61062381
   0.93855051  0.95694980  0.56533519
   0.68053476  0.62490487  0.30046473
   0.93805224  0.61993185  0.43448631
   0.94078220  0.62133968  0.78832199
   0.56255572  0.70786429  0.69952088
   0.05807565  0.71253378  0.83310353
   0.93041900  0.12464922  0.30050080
   0.93831589  0.79013455  0.61062862
   0.44169593  0.78890622  0.25624049
   0.31517841  0.37096379  0.78829183
   0.43614005  0.45690627  0.21228637
   0.18864730  0.12119457  0.52112834
   0.81315310  0.70800913  0.69962918
   0.06367777  0.04041434  0.61064143
   0.55756591  0.21205635  0.83296981
   0.31378970  0.87140214  0.52119306
   0.69116680  0.28716685  0.12485619
   0.18592573  0.95681155  0.21209604
   0.68864227  0.29051381  0.61068257
   0.31365721  0.04032908  0.61056842
   0.93977299  0.12146452  0.78835859
   0.43756948  0.79247812  0.87550305
   0.80964489  0.04068953  0.74378254
   0.93790055  0.45763065  0.69945286
   0.18722466  0.62481172  0.65464779
   0.31245973  0.70827359  0.69935860
   0.93993908  0.28761833  0.12466560
   0.43804295  0.45539536  0.47865632
   0.06311859  0.70514868  0.47866869
   0.93845452  0.11956697  0.43447057
   0.42955237  0.12386372  0.30046361
   0.18798072  0.11968153  0.43456228
   0.56119299  0.03904718  0.87542780
   0.18848216  0.95650743  0.56516175
   0.69076168  0.78742469  0.12482361
   0.56285652  0.53273209  0.12478492
   0.30857046  0.03745282  0.38916007
   0.69332455  0.11438945  0.16722511
   0.81065054  0.20666030  0.21214376
   0.06629105  0.53828294  0.25625599
   0.56285018  0.70542495  0.47862532
   0.06333239  0.20743513  0.56541846
   0.55538342  0.37439436  0.30046065
   0.44100329  0.95280675  0.34506995
   0.18272536  0.96243909  0.83294759
   0.44269238  0.61286242  0.16724258
   0.93629686  0.45659766  0.21222313
   0.06247599  0.53279467  0.12475041
   0.81335546  0.37117021  0.52125350
   0.93012871  0.62442861  0.30055509
   0.31555187  0.04002262  0.25626138
   0.68861231  0.79047933  0.61067331
   0.18231990  0.46257502  0.83282967
   0.44206320  0.11379882  0.16698941
   0.31358460  0.37136365  0.52125891
   0.44017677  0.62171672  0.78834724
   0.06615905  0.03946519  0.25615837
   0.56402857  0.70694742  0.56531942
   0.93506694  0.29061914  0.74387619
   0.69032276  0.12181872  0.78831041
   0.18495913  0.45679732  0.21227628
   0.93350496  0.78773706  0.38910026
   0.68785082  0.29319875  0.87544725
   0.31824857  0.86427208  0.16725277
   0.43800312  0.45796887  0.69949301
   0.94168913  0.95261977  0.34511937
   0.68846755  0.62132675  0.52130392
   0.06206149  0.87513860  0.65464562
   0.06537455  0.87100005  0.78825797
   0.06050620  0.37461388  0.65481810
   0.68821574  0.45533500  0.47863820
   0.19090408  0.78864927  0.25618761
   0.43783547  0.11980717  0.43446797
   0.81310710  0.03261169  0.12463236
   0.93845435  0.62113827  0.52129681
   0.06303017  0.86942042  0.43453321
   0.81325682  0.53245595  0.12483754
   0.44150565  0.45259310  0.34507377
   0.81645177  0.20251552  0.34508879
   0.31645341  0.70233328  0.34507541
   0.68715858  0.12508033  0.65470449
   0.55452543  0.87401305  0.30038854
   0.05982172  0.54076514  0.74381762
   0.93472527  0.95663510  0.21206311
   0.81012323  0.70672998  0.21181495
   0.05481649  0.87378007  0.30037920
   0.17970552  0.12369746  0.30038793
   0.06632165  0.70261487  0.34510374
   0.81353419  0.04064809  0.61064521
   0.06362427  0.36934474  0.43448358
   0.56648900  0.20251824  0.34510439
   0.80500065  0.37434544  0.30045017
   0.43803084  0.95529012  0.47861365
   0.55841770  0.53723389  0.38902921
   0.06274040  0.20569497  0.47862197
   0.31516539  0.87160885  0.78829242
   0.93799797  0.95789641  0.69950546
   0.05463340  0.37421240  0.30054187
   0.68690814  0.62450894  0.65469395
   0.68825136  0.45701962  0.56540647
   0.43523615  0.95690070  0.21208209
   0.31280844  0.20580832  0.47863219
   0.43646729  0.12432095  0.65474817
   0.68820546  0.62008094  0.43449159
   0.81316337  0.20824245  0.69945174
   0.81295269  0.70534178  0.47864625
   0.81318577  0.86958584  0.43446018
   0.93783261  0.95583256  0.47863717
   0.56274012  0.20549061  0.47863438
   0.18811785  0.61962803  0.43443455
   0.30989905  0.04045938  0.74384044
   0.93655686  0.62439370  0.65461031
   0.55807024  0.71272413  0.83312093
   0.30481104  0.37449213  0.30045466
   0.56019487  0.70599796  0.21184301
   0.18800483  0.45555618  0.47863280
   0.31093325  0.03862781  0.87546182
   0.18767101  0.45794414  0.69944024
   0.81110441  0.53870341  0.87536435
   0.18407515  0.28782751  0.38915042
   0.43798447  0.62017331  0.43446111
   0.06000936  0.70627158  0.21192337
   0.56356717  0.36928142  0.43456545
   0.43836657  0.62137114  0.52125559
   0.80791871  0.71238858  0.83302181
   0.06509188  0.37079192  0.78822869
   0.43754031  0.29250275  0.87544202
   0.31275890  0.03249247  0.12466840
   0.68798875  0.12006828  0.43450618
   0.19111460  0.95254490  0.34518673
   0.05825246  0.21251438  0.83314533
   0.56328655  0.04039863  0.61060042
   0.68485525  0.45665314  0.21215250
   0.18482833  0.79047326  0.74396319
   0.18055537  0.62445892  0.30047857
   0.43362025  0.78762028  0.38907614
   0.44162506  0.28872448  0.25627930
   0.06113296  0.53888817  0.87543555
   0.55956332  0.04086636  0.74381324
   0.18762758  0.79261554  0.87554418
   0.93766560  0.45556199  0.47863955
   0.80877939  0.53751715  0.38910588
   0.81381549  0.20718375  0.56547634
   0.19039061  0.62157234  0.78845844
   0.05824793  0.53754561  0.38913975
   0.06357044  0.70845881  0.69962265
   0.31568360  0.53902822  0.25607709
   0.31002703  0.70689658  0.21180323
   0.56844325  0.86453428  0.16725236
   0.55959604  0.54064415  0.74378165
   0.69154891  0.45250980  0.34505984
   0.93750737  0.29308668  0.87543491
   0.56607607  0.03870537  0.25619794
   0.68361791  0.28824329  0.38904807
   0.31938631  0.36390146  0.16660843
   0.81948784  0.36429755  0.16660115
   0.18813051  0.95696211  0.69979039
   0.31211605  0.87426872  0.65411925
   0.19271609  0.28903311  0.25634719
   0.18805293  0.95545796  0.47855516
Direct configuration=     2
   0.06319818  0.03203988  0.12492084
   0.06323392  0.87137002  0.52125297
   0.18977982  0.12205529  0.78830772
   0.43406067  0.28810809  0.38915661
   0.30830983  0.71213912  0.83316478
   0.80825102  0.21219317  0.83301629
   0.18403043  0.78823302  0.38914699
   0.56347719  0.20678772  0.56528980
   0.05988250  0.04054282  0.74382256
   0.81352003  0.87157783  0.52135931
   0.18490174  0.29087984  0.74380731
   0.94018275  0.45268352  0.34509603
   0.93406890  0.28792855  0.38916663
   0.81109791  0.03933976  0.87532645
   0.18857451  0.79069361  0.61056316
   0.55871281  0.03735549  0.38914539
   0.93283799  0.96195939  0.83302909
   0.31099862  0.53940678  0.87535462
   0.68496706  0.29070778  0.74382599
   0.19256373  0.61465867  0.16717417
   0.81299420  0.20523067  0.47855819
   0.81353665  0.54043381  0.61060320
   0.31339997  0.86953613  0.43443531
   0.81536398  0.03855044  0.25624112
   0.69027857  0.95333876  0.34519601
   0.94150643  0.11360535  0.16698399
   0.93851040  0.12144740  0.52130388
   0.56549009  0.53902515  0.25626200
   0.68740601  0.79256096  0.87536098
   0.56838950  0.36532675  0.16705173
   0.43480591  0.79071390  0.74386991
   0.81392527  0.70709656  0.56545421
   0.56467623  0.87131323  0.78821475
   0.68844123  0.12153548  0.52132667
   0.81121928  0.37485404  0.65473609
   0.93271691  0.46184963  0.83296112
   0.06353824  0.20771860  0.69960070
   0.43837509  0.95776219  0.69959774
   0.30814761  0.21202240  0.83320293
   0.43577270  0.62488921  0.65476883
   0.31360243  0.54052396  0.61057612
   0.93867500  0.45650560  0.56542362
   0.68523097  0.79101142  0.74389990
   0.94084876  0.78690967  0.12487732
   0.68389921  0.78762278  0.38912031
   0.93510449  0.79072774  0.74382614
   0.06613714  0.20270283  0.34509382
   0.80881812  0.03779030  0.38915265
   0.44017407  0.12199246  0.78835521
   0.06071522  0.20691122  0.21211652
   0.06819243  0.36542279  0.16704047
   0.94104226  0.78867482  0.25623603
   0.56288361  0.20812860  0.69946503
   0.68803601  0.95773508  0.69940230
   0.44097918  0.78669852  0.12490046
   0.43890343  0.95717168  0.56547984
   0.81489519  0.37089830  0.78808204
   0.69118186  0.28865505  0.25623648
   0.18870277  0.45710349  0.56539028
   0.06807100  0.86501229  0.16717540
   0.18844337  0.29042538  0.61054850
   0.56565190  0.70295869  0.34507863
   0.31257790  0.20764827  0.69942805
   0.56097008  0.53917604  0.87532874
   0.06340283  0.70650336  0.56541457
   0.68987081  0.62184733  0.78828014
   0.30889395  0.53778640  0.38916322
   0.18848308  0.62168712  0.52133892
   0.56287370  0.86996253  0.43446789
   0.43873358  0.45696223  0.56540529
   0.43526297  0.29071152  0.74387228
   0.80579529  0.87409808  0.30039698
   0.81597244  0.70287604  0.34523506
   0.43286968  0.46187220  0.83298948
   0.68804081  0.95524860  0.47858920
   0.68758891  0.45785217  0.69950566
   0.56349029  0.87143743  0.52128063
   0.56152689  0.37460189  0.65475809
   0.81111399  0.87450254  0.65482377
   0.81316818  0.36971994  0.43440780
   0.81541997  0.53907448  0.25628527
   0.68282892  0.46173182  0.83298747
   0.19102477  0.78700468  0.12489793
   0.06141212  0.03969947  0.87543052
   0.31151377  0.37431762  0.65464030
   0.31557313  0.20310514  0.34515035
   0.80989574  0.54064012  0.74387191
   0.68286322  0.96179945  0.83298122
   0.56208834  0.87495874  0.65466443
   0.31372350  0.70681757  0.56550886
   0.31336524  0.53282162  0.12480054
   0.68607192  0.95623472  0.21207944
   0.31378087  0.20740776  0.56539882
   0.30994297  0.54026522  0.74394196
   0.68862334  0.95669771  0.56543912
   0.43858722  0.79068452  0.61057022
   0.69247492  0.61366672  0.16725595
   0.30575937  0.87389503  0.30045519
   0.31259310  0.70514482  0.47858723
   0.93840440  0.29011053  0.61052102
   0.43112869  0.62450881  0.30047660
   0.81799526  0.86468641  0.16717628
   0.56103121  0.20664602  0.21212467
   0.94229188  0.61358477  0.16719840
   0.93744453  0.79250054  0.87538447
   0.56477311  0.37118152  0.78810418
   0.06336803  0.37170323  0.52132761
   0.56343407  0.37151760  0.52132527
   0.68067845  0.12410534  0.30050399
   0.43299862  0.96178410  0.83314159
   0.19128456  0.28682668  0.12488492
   0.81475583  0.87125534  0.78816834
   0.31274870  0.37012717  0.43444013
   0.56310796  0.03218233  0.12496008
   0.43826878  0.29073006  0.61057713
   0.19091364  0.45255215  0.34512564
   0.43973381  0.28725045  0.12470162
   0.69061798  0.78834415  0.25635392
   0.43832095  0.12119653  0.52128336
   0.18718968  0.29246919  0.87548049
   0.18697788  0.12372580  0.65472714
   0.93694943  0.12446996  0.65467863
   0.31069905  0.20616337  0.21197857
   0.05886661  0.03740232  0.38908345
   0.19296746  0.11458351  0.16708867
   0.06320159  0.54036067  0.61054837
   0.94101643  0.28862932  0.25629042
   0.56347947  0.54032891  0.61057247
   0.93853236  0.95687348  0.56538887
   0.68108519  0.62465163  0.30046109
   0.93800989  0.62002220  0.43445151
   0.94037799  0.62163580  0.78828448
   0.56252282  0.70777226  0.69950612
   0.05832141  0.71218018  0.83312052
   0.93102090  0.12434558  0.30049175
   0.93829294  0.79017062  0.61056698
   0.44128603  0.78887006  0.25623437
   0.31487816  0.37125741  0.78824461
   0.43628884  0.45666399  0.21226403
   0.18851667  0.12153192  0.52121480
   0.81306238  0.70787286  0.69959241
   0.06366433  0.04037188  0.61058740
   0.55790388  0.21176504  0.83299526
   0.31373817  0.87152877  0.52128208
   0.69121253  0.28669397  0.12488373
   0.18603770  0.95664737  0.21208795
   0.68852608  0.29050821  0.61062109
   0.31354141  0.04038871  0.61051176
   0.93954578  0.12172756  0.78832637
   0.43742868  0.79232317  0.87546921
   0.80988156  0.04071869  0.74378035
   0.93777825  0.45760013  0.69946350
   0.18713040  0.62471185  0.65466933
   0.31253119  0.70815378  0.69937763
   0.93988971  0.28715005  0.12471405
   0.43808498  0.45527647  0.47857585
   0.06304985  0.70491754  0.47857043
   0.93835670  0.11972964  0.43443122
   0.43024803  0.12376519  0.30047851
   0.18797313  0.11989926  0.43450691
   0.56116791  0.03949741  0.87537367
   0.18849258  0.95649293  0.56518412
   0.69067735  0.78691734  0.12489915
   0.56308370  0.53296943  0.12482858
   0.30888272  0.03739816  0.38923161
   0.69304688  0.11464597  0.16719152
   0.81078744  0.20632359  0.21212354
   0.06581979  0.53833781  0.25626903
   0.56282626  0.70516666  0.47854063
   0.06335875  0.20727068  0.56545167
   0.55596343  0.37422478  0.30047491
   0.44049568  0.95297387  0.34508035
   0.18295221  0.96211054  0.83300014
   0.44241485  0.61342133  0.16721346
   0.93649746  0.45643335  0.21222181
   0.06276692  0.53304509  0.12480206
   0.81333849  0.37138512  0.52133346
   0.93076571  0.62419754  0.30055515
   0.31525781  0.03968713  0.25627334
   0.68857515  0.79043472  0.61061461
   0.18264110  0.46222981  0.83289585
   0.44190901  0.11415400  0.16698664
   0.31350737  0.37154194  0.52133888
   0.43988712  0.62193389  0.78830801
   0.06568739  0.03926320  0.25616732
   0.56397960  0.70681200  0.56534825
   0.93522551  0.29065065  0.74385278
   0.68998903  0.12198217  0.78826803
   0.18518791  0.45665705  0.21225598
   0.93387933  0.78771677  0.38917120
   0.68764221  0.29292516  0.87540735
   0.31807276  0.86463774  0.16720010
   0.43797089  0.45786672  0.69948901
   0.94106165  0.95281714  0.34512055
   0.68843749  0.62151748  0.52137402
   0.06194889  0.87500049  0.65466206
   0.06501227  0.87129961  0.78822988
   0.06073329  0.37457299  0.65481265
   0.68812881  0.45519130  0.47855552
   0.19054508  0.78866621  0.25619639
   0.43778561  0.11994170  0.43443484
   0.81328074  0.03298439  0.12470293
   0.93841028  0.62140868  0.52137203
   0.06293184  0.86957353  0.43448172
   0.81343222  0.53276515  0.12483349
   0.44097402  0.45281777  0.34509997
   0.81591480  0.20269589  0.34509771
   0.31591450  0.70253708  0.34509981
   0.68711477  0.12502101  0.65471771
   0.55525608  0.87394137  0.30040827
   0.06002454  0.54070217  0.74380759
   0.93510638  0.95643657  0.21206278
   0.81035593  0.70640011  0.21184382
   0.05548889  0.87364135  0.30039487
   0.18040238  0.12360185  0.30042197
   0.06578385  0.70275821  0.34511214
   0.81349390  0.04055953  0.61060160
   0.06346515  0.36958810  0.43445251
   0.56593657  0.20275704  0.34512336
   0.80563350  0.37416504  0.30045790
   0.43811988  0.95523524  0.47851881
   0.55873070  0.53725529  0.38910553
   0.06266250  0.20545957  0.47853864
   0.31484686  0.87180865  0.78825943
   0.93788428  0.95782613  0.69949731
   0.05535484  0.37408453  0.30055530
   0.68690384  0.62442686  0.65469951
   0.68828923  0.45690989  0.56543701
   0.43556349  0.95666751  0.21207778
   0.31296975  0.20552997  0.47853162
   0.43659638  0.12435226  0.65475078
   0.68813623  0.62013840  0.43445595
   0.81308371  0.20819322  0.69945520
   0.81299461  0.70518943  0.47856395
   0.81312969  0.86971926  0.43442838
   0.93775467  0.95555667  0.47853798
   0.56272848  0.20527089  0.47855415
   0.18804059  0.61982584  0.43440497
   0.31008057  0.04048176  0.74384290
   0.93662143  0.62435518  0.65463543
   0.55830928  0.71228062  0.83312902
   0.30551691  0.37426730  0.30046751
   0.56042842  0.70589587  0.21188103
   0.18798860  0.45539379  0.47854961
   0.31090809  0.03913440  0.87541429
   0.18763550  0.45786947  0.69944246
   0.81104876  0.53921048  0.87531191
   0.18427908  0.28784846  0.38920252
   0.43794656  0.62022094  0.43443033
   0.06029204  0.70612869  0.21194893
   0.56344537  0.36951483  0.43451673
   0.43836654  0.62159533  0.52132630
   0.80820908  0.71203638  0.83303928
   0.06477357  0.37111127  0.78819300
   0.43739556  0.29233289  0.87540572
   0.31301446  0.03289872  0.12472451
   0.68794549  0.12011087  0.43447174
   0.19059771  0.95269392  0.34519426
   0.05845599  0.21212110  0.83315488
   0.56326437  0.04040826  0.61055167
   0.68513751  0.45649035  0.21216819
   0.18507536  0.79051482  0.74395080
   0.18108160  0.62422237  0.30048572
   0.43386890  0.78759596  0.38914220
   0.44117097  0.28871412  0.25627982
   0.06107893  0.53934307  0.87537139
   0.55983780  0.04084886  0.74381779
   0.18743864  0.79241918  0.87549503
   0.93768856  0.45531507  0.47855922
   0.80907487  0.53750711  0.38918095
   0.81374814  0.20701834  0.56549499
   0.19007016  0.62174848  0.78841707
   0.05860746  0.53764909  0.38920851
   0.06336833  0.70829298  0.69958495
   0.31538633  0.53893826  0.25611671
   0.31029487  0.70658830  0.21182890
   0.56824721  0.86482784  0.16719684
   0.55982647  0.54068617  0.74377925
   0.69098408  0.45274926  0.34508499
   0.93733329  0.29284044  0.87539852
   0.56566928  0.03860401  0.25619932
   0.68385719  0.28813386  0.38911323
   0.31910458  0.36420582  0.16657735
   0.81921676  0.36447053  0.16657870
   0.18802002  0.95709149  0.69977521
   0.31212427  0.87426351  0.65418063
   0.19215935  0.28894968  0.25631970
   0.18801612  0.95527396  0.47851009
Direct configuration=     3
   0.06379970  0.03274328  0.12498577
   0.06320953  0.87205034  0.52147451
   0.18898731  0.12252534  0.78820144
   0.43474820  0.28779330  0.38939723
   0.30903616  0.71102451  0.83321798
   0.80905915  0.21104966  0.83310850
   0.18488304  0.78799204  0.38938408
   0.56340120  0.20650057  0.56543795
   0.06063394  0.04059032  0.74383040
   0.81339676  0.87206782  0.52154224
   0.18571330  0.29076819  0.74374957
   0.93885874  0.45344806  0.34521954
   0.93513967  0.28769792  0.38939985
   0.81095770  0.04082352  0.87516520
   0.18816906  0.79066422  0.61036066
   0.55981906  0.03745675  0.38940120
   0.93369351  0.96100737  0.83318643
   0.31088831  0.54069391  0.87517724
   0.68570626  0.29079584  0.74377018
   0.19174020  0.61566760  0.16707895
   0.81317350  0.20483382  0.47829517
   0.81326899  0.54049116  0.61044509
   0.31319757  0.87004415  0.43429181
   0.81443142  0.03816147  0.25627159
   0.68906727  0.95367317  0.34517373
   0.94120635  0.11510316  0.16699436
   0.93853636  0.12224718  0.52156078
   0.56445677  0.53905646  0.25629218
   0.68697889  0.79200298  0.87528208
   0.56748878  0.36622014  0.16697552
   0.43547518  0.79086868  0.74380637
   0.81368589  0.70666584  0.56555597
   0.56384161  0.87221947  0.78810088
   0.68839234  0.12216070  0.52156071
   0.81176645  0.37476115  0.65474312
   0.93352962  0.46098364  0.83310959
   0.06289338  0.20750347  0.69948432
   0.43805650  0.95757737  0.69952595
   0.30890702  0.21086359  0.83324585
   0.43690095  0.62445204  0.65477535
   0.31338095  0.54063777  0.61043050
   0.93849781  0.45626933  0.56552402
   0.68564522  0.79089229  0.74378403
   0.94087784  0.78547733  0.12508705
   0.68489860  0.78765390  0.38939115
   0.93576871  0.79081313  0.74378213
   0.06436052  0.20343887  0.34517337
   0.80964344  0.03765474  0.38937985
   0.43908510  0.12269288  0.78826073
   0.06135768  0.20588102  0.21206114
   0.06755971  0.36653000  0.16696294
   0.93944171  0.78863024  0.25625171
   0.56265852  0.20786701  0.69946845
   0.68777149  0.95769439  0.69945913
   0.44089849  0.78536560  0.12511847
   0.43879240  0.95679144  0.56556837
   0.81392693  0.37219918  0.78804228
   0.69011611  0.28857624  0.25625458
   0.18844615  0.45656821  0.56551480
   0.06749360  0.86598725  0.16703048
   0.18825255  0.29063138  0.61037913
   0.56410700  0.70375330  0.34515496
   0.31270146  0.20743223  0.69940780
   0.56086143  0.54053415  0.87517005
   0.06328160  0.70617177  0.56552520
   0.68900918  0.62249397  0.78813933
   0.30986171  0.53798939  0.38939685
   0.18839773  0.62242807  0.52154183
   0.56292022  0.87020733  0.43434140
   0.43872844  0.45662646  0.56551088
   0.43583068  0.29075814  0.74380360
   0.80763026  0.87379496  0.30049090
   0.81428259  0.70370287  0.34526575
   0.43367679  0.46106582  0.83313900
   0.68793915  0.95459477  0.47831930
   0.68758512  0.45769002  0.69949792
   0.56331831  0.87207755  0.52154104
   0.56185642  0.37454590  0.65475320
   0.81194824  0.87437241  0.65478559
   0.81299405  0.37023787  0.43434964
   0.81440492  0.53866411  0.25632137
   0.68357242  0.46087614  0.83312146
   0.19054468  0.78529552  0.12512024
   0.06100332  0.04085177  0.87522273
   0.31169612  0.37429051  0.65471226
   0.31408308  0.20343952  0.34516403
   0.81055157  0.54073762  0.74382713
   0.68372353  0.96094627  0.83313555
   0.56229456  0.87461957  0.65472536
   0.31364756  0.70656127  0.56558899
   0.31397261  0.53386801  0.12482183
   0.68639132  0.95579319  0.21207676
   0.31367114  0.20708581  0.56549963
   0.31060846  0.54029343  0.74387631
   0.68844510  0.95653627  0.56552995
   0.43848280  0.79048193  0.61036972
   0.69172824  0.61542579  0.16717217
   0.30753371  0.87331952  0.30043831
   0.31296057  0.70414233  0.47827510
   0.93832663  0.29027895  0.61039140
   0.43284110  0.62356498  0.30049412
   0.81736410  0.86554902  0.16703094
   0.56155662  0.20561483  0.21204330
   0.94175954  0.61513854  0.16712532
   0.93692543  0.79202999  0.87529390
   0.56390218  0.37234173  0.78804802
   0.06339759  0.37205456  0.52153560
   0.56344891  0.37214339  0.52153650
   0.68258840  0.12361439  0.30051326
   0.43368654  0.96100724  0.83322989
   0.19134738  0.28535419  0.12497077
   0.81397127  0.87219542  0.78808791
   0.31297076  0.37047838  0.43435421
   0.56379245  0.03293274  0.12506393
   0.43821914  0.29073468  0.61042979
   0.18915357  0.45318192  0.34522557
   0.43969299  0.28578734  0.12485133
   0.68956933  0.78838289  0.25629304
   0.43812037  0.12208922  0.52152072
   0.18683489  0.29185491  0.87535267
   0.18698006  0.12429018  0.65474420
   0.93722337  0.12447741  0.65473513
   0.31142248  0.20535428  0.21200967
   0.05981767  0.03736301  0.38937991
   0.19224577  0.11548388  0.16702808
   0.06306906  0.54044039  0.61041145
   0.93945604  0.28862236  0.25628284
   0.56342060  0.54040788  0.61041843
   0.93847791  0.95664451  0.56554991
   0.68273648  0.62389193  0.30045017
   0.93788284  0.62029325  0.43434710
   0.93916538  0.62252417  0.78817196
   0.56242414  0.70749616  0.69946187
   0.05905870  0.71111940  0.83317147
   0.93282659  0.12343466  0.30046461
   0.93822409  0.79027881  0.61038205
   0.44005631  0.78876157  0.25621599
   0.31397742  0.37213825  0.78810294
   0.43673523  0.45593715  0.21219701
   0.18812478  0.12254395  0.52147418
   0.81279024  0.70746405  0.69948211
   0.06362401  0.04024447  0.61042530
   0.55891780  0.21089111  0.83307161
   0.31358359  0.87190867  0.52154912
   0.69134973  0.28527533  0.12496635
   0.18637363  0.95615485  0.21206365
   0.68817751  0.29049140  0.61043665
   0.31319400  0.04056761  0.61034177
   0.93886413  0.12251669  0.78822973
   0.43700627  0.79185834  0.87536770
   0.81059159  0.04080617  0.74377379
   0.93741133  0.45750855  0.69949540
   0.18684764  0.62441223  0.65473395
   0.31274557  0.70779435  0.69943475
   0.93974159  0.28574524  0.12485937
   0.43821107  0.45491981  0.47833444
   0.06284362  0.70422412  0.47827565
   0.93806326  0.12021763  0.43431318
   0.43233501  0.12346959  0.30052319
   0.18795038  0.12055244  0.43434080
   0.56109266  0.04084812  0.87521125
   0.18852385  0.95644943  0.56525123
   0.69042433  0.78539530  0.12512580
   0.56376526  0.53368146  0.12495957
   0.30981949  0.03723417  0.38944623
   0.69221388  0.11541553  0.16709076
   0.81119816  0.20531347  0.21206288
   0.06440604  0.53850243  0.25630815
   0.56275449  0.70439180  0.47828653
   0.06343782  0.20677735  0.56555130
   0.55770346  0.37371604  0.30051769
   0.43897282  0.95347522  0.34511157
   0.18363276  0.96112489  0.83315779
   0.44158227  0.61509806  0.16712610
   0.93709924  0.45594042  0.21221783
   0.06363970  0.53379636  0.12495698
   0.81328757  0.37202987  0.52157335
   0.93267670  0.62350433  0.30055531
   0.31437562  0.03868067  0.25630924
   0.68846367  0.79030089  0.61043851
   0.18360470  0.46119421  0.83309441
   0.44144645  0.11521957  0.16697831
   0.31327566  0.37207681  0.52157877
   0.43901820  0.62258540  0.78819033
   0.06427240  0.03865721  0.25619417
   0.56383267  0.70640575  0.56543475
   0.93570120  0.29074515  0.74378256
   0.68898784  0.12247251  0.78814090
   0.18587424  0.45623624  0.21219508
   0.93500243  0.78765592  0.38938401
   0.68701638  0.29210438  0.87528763
   0.31754534  0.86573469  0.16704210
   0.43787422  0.45756027  0.69947704
   0.93917919  0.95340925  0.34512408
   0.68834730  0.62208970  0.52158434
   0.06161108  0.87458615  0.65471140
   0.06392541  0.87219827  0.78814563
   0.06141453  0.37445035  0.65479629
   0.68786800  0.45476019  0.47830749
   0.18946809  0.78871704  0.25622273
   0.43763605  0.12034527  0.43433545
   0.81380167  0.03410248  0.12491462
   0.93827809  0.62221992  0.52159768
   0.06263687  0.87003289  0.43432726
   0.81395840  0.53369273  0.12482135
   0.43937913  0.45349175  0.34517859