unknown system                          
           1
     9.726678    0.000000    0.000000
     0.000000    8.423550    0.000000
     0.000000    0.000000   45.000000
   Fe   Mn
 281   7
Direct configuration=     1
   0.06118600  0.03064201  0.12440429
   0.06329553  0.87192414  0.52126628
   0.19526303  0.12410864  0.78846807
   0.43365165  0.28774774  0.38905805
   0.30854845  0.71282064  0.83315343
   0.80862539  0.21276693  0.83348464
   0.18347781  0.78753146  0.38906890
   0.56386253  0.20768731  0.56543149
   0.06028185  0.04151968  0.74410862
   0.81354640  0.87231332  0.52131218
   0.18544501  0.29126782  0.74407471
   0.94133330  0.45218636  0.34498527
   0.93358873  0.28725148  0.38903018
   0.43847603  0.62236296  0.52135117
   0.18771406  0.79190509  0.61086322
   0.55871053  0.03784904  0.38900477
   0.93335723  0.96360897  0.83331177
   0.31402308  0.54233508  0.87562390
   0.68535424  0.29146401  0.74411797
   0.19254412  0.61185616  0.16677486
   0.81291691  0.20586655  0.47857364
   0.81262202  0.54193084  0.61086423
   0.31311430  0.87033754  0.43445519
   0.81535005  0.03528946  0.25602630
   0.69139288  0.95193109  0.34495942
   0.94193806  0.11252788  0.16685577
   0.93850468  0.12202439  0.52133380
   0.56559074  0.53546730  0.25599002
   0.69031023  0.79393514  0.87566293
   0.56793262  0.36342981  0.16687818
   0.43591951  0.79186948  0.74420507
   0.81385865  0.70769899  0.56544260
   0.56967698  0.87390108  0.78833482
   0.68846544  0.12225775  0.52137533
   0.19042913  0.28543589  0.25601785
   0.93348447  0.46313722  0.83312074
   0.06490814  0.20824959  0.69967147
   0.43990540  0.95816802  0.69968842
   0.30870291  0.21284840  0.83315035
   0.43388557  0.62562929  0.65492645
   0.31291170  0.54174930  0.61077259
   0.93888603  0.45761165  0.56543273
   0.68597028  0.79158773  0.74417126
   0.30881125  0.87562730  0.65490305
   0.68364591  0.78778728  0.38904573
   0.93565692  0.79155153  0.74420182
   0.06597447  0.20223660  0.34496681
   0.43957792  0.78654661  0.12447972
   0.44490188  0.12407377  0.78844534
   0.05607553  0.20311283  0.21180924
   0.06800012  0.36344987  0.16691920
   0.94065786  0.78533241  0.25602452
   0.56496732  0.20832715  0.69967967
   0.68996278  0.95823151  0.69966793
   0.68361653  0.28738700  0.38902545
   0.43885143  0.95773318  0.56547694
   0.82022190  0.37489984  0.78828260
   0.69037532  0.28528951  0.25604658
   0.18880060  0.45760913  0.56543646
   0.06787167  0.86342454  0.16685637
   0.18769937  0.29182795  0.61084133
   0.56611291  0.70192247  0.34491579
   0.31485928  0.20822021  0.69967847
   0.56390288  0.54222159  0.87568026
   0.06378179  0.70733485  0.56554365
   0.69515869  0.62400510  0.78829892
   0.30858677  0.53779298  0.38909446
   0.18837609  0.62223201  0.52137109
   0.56263787  0.87059669  0.43449657
   0.43869980  0.45787340  0.56545230
   0.43560688  0.29152483  0.74412064
   0.80398760  0.87252394  0.30028468
   0.81630681  0.70269642  0.34512198
   0.43346678  0.46272138  0.83313380
   0.68768007  0.95592404  0.47863151
   0.69009979  0.45818597  0.69963250
   0.56343241  0.87232479  0.52136179
   0.55887715  0.37570022  0.65490998
   0.80891578  0.87565002  0.65490763
   0.81260014  0.37060304  0.43446539
   0.81529012  0.53542679  0.25602922
   0.68358922  0.46343148  0.83325303
   0.18853183  0.78624885  0.12448822
   0.06437547  0.04260731  0.87551104
   0.30879594  0.37550011  0.65492016
   0.31640513  0.20205362  0.34488846
   0.81080060  0.54144954  0.74421127
   0.68373712  0.96370640  0.83333634
   0.55895246  0.87566827  0.65492312
   0.31379313  0.70740250  0.56555812
   0.31266641  0.53073390  0.12440243
   0.68131029  0.95305814  0.21178337
   0.31397300  0.20771708  0.56552382
   0.31073961  0.54171223  0.74411314
   0.68870248  0.95779037  0.56546751
   0.43763240  0.79194072  0.61085954
   0.69270955  0.61323817  0.16696769
   0.30376991  0.87236046  0.30030138
   0.31262186  0.70541954  0.47864272
   0.93792437  0.29171436  0.61075511
   0.42939153  0.62277457  0.30030757
   0.81791845  0.86326761  0.16696168
   0.55588396  0.20255805  0.21159323
   0.94269353  0.61323125  0.16694914
   0.93875376  0.79339544  0.87556249
   0.57021216  0.37422459  0.78844501
   0.06340380  0.37232480  0.52134135
   0.56348024  0.37215638  0.52129992
   0.67909539  0.12197460  0.30031435
   0.43331150  0.96267401  0.83314896
   0.18914954  0.28610433  0.12448748
   0.82013388  0.87431741  0.78835995
   0.31280696  0.37072577  0.43443517
   0.93773161  0.79187674  0.61085552
   0.43788535  0.29179965  0.61076763
   0.19179567  0.45220832  0.34504158
   0.43859163  0.28600077  0.12436175
   0.69041875  0.78539719  0.25597332
   0.18992287  0.95812426  0.69967642
   0.19033221  0.29585486  0.87589109
   0.18377583  0.12552876  0.65493163
   0.93380388  0.12559100  0.65492556
   0.30594384  0.20224093  0.21168616
   0.05848621  0.03750310  0.38904990
   0.19313437  0.11344244  0.16676514
   0.06277606  0.54187733  0.61083807
   0.94072537  0.28532451  0.25599678
   0.56298439  0.54169184  0.61073311
   0.93886704  0.95779418  0.56549785
   0.67950865  0.62229985  0.30010008
   0.93743755  0.61985256  0.43455501
   0.94531254  0.62395144  0.78830829
   0.56498110  0.70807051  0.69967879
   0.05878526  0.71293209  0.83308115
   0.92868419  0.12238047  0.30030845
   0.94015532  0.45826625  0.69962669
   0.44073899  0.78552101  0.25601510
   0.32000862  0.37388911  0.78850635
   0.43144618  0.45290359  0.21193178
   0.18848771  0.12228835  0.52131210
   0.81494349  0.70814616  0.69963118
   0.06276537  0.04183964  0.61081415
   0.55881423  0.21282738  0.83337230
   0.31356243  0.87211423  0.52128632
   0.69008454  0.28618507  0.12458242
   0.18121914  0.95261267  0.21162889
   0.68782539  0.29175905  0.61076005
   0.31267242  0.04185739  0.61091098
   0.94476703  0.12412097  0.78849962
   0.43960069  0.79435458  0.87565597
   0.81056607  0.04140686  0.74411017
   0.43820389  0.12203022  0.52137747
   0.18384750  0.62549502  0.65496032
   0.31505671  0.70806454  0.69961113
   0.93806060  0.28532050  0.12453219
   0.43787800  0.45606111  0.47863042
   0.06289954  0.70561557  0.47862717
   0.93834078  0.12000780  0.43439999
   0.42870873  0.12189236  0.30033982
   0.18834511  0.12021703  0.43448901
   0.56373681  0.04266194  0.87561298
   0.18869554  0.95752690  0.56537130
   0.68883414  0.78523784  0.12444445
   0.56272137  0.53110610  0.12429025
   0.30861948  0.03713522  0.38904980
   0.69268334  0.11304564  0.16694006
   0.80565665  0.20312413  0.21185456
   0.06555463  0.53538398  0.25600911
   0.56283419  0.70595594  0.47862532
   0.06375953  0.20754783  0.56551778
   0.55408765  0.37278333  0.30033948
   0.44153460  0.95244997  0.34493551
   0.18367783  0.96258361  0.83312572
   0.44265817  0.61176396  0.16674614
   0.93149818  0.45310798  0.21175186
   0.06164558  0.53095350  0.12442462
   0.81347432  0.37210137  0.52132580
   0.92933091  0.62294237  0.30024637
   0.31554552  0.03578384  0.25597236
   0.68765016  0.79191425  0.61091904
   0.18361179  0.46286513  0.83313412
   0.44178852  0.11257388  0.16685733
   0.31344120  0.37229588  0.52135817
   0.44517994  0.62410855  0.78844261
   0.06607529  0.03590531  0.25590318
   0.56361392  0.70783677  0.56542105
   0.93578145  0.29140989  0.74414407
   0.69526634  0.12407776  0.78845773
   0.18059682  0.45314125  0.21191544
   0.93369201  0.78759841  0.38901643
   0.68922302  0.29422791  0.87574346
   0.31775613  0.86297343  0.16693031
   0.44012989  0.45819370  0.69963578
   0.80878912  0.37549099  0.65492951
   0.68843362  0.62230292  0.52139812
   0.05891618  0.87562256  0.65492993
   0.07075556  0.87358061  0.78825347
   0.05891525  0.37563367  0.65491948
   0.68789131  0.45575568  0.47867909
   0.19068352  0.78552753  0.25597292
   0.43781399  0.12023694  0.43442467
   0.81178476  0.03095160  0.12429859
   0.93852305  0.62211068  0.52139072
   0.06253377  0.87067550  0.43446831
   0.81256955  0.53086552  0.12431879
   0.44163261  0.45206409  0.34500272
   0.81680022  0.20191837  0.34503624
   0.31603760  0.70166099  0.34493607
   0.68387460  0.12578472  0.65493911
   0.55348898  0.87206747  0.30035686
   0.06078711  0.54148626  0.74411864
   0.93779699  0.78533193  0.12439537
   0.80644527  0.70268613  0.21158216
   0.05368618  0.87306418  0.30019075
   0.17934600  0.12296191  0.30027429
   0.06651391  0.70185763  0.34492865
   0.81285063  0.04171956  0.61076933
   0.06337300  0.37057997  0.43442621
   0.56644841  0.20210451  0.34500087
   0.80345272  0.37265559  0.30026049
   0.43791312  0.95601311  0.47861387
   0.55842628  0.53748606  0.38907402
   0.06269669  0.20583899  0.47866233
   0.32022271  0.87404172  0.78844125
   0.94004438  0.95829451  0.69966480
   0.05371934  0.37228806  0.30032560
   0.68391548  0.62562063  0.65491230
   0.68877126  0.45766833  0.56545220
   0.43124892  0.95290723  0.21177532
   0.31286380  0.20586889  0.47859504
   0.43380165  0.12563712  0.65491684
   0.68804364  0.62032862  0.43442390
   0.81499170  0.20809783  0.69962810
   0.81287049  0.70581191  0.47864217
   0.56297994  0.37082452  0.43442459
   0.93779341  0.95585872  0.47865717
   0.56272692  0.20578231  0.47861388
   0.18812298  0.62011786  0.43436600
   0.31073926  0.04185903  0.74415970
   0.93380767  0.62566872  0.65491960
   0.55842556  0.71310967  0.83308714
   0.30394668  0.37256151  0.30032798
   0.55660104  0.70251590  0.21156400
   0.18788793  0.45590995  0.47862739
   0.31408421  0.04203761  0.87570600
   0.19012385  0.45823837  0.69963815
   0.81419047  0.54227556  0.87561292
   0.18336675  0.28853948  0.38914739
   0.43818112  0.62028884  0.43432768
   0.05594297  0.70240162  0.21161595
   0.56222439  0.03079311  0.12445399
   0.81819740  0.36310968  0.16707689
   0.80860562  0.71362941  0.83332877
   0.07010719  0.37435844  0.78837848
   0.44004912  0.29545833  0.87591492
   0.31171015  0.03110450  0.12430304
   0.68763830  0.12021037  0.43446196
   0.19157081  0.95214660  0.34513903
   0.05831308  0.21250060  0.83317421
   0.56277278  0.04171102  0.61079410
   0.68135228  0.45280326  0.21167875
   0.18577030  0.79170461  0.74418348
   0.17893388  0.62237641  0.30030024
   0.43379672  0.78763522  0.38904279
   0.44039766  0.28543755  0.25603024
   0.06487391  0.54198579  0.87563195
   0.56043398  0.04196373  0.74415058
   0.18923223  0.79405380  0.87564975
   0.93762397  0.45582966  0.47863140
   0.80874597  0.53764557  0.38905092
   0.81384877  0.20775418  0.56541889
   0.19511466  0.62419680  0.78845331
   0.93089994  0.95312543  0.21185359
   0.06506712  0.70808866  0.69965795
   0.31545009  0.53536765  0.25596033
   0.30630484  0.70240926  0.21155104
   0.56817182  0.86300522  0.16689322
   0.56070268  0.54175967  0.74419274
   0.69116305  0.45207767  0.34492370
   0.94140811  0.29462253  0.87570496
   0.56584224  0.03602419  0.25591493
   0.80762165  0.03770778  0.38903631
   0.31929319  0.36309957  0.16629995
   0.81449950  0.04220251  0.87532637
   0.81296777  0.87090862  0.43445512
   0.05861319  0.53722266  0.38901322
   0.94268103  0.95248045  0.34495493
   0.18789311  0.95609462  0.47863711
Direct configuration=     2
   0.06144144  0.03090729  0.12446457
   0.06327785  0.87206035  0.52134776
   0.19471113  0.12426429  0.78843373
   0.43387926  0.28768090  0.38912104
   0.30895095  0.71264508  0.83320562
   0.80902055  0.21250946  0.83349285
   0.18376683  0.78748515  0.38913121
   0.56376576  0.20759360  0.56547343
   0.06064244  0.04156460  0.74407189
   0.81348378  0.87244571  0.52137191
   0.18579747  0.29136204  0.74404449
   0.94077508  0.45241475  0.34499531
   0.93392784  0.28720499  0.38910053
   0.43844038  0.62252468  0.52140997
   0.18765805  0.79186531  0.61080177
   0.55892022  0.03781822  0.38907853
   0.93364788  0.96337419  0.83333869
   0.31393040  0.54267607  0.87556468
   0.68572584  0.29150374  0.74407918
   0.19216667  0.61222134  0.16676513
   0.81294349  0.20569792  0.47850230
   0.81258866  0.54187317  0.61079538
   0.31309390  0.87044330  0.43441386
   0.81487410  0.03530645  0.25603321
   0.69080524  0.95209834  0.34497297
   0.94168749  0.11279931  0.16682983
   0.93848099  0.12225030  0.52139992
   0.56506360  0.53549186  0.25599656
   0.69001559  0.79382938  0.87561482
   0.56764422  0.36369303  0.16681892
   0.43622323  0.79185525  0.74415626
   0.81376893  0.70760893  0.56549282
   0.56918360  0.87402445  0.78829775
   0.68846827  0.12245033  0.52143017
   0.18998143  0.28551863  0.25602775
   0.93386735  0.46296006  0.83317136
   0.06471109  0.20823122  0.69967861
   0.43971754  0.95817401  0.69969664
   0.30908868  0.21264820  0.83321746
   0.43418628  0.62557361  0.65492280
   0.31283763  0.54172915  0.61072062
   0.93876868  0.45752312  0.56548108
   0.68624720  0.79161197  0.74411756
   0.30914647  0.87557719  0.65490771
   0.68398071  0.78771920  0.38911063
   0.93597601  0.79157505  0.74414404
   0.06545868  0.20250840  0.34499733
   0.43954754  0.78595409  0.12455154
   0.44439255  0.12425515  0.78841748
   0.05657723  0.20292292  0.21178385
   0.06763593  0.36368414  0.16687260
   0.94015547  0.78541901  0.25601923
   0.56476632  0.20830488  0.69968330
   0.68974656  0.95823893  0.69967378
   0.68386628  0.28737515  0.38909773
   0.43880577  0.95766243  0.56553740
   0.81965157  0.37497562  0.78825937
   0.68991067  0.28538943  0.25605934
   0.18872126  0.45751686  0.56548355
   0.06747069  0.86361584  0.16680555
   0.18764575  0.29177170  0.61077681
   0.56555512  0.70205793  0.34492905
   0.31468660  0.20821249  0.69968452
   0.56383313  0.54252615  0.87562308
   0.06369024  0.70729599  0.56558994
   0.69457826  0.62418918  0.78829830
   0.30894309  0.53778976  0.38915100
   0.18834912  0.62243113  0.52142303
   0.56258551  0.87066574  0.43446500
   0.43864254  0.45775407  0.56549548
   0.43593513  0.29159666  0.74408555
   0.80459605  0.87230374  0.30028061
   0.81576068  0.70286512  0.34512923
   0.43389219  0.46251518  0.83319584
   0.68767045  0.95576931  0.47856649
   0.68988391  0.45819497  0.69964903
   0.56337472  0.87242149  0.52143032
   0.55919011  0.37563015  0.65490660
   0.80919101  0.87560778  0.65491147
   0.81263923  0.37064202  0.43443116
   0.81483650  0.53546485  0.25604358
   0.68396847  0.46321357  0.83329263
   0.18851536  0.78566307  0.12455732
   0.06433667  0.04298479  0.87547396
   0.30914102  0.37546216  0.65491848
   0.31587427  0.20229502  0.34492713
   0.81109426  0.54142057  0.74415674
   0.68417463  0.96343940  0.83336832
   0.55923178  0.87562049  0.65492484
   0.31370271  0.70734055  0.56560222
   0.31278822  0.53107698  0.12441583
   0.68175379  0.95294016  0.21179357
   0.31388505  0.20765839  0.56557298
   0.31104772  0.54171159  0.74406895
   0.68860299  0.95769335  0.56551191
   0.43759406  0.79188878  0.61079415
   0.69236880  0.61351731  0.16691783
   0.30443151  0.87217145  0.30028918
   0.31267373  0.70529381  0.47856329
   0.93784949  0.29170414  0.61070821
   0.42996900  0.62247699  0.30031603
   0.81759581  0.86349734  0.16690626
   0.55634189  0.20245205  0.21161856
   0.94230069  0.61354879  0.16690497
   0.93874345  0.79329128  0.87551891
   0.56967113  0.37434636  0.78840864
   0.06339644  0.37243730  0.52140521
   0.56342237  0.37232806  0.52137039
   0.67974656  0.12183896  0.30032091
   0.43368390  0.96249694  0.83321511
   0.18917760  0.28553725  0.12452625
   0.81958769  0.87442165  0.78834108
   0.31276642  0.37080137  0.43441304
   0.93768814  0.79183000  0.61078576
   0.43781082  0.29175490  0.61071716
   0.19127579  0.45233969  0.34504705
   0.43862078  0.28547712  0.12440164
   0.68993370  0.78543716  0.25596807
   0.18974639  0.95813204  0.69969087
   0.19007905  0.29552901  0.87579743
   0.18410583  0.12550127  0.65492776
   0.93410847  0.12554598  0.65491912
   0.30639171  0.20213539  0.21170860
   0.05880653  0.03744281  0.38912406
   0.19272561  0.11361763  0.16673875
   0.06270431  0.54183721  0.61077259
   0.94016790  0.28543997  0.25599552
   0.56288399  0.54168398  0.61068791
   0.93876695  0.95770255  0.56555031
   0.68001377  0.62210764  0.30012602
   0.93750413  0.61992574  0.43452395
   0.94477490  0.62415025  0.78829950
   0.56478856  0.70810006  0.69968669
   0.05921197  0.71272933  0.83311801
   0.92935581  0.12222808  0.30030302
   0.93993158  0.45825853  0.69964398
   0.44023100  0.78555908  0.25602401
   0.31949503  0.37403159  0.78846460
   0.43193126  0.45282854  0.21192236
   0.18842219  0.12249924  0.52136745
   0.81474981  0.70819166  0.69964094
   0.06271009  0.04177894  0.61075641
   0.55926978  0.21265163  0.83342150
   0.31355206  0.87224092  0.52135445
   0.69004549  0.28563607  0.12464166
   0.18165819  0.95254542  0.21165002
   0.68774979  0.29173458  0.61071102
   0.31262451  0.04179790  0.61084054
   0.94430119  0.12430575  0.78846461
   0.43946612  0.79423012  0.87559344
   0.81088272  0.04146420  0.74407785
   0.43818603  0.12222432  0.52142707
   0.18417554  0.62547883  0.65495421
   0.31486228  0.70807901  0.69962206
   0.93813895  0.28488332  0.12460491
   0.43795145  0.45590044  0.47855246
   0.06288445  0.70543654  0.47854437
   0.93830628  0.12013361  0.43438231
   0.42939040  0.12174631  0.30034366
   0.18823906  0.12049890  0.43446222
   0.56352103  0.04299731  0.87556992
   0.18861333  0.95746434  0.56539095
   0.68888178  0.78478927  0.12451474
   0.56275643  0.53136762  0.12436027
   0.30895581  0.03722565  0.38913164
   0.69231791  0.11322751  0.16690010
   0.80619639  0.20294544  0.21183623
   0.06506026  0.53546305  0.25602227
   0.56281221  0.70577317  0.47854567
   0.06365361  0.20751621  0.56556716
   0.55467804  0.37250423  0.30033766
   0.44098000  0.95252431  0.34494998
   0.18411470  0.96237421  0.83317638
   0.44234584  0.61214549  0.16672108
   0.93191792  0.45295251  0.21177994
   0.06191664  0.53122379  0.12447999
   0.81344159  0.37227093  0.52139583
   0.92991461  0.62265478  0.30027025
   0.31504516  0.03569829  0.25598951
   0.68759142  0.79185461  0.61084156
   0.18399002  0.46263996  0.83319101
   0.44150301  0.11284938  0.16682802
   0.31340166  0.37243123  0.52141825
   0.44464676  0.62421453  0.78842192
   0.06547055  0.03578060  0.25592474
   0.56356604  0.70774633  0.56546839
   0.93607930  0.29144350  0.74409890
   0.69470233  0.12427004  0.78843749
   0.18114863  0.45303654  0.21191612
   0.93390263  0.78754237  0.38908200
   0.68899653  0.29418188  0.87569459
   0.31744110  0.86317923  0.16686849
   0.43991119  0.45820151  0.69965143
   0.80911372  0.37545374  0.65492322
   0.68836106  0.62246128  0.52145302
   0.05921109  0.87556388  0.65492865
   0.07015429  0.87376915  0.78823275
   0.05919843  0.37556911  0.65491921
   0.68783473  0.45564035  0.47859502
   0.19021808  0.78551873  0.25596741
   0.43778530  0.12042286  0.43439696
   0.81193528  0.03126238  0.12437213
   0.93849771  0.62232720  0.52145583
   0.06255002  0.87065397  0.43442082
   0.81268433  0.53119308  0.12439959
   0.44105226  0.45220201  0.34501495
   0.81613558  0.20213864  0.34503580
   0.31548853  0.70182298  0.34496235
   0.68416605  0.12571232  0.65493280
   0.55418353  0.87188697  0.30033347
   0.06109198  0.54149799  0.74407797
   0.93796545  0.78488865  0.12447351
   0.80684623  0.70258319  0.21160242
   0.05437802  0.87281572  0.30019803
   0.17992128  0.12268489  0.30028834
   0.06602719  0.70203746  0.34493116
   0.81277518  0.04169936  0.61071663
   0.06334096  0.37060228  0.43441517
   0.56587972  0.20234054  0.34501622
   0.80414950  0.37246077  0.30025825
   0.43798883  0.95590763  0.47854279
   0.55865206  0.53752129  0.38913822
   0.06263256  0.20567127  0.47859951
   0.31967357  0.87419602  0.78840803
   0.93983746  0.95828209  0.69967562
   0.05441260  0.37216312  0.30032555
   0.68420595  0.62556642  0.65491187
   0.68869115  0.45759372  0.56549692
   0.43172238  0.95277389  0.21178460
   0.31296856  0.20572737  0.47851791
   0.43411542  0.12558446  0.65491396
   0.68798114  0.62045115  0.43439155
   0.81477781  0.20813160  0.69964244
   0.81286785  0.70568354  0.47858047
   0.56284496  0.37083322  0.43439426
   0.93773375  0.95584603  0.47858384
   0.56267746  0.20568027  0.47855655
   0.18801314  0.62030846  0.43435732
   0.31103223  0.04185456  0.74411774
   0.93412048  0.62559495  0.65491887
   0.55884557  0.71290511  0.83313679
   0.30462180  0.37232697  0.30031523
   0.55696719  0.70243607  0.21160254
   0.18789419  0.45577075  0.47855948
   0.31397263  0.04232507  0.87563809
   0.18992333  0.45823211  0.69965136
   0.81406975  0.54250669  0.87556379
   0.18372534  0.28846473  0.38919278
   0.43814005  0.62040713  0.43431062
   0.05646695  0.70236144  0.21164396
   0.56238450  0.03104786  0.12451328
   0.81788882  0.36330206  0.16700196
   0.80899680  0.71339075  0.83335823
   0.06956425  0.37444113  0.78834808
   0.43992122  0.29524174  0.87583011
   0.31188659  0.03145864  0.12437200
   0.68763712  0.12036327  0.43443142
   0.19108016  0.95230209  0.34513165
   0.05871459  0.21236092  0.83323684
   0.56270370  0.04167949  0.61073725
   0.68175479  0.45269494  0.21171308
   0.18607373  0.79172465  0.74413468
   0.17959981  0.62218251  0.30030834
   0.43410184  0.78756250  0.38909020
   0.43988441  0.28551444  0.25604347
   0.06462623  0.54232850  0.87557827
   0.56079879  0.04193499  0.74410325
   0.18913847  0.79398091  0.87558990
   0.93761487  0.45566857  0.47855723
   0.80898562  0.53766133  0.38912631
   0.81375672  0.20767217  0.56545868
   0.19459702  0.62428875  0.78842292
   0.93143858  0.95299920  0.21185370
   0.06485644  0.70811361  0.69966956
   0.31496022  0.53539399  0.25597655
   0.30673148  0.70231242  0.21158442
   0.56791627  0.86328833  0.16683727
   0.56101713  0.54170870  0.74414791
   0.69057974  0.45230479  0.34494168
   0.94116825  0.29452833  0.87565146
   0.56527775  0.03591511  0.25593962
   0.80787878  0.03780245  0.38908940
   0.31885222  0.36329279  0.16626663
   0.81436132  0.04244563  0.87529586
   0.81291650  0.87080441  0.43445485
   0.05888585  0.53729058  0.38905694
   0.94205504  0.95254069  0.34494436
   0.18787442  0.95587973  0.47859355
Direct configuration=     3
   0.06220778  0.03170311  0.12464540
   0.06322479  0.87246899  0.52159220
   0.19305543  0.12473126  0.78833072
   0.43456207  0.28748040  0.38930999
   0.31015846  0.71211840  0.83336219
   0.81020601  0.21173706  0.83351748
   0.18463389  0.78734621  0.38931817
   0.56347544  0.20731247  0.56559925
   0.06172421  0.04169935  0.74396168
   0.81329591  0.87284289  0.52155110
   0.18685487  0.29164471  0.74395384
   0.93910043  0.45309991  0.34502544
   0.93494519  0.28706551  0.38931156
   0.43833344  0.62300984  0.52158638
   0.18749001  0.79174599  0.61061743
   0.55954927  0.03772576  0.38929982
   0.93451982  0.96266987  0.83341944
   0.31365235  0.54369905  0.87538701
   0.68684065  0.29162292  0.74396282
   0.19103430  0.61331686  0.16673595
   0.81302322  0.20519204  0.47828830
   0.81248856  0.54170017  0.61058880
   0.31303272  0.87076060  0.43428986
   0.81344627  0.03535742  0.25605394
   0.68904231  0.95260007  0.34501364
   0.94093578  0.11361361  0.16675201
   0.93840991  0.12292801  0.52159829
   0.56348218  0.53556552  0.25601617
   0.68913168  0.79351211  0.87547050
   0.56677901  0.36448269  0.16664116
   0.43713441  0.79181256  0.74400981
   0.81349976  0.70733875  0.56564348
   0.56770347  0.87439456  0.78818654
   0.68847676  0.12302806  0.52159467
   0.18863834  0.28576682  0.25605742
   0.93501596  0.46242855  0.83332324
   0.06411993  0.20817613  0.69970000
   0.43915395  0.95819198  0.69972129
   0.31024597  0.21204761  0.83341878
   0.43508839  0.62540657  0.65491186
   0.31261540  0.54166868  0.61056469
   0.93841664  0.45725752  0.56562614
   0.68707795  0.79168471  0.74395649
   0.31015215  0.87542684  0.65492166
   0.68498512  0.78751498  0.38930532
   0.93693328  0.79164561  0.74397068
   0.06391128  0.20332380  0.34508891
   0.43945638  0.78417654  0.12476698
   0.44286455  0.12479926  0.78833390
   0.05808232  0.20235317  0.21170766
   0.06654337  0.36438698  0.16673280
   0.93864831  0.78567883  0.25600336
   0.56416330  0.20823806  0.69969421
   0.68909792  0.95826118  0.69969133
   0.68461553  0.28733959  0.38931456
   0.43866880  0.95745019  0.56571875
   0.81794058  0.37520294  0.78818968
   0.68851672  0.28568919  0.25609762
   0.18848323  0.45724003  0.56562482
   0.06626774  0.86418974  0.16665307
   0.18748491  0.29160294  0.61058328
   0.56388172  0.70246432  0.34496885
   0.31416854  0.20818933  0.69970265
   0.56362388  0.54343983  0.87545154
   0.06341557  0.70717940  0.56572882
   0.69283698  0.62474144  0.78829644
   0.31001204  0.53778009  0.38932061
   0.18826823  0.62302850  0.52157884
   0.56242843  0.87087288  0.43437028
   0.43847076  0.45739606  0.56562501
   0.43691989  0.29181214  0.74398028
   0.80642140  0.87164314  0.30026841
   0.81412229  0.70337123  0.34515098
   0.43516841  0.46189658  0.83338195
   0.68764157  0.95530512  0.47837144
   0.68923628  0.45822197  0.69969864
   0.56320166  0.87271159  0.52163590
   0.56012900  0.37541993  0.65489647
   0.81001672  0.87548105  0.65492302
   0.81275649  0.37075895  0.43432847
   0.81347566  0.53557906  0.25608666
   0.68510621  0.46255983  0.83341141
   0.18846593  0.78390573  0.12476462
   0.06422026  0.04411722  0.87536273
   0.31017627  0.37534830  0.65491342
   0.31428170  0.20301923  0.34504314
   0.81197522  0.54133367  0.74399314
   0.68548717  0.96263839  0.83346428
   0.56006974  0.87547716  0.65493000
   0.31343144  0.70715469  0.56573451
   0.31315366  0.53210620  0.12445605
   0.68308431  0.95258623  0.21182418
   0.31362120  0.20748232  0.56572045
   0.31197206  0.54170967  0.74393637
   0.68830453  0.95740227  0.56564511
   0.43747905  0.79173295  0.61059797
   0.69134658  0.61435471  0.16676827
   0.30641633  0.87160443  0.30025258
   0.31282935  0.70491659  0.47832500
   0.93762487  0.29167348  0.61056751
   0.43170143  0.62158427  0.30034140
   0.81662789  0.86418653  0.16673997
   0.55771566  0.20213403  0.21169458
   0.94112216  0.61450142  0.16677245
   0.93871251  0.79297878  0.87538819
   0.56804804  0.37471166  0.78829954
   0.06337438  0.37277479  0.52159678
   0.56324874  0.37284309  0.52158180
   0.68170008  0.12143202  0.30034058
   0.43480110  0.96196572  0.83341357
   0.18926178  0.28383603  0.12464257
   0.81794914  0.87473437  0.78828447
   0.31264477  0.37102818  0.43434667
   0.93755773  0.79168980  0.61057646
   0.43758723  0.29162065  0.61056574
   0.18971617  0.45273380  0.34506344
   0.43870823  0.28390617  0.12452128
   0.68847856  0.78555708  0.25595232
   0.18921695  0.95815538  0.69973425
   0.18931958  0.29455145  0.87551645
   0.18509584  0.12541880  0.65491616
   0.93502224  0.12541091  0.65489981
   0.30773535  0.20181878  0.21177590
   0.05976749  0.03726192  0.38934653
   0.19149931  0.11414320  0.16665960
   0.06248903  0.54171684  0.61057613
   0.93849547  0.28578635  0.25599176
   0.56258277  0.54166040  0.61055230
   0.93846666  0.95742763  0.56570770
   0.68152912  0.62153100  0.30020382
   0.93770389  0.62014531  0.43443077
   0.94316200  0.62474668  0.78827313
   0.56421094  0.70818873  0.69971040
   0.06049209  0.71212104  0.83322859
   0.93137066  0.12177090  0.30028675
   0.93926037  0.45823536  0.69969584
   0.43870701  0.78567330  0.25605072
   0.31795428  0.37445905  0.78833938
   0.43338651  0.45260339  0.21189408
   0.18822561  0.12313191  0.52153352
   0.81416877  0.70832817  0.69967019
   0.06254425  0.04159686  0.61058318
   0.56063641  0.21212437  0.83356909
   0.31352098  0.87262097  0.52155885
   0.68992835  0.28398906  0.12481941
   0.18297535  0.95234366  0.21171340
   0.68752298  0.29166119  0.61056393
   0.31248077  0.04161941  0.61062922
   0.94290368  0.12486006  0.78835960
   0.43906242  0.79385673  0.87540586
   0.81183269  0.04163622  0.74398086
   0.43813244  0.12280662  0.52157587
   0.18515964  0.62543027  0.65493588
   0.31427897  0.70812240  0.69965487
   0.93837399  0.28357179  0.12482308
   0.43817180  0.45541843  0.47831860
   0.06283916  0.70489947  0.47829597
   0.93820280  0.12051104  0.43432926
   0.43143540  0.12130815  0.30035518
   0.18792090  0.12134452  0.43438182
   0.56287369  0.04400345  0.87544074
   0.18836670  0.95727669  0.56544988
   0.68902471  0.78344354  0.12472562
   0.56286159  0.53215220  0.12457032
   0.30996479  0.03749696  0.38937716
   0.69122160  0.11377314  0.16678021
   0.80781561  0.20240937  0.21178125
   0.06357715  0.53570023  0.25606174
   0.56274625  0.70522488  0.47830672
   0.06333585  0.20742135  0.56571531
   0.55644921  0.37166696  0.30033220
   0.43931619  0.95274733  0.34499340
   0.18542531  0.96174602  0.83332836
   0.44140888  0.61329010  0.16664591
   0.93317714  0.45248612  0.21186418
   0.06272982  0.53203466  0.12464611
   0.81334339  0.37277959  0.52160589
   0.93166573  0.62179200  0.30034191
   0.31354407  0.03544163  0.25604097
   0.68741521  0.79167569  0.61060913
   0.18512472  0.46196446  0.83336167
   0.44064651  0.11367587  0.16674010
   0.31328304  0.37283728  0.52159848
   0.44304721  0.62453247  0.78835984
   0.06365634  0.03540648  0.25598942
   0.56342238  0.70747501  0.56561041
   0.93697284  0.29154435  0.74396337
   0.69301029  0.12484687  0.78837677
   0.18280403  0.45272241  0.21191818
   0.93453448  0.78737426  0.38927873
   0.68831705  0.29404378  0.87554799
   0.31649602  0.86379663  0.16668304
   0.43925508  0.45822494  0.69969838
   0.81008750  0.37534199  0.65490436
   0.68814340  0.62293637  0.52161773
   0.06009583  0.87538785  0.65492481
   0.06835048  0.87433477  0.78817061
   0.06004799  0.37537542  0.65491841
   0.68766501  0.45529434  0.47834282
   0.18882173  0.78549231  0.25595090
   0.43769925  0.12098065  0.43431382
   0.81238685  0.03219471  0.12459273
   0.93842170  0.62297678  0.52165115
   0.06259876  0.87058939  0.43427836
   0.81302866  0.53217577  0.12464200
   0.43931121  0.45261577  0.34505161