 288 288   0   0
  0.1280206E+02  0.9726678E-09  0.8423550E-09  0.4500000E-08  0.2500000E-15
  1.000000000000000E-004
  CAR 
 unknown system                          
      6.76476582     -6.01698973  301      4.29509921      1.00000000
     -6.017  0.0000E+00  0.0000E+00
     -5.974  0.0000E+00  0.0000E+00
     -5.932  0.0000E+00  0.0000E+00
     -5.889  0.0000E+00  0.0000E+00
     -5.847  0.0000E+00  0.0000E+00
     -5.804  0.0000E+00  0.0000E+00
     -5.761  0.0000E+00  0.0000E+00
     -5.719  0.0000E+00  0.0000E+00
     -5.676  0.0000E+00  0.0000E+00
     -5.634  0.0000E+00  0.0000E+00
     -5.591  0.0000E+00  0.0000E+00
     -5.548  0.0000E+00  0.0000E+00
     -5.506  0.0000E+00  0.0000E+00
     -5.463  0.0000E+00  0.0000E+00
     -5.421  0.0000E+00  0.0000E+00
     -5.378  0.1303E-15  0.5551E-17
     -5.335  0.3420E-14  0.1513E-15
     -5.293  0.7322E-13  0.3271E-14
     -5.250  0.1336E-11  0.6020E-13
     -5.207  0.2080E-10  0.9465E-12
     -5.165  0.2762E-09  0.1272E-10
     -5.122  0.3130E-08  0.1461E-09
     -5.080  0.3027E-07  0.1436E-08
     -5.037  0.2501E-06  0.1209E-07
     -4.994  0.1766E-05  0.8733E-07
     -4.952  0.1067E-04  0.5421E-06
     -4.909  0.5532E-04  0.2899E-05
     -4.867  0.2463E-03  0.1339E-04
     -4.824  0.9456E-03  0.5368E-04
     -4.781  0.3143E-02  0.1876E-03
     -4.739  0.9101E-02  0.5754E-03
     -4.696  0.2313E-01  0.1561E-02
     -4.654  0.5209E-01  0.3780E-02
     -4.611  0.1051E+00  0.8258E-02
     -4.568  0.1921E+00  0.1644E-01
     -4.526  0.3212E+00  0.3013E-01
     -4.483  0.4960E+00  0.5126E-01
     -4.441  0.7115E+00  0.8157E-01
     -4.398  0.9528E+00  0.1222E+00
     -4.355  0.1197E+01  0.1732E+00
     -4.313  0.1417E+01  0.2335E+00
     -4.270  0.1591E+01  0.3013E+00
     -4.228  0.1709E+01  0.3741E+00
     -4.185  0.1781E+01  0.4500E+00
     -4.142  0.1832E+01  0.5280E+00
     -4.100  0.1902E+01  0.6090E+00
     -4.057  0.2024E+01  0.6953E+00
     -4.015  0.2216E+01  0.7897E+00
     -3.972  0.2466E+01  0.8948E+00
     -3.929  0.2739E+01  0.1011E+01
     -3.887  0.2982E+01  0.1139E+01
     -3.844  0.3146E+01  0.1273E+01
     -3.801  0.3206E+01  0.1409E+01
     -3.759  0.3174E+01  0.1544E+01
     -3.716  0.3097E+01  0.1676E+01
     -3.674  0.3034E+01  0.1806E+01
     -3.631  0.3043E+01  0.1935E+01
     -3.588  0.3151E+01  0.2070E+01
     -3.546  0.3347E+01  0.2212E+01
     -3.503  0.3588E+01  0.2365E+01
     -3.461  0.3817E+01  0.2528E+01
     -3.418  0.3991E+01  0.2698E+01
     -3.375  0.4092E+01  0.2872E+01
     -3.333  0.4133E+01  0.3048E+01
     -3.290  0.4142E+01  0.3225E+01
     -3.248  0.4151E+01  0.3401E+01
     -3.205  0.4190E+01  0.3580E+01
     -3.162  0.4274E+01  0.3762E+01
     -3.120  0.4408E+01  0.3950E+01
     -3.077  0.4583E+01  0.4145E+01
     -3.035  0.4782E+01  0.4349E+01
     -2.992  0.4977E+01  0.4561E+01
     -2.949  0.5141E+01  0.4780E+01
     -2.907  0.5256E+01  0.5004E+01
     -2.864  0.5326E+01  0.5231E+01
     -2.822  0.5373E+01  0.5460E+01
     -2.779  0.5431E+01  0.5691E+01
     -2.736  0.5523E+01  0.5926E+01
     -2.694  0.5639E+01  0.6167E+01
     -2.651  0.5728E+01  0.6411E+01
     -2.609  0.5726E+01  0.6655E+01
     -2.566  0.5612E+01  0.6894E+01
     -2.523  0.5445E+01  0.7126E+01
     -2.481  0.5357E+01  0.7354E+01
     -2.438  0.5486E+01  0.7588E+01
     -2.395  0.5890E+01  0.7839E+01
     -2.353  0.6498E+01  0.8115E+01
     -2.310  0.7126E+01  0.8419E+01
     -2.268  0.7562E+01  0.8741E+01
     -2.225  0.7668E+01  0.9068E+01
     -2.182  0.7457E+01  0.9386E+01
     -2.140  0.7092E+01  0.9688E+01
     -2.097  0.6807E+01  0.9978E+01
     -2.055  0.6789E+01  0.1027E+02
     -2.012  0.7097E+01  0.1057E+02
     -1.969  0.7640E+01  0.1089E+02
     -1.927  0.8232E+01  0.1125E+02
     -1.884  0.8683E+01  0.1162E+02
     -1.842  0.8886E+01  0.1199E+02
     -1.799  0.8864E+01  0.1237E+02
     -1.756  0.8741E+01  0.1274E+02
     -1.714  0.8663E+01  0.1311E+02
     -1.671  0.8718E+01  0.1348E+02
     -1.629  0.8905E+01  0.1386E+02
     -1.586  0.9164E+01  0.1425E+02
     -1.543  0.9441E+01  0.1466E+02
     -1.501  0.9714E+01  0.1507E+02
     -1.458  0.9981E+01  0.1550E+02
     -1.416  0.1022E+02  0.1593E+02
     -1.373  0.1040E+02  0.1637E+02
     -1.330  0.1050E+02  0.1682E+02
     -1.288  0.1060E+02  0.1727E+02
     -1.245  0.1090E+02  0.1774E+02
     -1.203  0.1158E+02  0.1823E+02
     -1.160  0.1266E+02  0.1877E+02
     -1.117  0.1391E+02  0.1936E+02
     -1.075  0.1498E+02  0.2000E+02
     -1.032  0.1556E+02  0.2067E+02
     -0.989  0.1565E+02  0.2133E+02
     -0.947  0.1554E+02  0.2199E+02
     -0.904  0.1567E+02  0.2266E+02
     -0.862  0.1637E+02  0.2336E+02
     -0.819  0.1769E+02  0.2411E+02
     -0.776  0.1954E+02  0.2495E+02
     -0.734  0.2185E+02  0.2588E+02
     -0.691  0.2474E+02  0.2693E+02
     -0.649  0.2841E+02  0.2814E+02
     -0.606  0.3289E+02  0.2954E+02
     -0.563  0.3782E+02  0.3115E+02
     -0.521  0.4257E+02  0.3297E+02
     -0.478  0.4655E+02  0.3495E+02
     -0.436  0.4954E+02  0.3706E+02
     -0.393  0.5172E+02  0.3926E+02
     -0.350  0.5342E+02  0.4154E+02
     -0.308  0.5484E+02  0.4388E+02
     -0.265  0.5598E+02  0.4626E+02
     -0.223  0.5673E+02  0.4868E+02
     -0.180  0.5703E+02  0.5111E+02
     -0.137  0.5700E+02  0.5354E+02
     -0.095  0.5685E+02  0.5596E+02
     -0.052  0.5687E+02  0.5838E+02
     -0.010  0.5732E+02  0.6083E+02
      0.033  0.5839E+02  0.6331E+02
      0.076  0.6020E+02  0.6588E+02
      0.118  0.6276E+02  0.6855E+02
      0.161  0.6594E+02  0.7136E+02
      0.203  0.6954E+02  0.7432E+02
      0.246  0.7330E+02  0.7745E+02
      0.289  0.7694E+02  0.8072E+02
      0.331  0.8016E+02  0.8414E+02
      0.374  0.8276E+02  0.8767E+02
      0.416  0.8469E+02  0.9127E+02
      0.459  0.8605E+02  0.9494E+02
      0.502  0.8692E+02  0.9864E+02
      0.544  0.8732E+02  0.1024E+03
      0.587  0.8723E+02  0.1061E+03
      0.630  0.8669E+02  0.1098E+03
      0.672  0.8579E+02  0.1134E+03
      0.715  0.8456E+02  0.1170E+03
      0.757  0.8298E+02  0.1206E+03
      0.800  0.8107E+02  0.1240E+03
      0.843  0.7903E+02  0.1274E+03
      0.885  0.7725E+02  0.1307E+03
      0.928  0.7609E+02  0.1339E+03
      0.970  0.7570E+02  0.1371E+03
      1.013  0.7588E+02  0.1404E+03
      1.056  0.7623E+02  0.1436E+03
      1.098  0.7635E+02  0.1469E+03
      1.141  0.7604E+02  0.1501E+03
      1.183  0.7538E+02  0.1533E+03
      1.226  0.7455E+02  0.1565E+03
      1.269  0.7377E+02  0.1597E+03
      1.311  0.7307E+02  0.1628E+03
      1.354  0.7237E+02  0.1658E+03
      1.396  0.7145E+02  0.1689E+03
      1.439  0.7015E+02  0.1719E+03
      1.482  0.6852E+02  0.1748E+03
      1.524  0.6691E+02  0.1777E+03
      1.567  0.6588E+02  0.1805E+03
      1.609  0.6597E+02  0.1833E+03
      1.652  0.6734E+02  0.1861E+03
      1.695  0.6979E+02  0.1891E+03
      1.737  0.7284E+02  0.1922E+03
      1.780  0.7603E+02  0.1955E+03
      1.822  0.7909E+02  0.1988E+03
      1.865  0.8192E+02  0.2023E+03
      1.908  0.8446E+02  0.2059E+03
      1.950  0.8670E+02  0.2096E+03
      1.993  0.8868E+02  0.2134E+03
      2.036  0.9049E+02  0.2172E+03
      2.078  0.9211E+02  0.2212E+03
      2.121  0.9349E+02  0.2251E+03
      2.163  0.9460E+02  0.2292E+03
      2.206  0.9561E+02  0.2333E+03
      2.249  0.9692E+02  0.2374E+03
      2.291  0.9896E+02  0.2416E+03
      2.334  0.1020E+03  0.2459E+03
      2.376  0.1060E+03  0.2505E+03
      2.419  0.1105E+03  0.2552E+03
      2.462  0.1148E+03  0.2601E+03
      2.504  0.1186E+03  0.2651E+03
      2.547  0.1216E+03  0.2703E+03
      2.589  0.1239E+03  0.2756E+03
      2.632  0.1259E+03  0.2809E+03
      2.675  0.1277E+03  0.2864E+03
      2.717  0.1297E+03  0.2919E+03
      2.760  0.1319E+03  0.2975E+03
      2.802  0.1344E+03  0.3032E+03
      2.845  0.1373E+03  0.3091E+03
      2.888  0.1401E+03  0.3151E+03
      2.930  0.1419E+03  0.3211E+03
      2.973  0.1418E+03  0.3272E+03
      3.015  0.1391E+03  0.3331E+03
      3.058  0.1336E+03  0.3388E+03
      3.101  0.1258E+03  0.3441E+03
      3.143  0.1169E+03  0.3491E+03
      3.186  0.1080E+03  0.3537E+03
      3.228  0.1002E+03  0.3580E+03
      3.271  0.9407E+02  0.3620E+03
      3.314  0.8980E+02  0.3658E+03
      3.356  0.8709E+02  0.3695E+03
      3.399  0.8552E+02  0.3732E+03
      3.442  0.8465E+02  0.3768E+03
      3.484  0.8411E+02  0.3804E+03
      3.527  0.8358E+02  0.3839E+03
      3.569  0.8296E+02  0.3875E+03
      3.612  0.8247E+02  0.3910E+03
      3.655  0.8261E+02  0.3945E+03
      3.697  0.8390E+02  0.3981E+03
      3.740  0.8657E+02  0.4018E+03
      3.782  0.9041E+02  0.4056E+03
      3.825  0.9483E+02  0.4096E+03
      3.868  0.9915E+02  0.4139E+03
      3.910  0.1029E+03  0.4183E+03
      3.953  0.1058E+03  0.4228E+03
      3.995  0.1078E+03  0.4274E+03
      4.038  0.1089E+03  0.4320E+03
      4.081  0.1091E+03  0.4366E+03
      4.123  0.1085E+03  0.4413E+03
      4.166  0.1075E+03  0.4458E+03
      4.208  0.1062E+03  0.4504E+03
      4.251  0.1049E+03  0.4548E+03
      4.294  0.1036E+03  0.4592E+03
      4.336  0.1025E+03  0.4636E+03
      4.379  0.1018E+03  0.4680E+03
      4.421  0.1014E+03  0.4723E+03
      4.464  0.1011E+03  0.4766E+03
      4.507  0.1004E+03  0.4809E+03
      4.549  0.9934E+02  0.4851E+03
      4.592  0.9807E+02  0.4893E+03
      4.634  0.9714E+02  0.4934E+03
      4.677  0.9707E+02  0.4975E+03
      4.720  0.9808E+02  0.5017E+03
      4.762  0.1001E+03  0.5060E+03
      4.805  0.1026E+03  0.5104E+03
      4.848  0.1053E+03  0.5148E+03
      4.890  0.1076E+03  0.5194E+03
      4.933  0.1091E+03  0.5241E+03
      4.975  0.1094E+03  0.5287E+03
      5.018  0.1081E+03  0.5333E+03
      5.061  0.1043E+03  0.5378E+03
      5.103  0.9706E+02  0.5419E+03
      5.146  0.8572E+02  0.5456E+03
      5.188  0.7067E+02  0.5486E+03
      5.231  0.5359E+02  0.5509E+03
      5.274  0.3692E+02  0.5524E+03
      5.316  0.2288E+02  0.5534E+03
      5.359  0.1265E+02  0.5540E+03
      5.401  0.6208E+01  0.5542E+03
      5.444  0.2689E+01  0.5543E+03
      5.487  0.1024E+01  0.5544E+03
      5.529  0.3415E+00  0.5544E+03
      5.572  0.9948E-01  0.5544E+03
      5.614  0.2525E-01  0.5544E+03
      5.657  0.5570E-02  0.5544E+03
      5.700  0.1066E-02  0.5544E+03
      5.742  0.1765E-03  0.5544E+03
      5.785  0.2526E-04  0.5544E+03
      5.827  0.3120E-05  0.5544E+03
      5.870  0.3322E-06  0.5544E+03
      5.913  0.3044E-07  0.5544E+03
      5.955  0.2399E-08  0.5544E+03
      5.998  0.1624E-09  0.5544E+03
      6.040  0.9441E-11  0.5544E+03
      6.083  0.4703E-12  0.5544E+03
      6.126  0.1928E-13  0.5544E+03
      6.168  0.3257E-15  0.5544E+03
      6.211  0.0000E+00  0.5544E+03
      6.253  0.0000E+00  0.5544E+03
      6.296  0.0000E+00  0.5544E+03
      6.339  0.0000E+00  0.5544E+03
      6.381  0.0000E+00  0.5544E+03
      6.424  0.0000E+00  0.5544E+03
      6.467  0.0000E+00  0.5544E+03
      6.509  0.0000E+00  0.5544E+03
      6.552  0.0000E+00  0.5544E+03
      6.594  0.0000E+00  0.5544E+03
      6.637  0.0000E+00  0.5544E+03
      6.680  0.0000E+00  0.5544E+03
      6.722  0.0000E+00  0.5544E+03
      6.765  0.0000E+00  0.5544E+03
