<?xml version="1.0" encoding="ISO-8859-1"?>
<modeling>
 <generator>
  <i name="program" type="string">vasp </i>
  <i name="version" type="string">5.4.4.18Apr17-6-g9f103f2a35  </i>
  <i name="subversion" type="string">(build Sep 27 2018 12:46:37) complex + VL-xray_ parallel </i>
  <i name="platform" type="string">LLNL_Quartz_ifc </i>
  <i name="date" type="string">2021 09 26 </i>
  <i name="time" type="string">17:59:29 </i>
 </generator>
 <incar>
  <i type="int" name="ISTART">     2</i>
  <i type="string" name="PREC">accurate</i>
  <i type="string" name="ALGO"> Fast</i>
  <i type="int" name="ICHARG">     2</i>
  <i type="int" name="INIWAV">     1</i>
  <i type="int" name="NELM">   200</i>
  <i type="int" name="NELMIN">     4</i>
  <i type="int" name="IBRION">     2</i>
  <i name="EDIFF">      0.00000100</i>
  <i type="int" name="NSW">     5</i>
  <i type="int" name="ISIF">     2</i>
  <i type="int" name="ISYM">     2</i>
  <i name="ENCUT">    450.00000000</i>
  <i name="POTIM">      0.25000000</i>
  <i type="string" name="LREAL"> Auto</i>
  <i type="int" name="ISMEAR">     0</i>
  <i name="SIGMA">      0.15000000</i>
  <i type="logical" name="LWAVE"> F  </i>
  <i type="logical" name="LCHARG"> F  </i>
  <i type="int" name="ICORELEVEL">     0</i>
  <i type="int" name="CLNT">     1</i>
  <i type="int" name="CLN">     1</i>
  <i type="int" name="INCAR     ">     0</i>
  <i name="CLZ">      0.00000000</i>
  <v type="int" name="KPOINT_BSE">    -1     0     0     0</v>
  <i type="int" name="NELM">   200</i>
 </incar>
 <structure name="primitive_cell" >
  <crystal>
   <varray name="basis" >
    <v>       9.72667804       0.00000000       0.00000000 </v>
    <v>       0.00000000       8.42355028       0.00000000 </v>
    <v>       0.00000000       0.00000000      45.00000000 </v>
   </varray>
   <i name="volume">   3686.99226691 </i>
   <varray name="rec_basis" >
    <v>       0.10281002       0.00000000       0.00000000 </v>
    <v>       0.00000000       0.11871479       0.00000000 </v>
    <v>       0.00000000       0.00000000       0.02222222 </v>
   </varray>
  </crystal>
  <varray name="positions" >
   <v>       0.05403878      -0.29891092       0.21126113 </v>
   <v>      -0.05941916      -0.21238023       0.25521625 </v>
   <v>       0.06507703      -0.46243690       0.25511351 </v>
   <v>      -0.05870636      -0.38773681       0.16651813 </v>
   <v>       0.17887998       0.45134979       0.21132934 </v>
   <v>      -0.07076750       0.45126760       0.21128418 </v>
   <v>       0.17828851      -0.04864484       0.21129271 </v>
   <v>       0.30403649      -0.29921010       0.21125309 </v>
   <v>      -0.07073925      -0.04871928       0.21128864 </v>
   <v>      -0.19611586      -0.29895257       0.21123427 </v>
   <v>       0.06775225      -0.13652165       0.16660407 </v>
   <v>       0.19040953      -0.21226009       0.25519936 </v>
   <v>       0.19173501      -0.38835361       0.16637486 </v>
   <v>      -0.18224158      -0.13803602       0.16670511 </v>
   <v>      -0.18400147      -0.46253897       0.25549769 </v>
   <v>       0.06527437       0.03719199       0.25512982 </v>
   <v>       0.06749621       0.36315590       0.16664644 </v>
   <v>       0.31532552      -0.46220562       0.25509515 </v>
   <v>       0.31821549      -0.13719993       0.16570086 </v>
   <v>      -0.30902125      -0.21266350       0.25539189 </v>
   <v>      -0.30811412      -0.38749178       0.16663125 </v>
   <v>      -0.06517601      -0.21802795       0.12411399 </v>
   <v>      -0.05862443       0.11189134       0.16651613 </v>
   <v>      -0.05906633       0.28743380       0.25538068 </v>
   <v>      -0.18491461       0.03752887       0.25518958 </v>
   <v>       0.18594651      -0.21719707       0.12422595 </v>
   <v>      -0.18222608       0.36183476       0.16669845 </v>
   <v>       0.05696559      -0.47401746       0.12411903 </v>
   <v>       0.17830693      -0.37621325       0.29944149 </v>
   <v>       0.42894099       0.45119696       0.21140577 </v>
   <v>      -0.07207894      -0.37635437       0.29958888 </v>
   <v>       0.05426549       0.20106953       0.21126316 </v>
   <v>      -0.32108835       0.45131340       0.21124345 </v>
   <v>       0.42906820      -0.04869324       0.21136598 </v>
   <v>      -0.32110412      -0.04873136       0.21128194 </v>
   <v>       0.19159139       0.11129282       0.16639430 </v>
   <v>       0.19064874       0.28739817       0.25516997 </v>
   <v>       0.05300394      -0.12596647       0.29953733 </v>
   <v>       0.31520463       0.03767727       0.25512832 </v>
   <v>       0.44062254      -0.21228436       0.25525738 </v>
   <v>       0.44152211      -0.38939155       0.16641385 </v>
   <v>       0.31851415       0.36326008       0.16575606 </v>
   <v>       0.05724243       0.02685372       0.12405343 </v>
   <v>      -0.19087577      -0.47205736       0.12390888 </v>
   <v>       0.05266285       0.37392368       0.29955800 </v>
   <v>      -0.19573566       0.20129636       0.21118786 </v>
   <v>       0.30451839       0.20054534       0.21118811 </v>
   <v>      -0.44582645      -0.29910458       0.21110216 </v>
   <v>       0.30820666      -0.47378251       0.12396790 </v>
   <v>       0.30292245      -0.12589852       0.29958883 </v>
   <v>      -0.19666249      -0.12658135       0.29944559 </v>
   <v>      -0.43429950      -0.46252249       0.25516316 </v>
   <v>      -0.43330844      -0.13742200       0.16646568 </v>
   <v>      -0.30815939       0.11245313       0.16662565 </v>
   <v>      -0.31205613      -0.21799274       0.12417639 </v>
   <v>      -0.30913492       0.28766271       0.25528968 </v>
   <v>      -0.19061988       0.02786072       0.12396631 </v>
   <v>       0.30922805       0.02589008       0.12387814 </v>
   <v>      -0.06564733       0.28165727       0.12410932 </v>
   <v>       0.30285607       0.37399756       0.29960972 </v>
   <v>      -0.19721267       0.37339698       0.29947083 </v>
   <v>       0.18558634       0.28298259       0.12425714 </v>
   <v>       0.42802066      -0.37599796       0.29942146 </v>
   <v>      -0.32227238      -0.37644145       0.29958794 </v>
   <v>       0.43727074      -0.21622033       0.12395104 </v>
   <v>       0.17801494       0.12386980       0.29958215 </v>
   <v>      -0.07210007       0.12358457       0.29965512 </v>
   <v>       0.44060890       0.28739904       0.25506687 </v>
   <v>       0.44189878       0.11043825       0.16634975 </v>
   <v>      -0.43450665       0.03749050       0.25502839 </v>
   <v>      -0.43358642       0.36250889       0.16645174 </v>
   <v>       0.06526985      -0.29101178       0.34398132 </v>
   <v>      -0.31251137       0.28198636       0.12417192 </v>
   <v>      -0.44107322      -0.47308672       0.12383172 </v>
   <v>      -0.18521386      -0.29129841       0.34396895 </v>
   <v>      -0.05961560       0.45927146       0.34410080 </v>
   <v>      -0.44556896       0.20083719       0.21108916 </v>
   <v>      -0.44710034      -0.12613946       0.29963579 </v>
   <v>       0.43679486       0.28362914       0.12403134 </v>
   <v>       0.42800669       0.12370775       0.29940771 </v>
   <v>       0.19034160       0.45893323       0.34409344 </v>
   <v>      -0.05974686      -0.04079214       0.34410297 </v>
   <v>      -0.32182807       0.12340577       0.29942578 </v>
   <v>       0.31510367      -0.29092793       0.34399774 </v>
   <v>       0.18998235      -0.04103102       0.34400016 </v>
   <v>      -0.44039313       0.02691684       0.12384708 </v>
   <v>      -0.44719407       0.37379326       0.29960919 </v>
   <v>      -0.31017499       0.45885696       0.34400341 </v>
   <v>       0.06516043       0.20878157       0.34390020 </v>
   <v>      -0.30992170      -0.04095172       0.34407363 </v>
   <v>       0.44013766       0.45863322       0.34401419 </v>
   <v>       0.44016024      -0.04107233       0.34406019 </v>
   <v>      -0.18536943       0.20855822       0.34396097 </v>
   <v>      -0.43510293      -0.29101351       0.34395458 </v>
   <v>       0.31489782       0.20905080       0.34395042 </v>
   <v>       0.06158463      -0.45874092       0.38842781 </v>
   <v>      -0.06366570      -0.20889824       0.38844491 </v>
   <v>       0.18606961      -0.20877278       0.38837173 </v>
   <v>      -0.18861953      -0.45858717       0.38833201 </v>
   <v>       0.31157511      -0.45886180       0.38844310 </v>
   <v>       0.06133698       0.04133916       0.38842893 </v>
   <v>      -0.43472061       0.20895777       0.34402676 </v>
   <v>      -0.06317577       0.29157480       0.38847891 </v>
   <v>      -0.31364608      -0.20875404       0.38837960 </v>
   <v>       0.18644531       0.29109582       0.38838059 </v>
   <v>      -0.18872778       0.04169879       0.38831808 </v>
   <v>       0.43635615      -0.20883418       0.38842477 </v>
   <v>       0.31144539       0.04136388       0.38839721 </v>
   <v>      -0.31359947       0.29127758       0.38838606 </v>
   <v>      -0.43848555      -0.45869673       0.38841200 </v>
   <v>       0.43657594       0.29120454       0.38837510 </v>
   <v>      -0.43847687       0.04131377       0.38838584 </v>
   <v>      -0.06722017      -0.37496593       0.43325129 </v>
   <v>       0.18332362      -0.37503648       0.43311412 </v>
   <v>       0.05836171      -0.12532758       0.43311395 </v>
   <v>       0.05856344       0.37493080       0.43312867 </v>
   <v>      -0.19150602      -0.12515949       0.43307881 </v>
   <v>       0.30828119      -0.12478928       0.43309364 </v>
   <v>      -0.19159418       0.37510068       0.43307928 </v>
   <v>      -0.31653852      -0.37510121       0.43309312 </v>
   <v>       0.30855297       0.37483892       0.43303511 </v>
   <v>       0.43350556      -0.37495754       0.43311074 </v>
   <v>      -0.06660435       0.12489881       0.43309251 </v>
   <v>       0.18362809       0.12495778       0.43310353 </v>
   <v>      -0.44162157      -0.12498408       0.43308675 </v>
   <v>      -0.31655542       0.12506505       0.43298950 </v>
   <v>       0.43353011       0.12490701       0.43304815 </v>
   <v>      -0.44154243       0.37475409       0.43307929 </v>
   <v>       0.06803957      -0.28930697       0.47748356 </v>
   <v>      -0.05709026       0.46066089       0.47741014 </v>
   <v>      -0.18203746      -0.28931606       0.47743524 </v>
   <v>      -0.05736415      -0.03941138       0.47735236 </v>
   <v>       0.19268254       0.46063023       0.47743978 </v>
   <v>       0.31769160      -0.28948303       0.47735981 </v>
   <v>       0.19296078      -0.03930209       0.47748433 </v>
   <v>      -0.30701916       0.46048267       0.47747035 </v>
   <v>       0.06783467       0.21079853       0.47746091 </v>
   <v>      -0.30726186      -0.03917670       0.47747482 </v>
   <v>       0.44274750       0.46075715       0.47747001 </v>
   <v>       0.44285768      -0.03931264       0.47745204 </v>
   <v>      -0.43231761      -0.28938492       0.47741413 </v>
   <v>      -0.18204054       0.21075084       0.47752410 </v>
   <v>       0.31794661       0.21056065       0.47743872 </v>
   <v>      -0.43212233       0.21081394       0.47747769 </v>
   <v>      -0.06770242      -0.21135902      -0.47768359 </v>
   <v>       0.05715332      -0.46074877      -0.47751954 </v>
   <v>       0.18245007      -0.21073715      -0.47747526 </v>
   <v>      -0.19261938      -0.46062606      -0.47747719 </v>
   <v>       0.30740487      -0.46108954      -0.47750140 </v>
   <v>       0.05701717       0.03904287      -0.47744617 </v>
   <v>      -0.06768171       0.28885220      -0.47751368 </v>
   <v>      -0.31818243      -0.21097845      -0.47762178 </v>
   <v>       0.18241571       0.28919693      -0.47750650 </v>
   <v>       0.30707035       0.03858007      -0.47776640 </v>
   <v>      -0.19270786       0.03928076      -0.47752027 </v>
   <v>       0.43225511      -0.21074969      -0.47754535 </v>
   <v>      -0.31748956       0.28838194      -0.47770743 </v>
   <v>      -0.44290953      -0.46078111      -0.47746488 </v>
   <v>       0.43255348       0.28848890      -0.47768285 </v>
   <v>      -0.44258768       0.03864806      -0.47763411 </v>
   <v>       0.06762249      -0.27655134      -0.12381919 </v>
   <v>      -0.18312360      -0.27620535      -0.12361350 </v>
   <v>      -0.06042348       0.46836903      -0.12385728 </v>
   <v>       0.18972427       0.46797588      -0.12392890 </v>
   <v>      -0.06017579      -0.03157305      -0.12387360 </v>
   <v>       0.31813699      -0.27583403      -0.12372089 </v>
   <v>       0.18985516      -0.03174232      -0.12391413 </v>
   <v>       0.06823104       0.22323432      -0.12384473 </v>
   <v>      -0.31028678       0.46801322      -0.12387991 </v>
   <v>      -0.31037386      -0.03153580      -0.12388310 </v>
   <v>       0.43976504       0.46791676      -0.12407043 </v>
   <v>       0.43976071      -0.03177480      -0.12389467 </v>
   <v>      -0.18262036       0.22380823      -0.12377287 </v>
   <v>      -0.43248168      -0.27517151      -0.12375995 </v>
   <v>       0.31764582       0.22382248      -0.12389350 </v>
   <v>      -0.05844052      -0.37495142      -0.43310616 </v>
   <v>       0.06662692      -0.12485072      -0.43308395 </v>
   <v>       0.19158490      -0.37509569      -0.43309838 </v>
   <v>      -0.18346568      -0.12504338      -0.43311887 </v>
   <v>       0.06677702       0.37513288      -0.43310890 </v>
   <v>       0.31677612      -0.12523494      -0.43315062 </v>
   <v>      -0.43188288       0.22396336      -0.12386600 </v>
   <v>      -0.30830068      -0.37496444      -0.43312267 </v>
   <v>      -0.18352942       0.37507491      -0.43309444 </v>
   <v>      -0.05817740       0.12498847      -0.43325057 </v>
   <v>       0.31658077       0.37492069      -0.43311473 </v>
   <v>       0.44176922      -0.37483925      -0.43316245 </v>
   <v>       0.19157278       0.12520956      -0.43310107 </v>
   <v>      -0.43337659      -0.12513036      -0.43317524 </v>
   <v>      -0.30839243       0.12504999      -0.43311857 </v>
   <v>       0.44155731       0.12504082      -0.43308896 </v>
   <v>      -0.43352673       0.37497902      -0.43315652 </v>
   <v>      -0.06628536      -0.36233801      -0.16598445 </v>
   <v>       0.18332132      -0.36254179      -0.16649124 </v>
   <v>       0.05854548      -0.11237230      -0.16646265 </v>
   <v>       0.05859589       0.38822099      -0.16640090 </v>
   <v>      -0.19132088      -0.11222928      -0.16645631 </v>
   <v>       0.30851714      -0.11242937      -0.16643496 </v>
   <v>      -0.19170714       0.38781748      -0.16646573 </v>
   <v>       0.30838671       0.38746599      -0.16648949 </v>
   <v>      -0.31632077      -0.36208582      -0.16649398 </v>
   <v>       0.43354197      -0.36228327      -0.16647987 </v>
   <v>      -0.06642457       0.13777125      -0.16642683 </v>
   <v>       0.18368561       0.13790910      -0.16643550 </v>
   <v>      -0.44137253      -0.11243054      -0.16651022 </v>
   <v>      -0.31638950       0.13775500      -0.16647559 </v>
   <v>       0.43345702       0.13784222      -0.16644988 </v>
   <v>      -0.44154688       0.38743191      -0.16651195 </v>
   <v>       0.06315802      -0.29161469      -0.38840630 </v>
   <v>      -0.06209486       0.45823772      -0.38846972 </v>
   <v>      -0.18680008      -0.29125638      -0.38846773 </v>
   <v>      -0.06217919      -0.04196892      -0.38865762 </v>
   <v>       0.18817685       0.45861729      -0.38850163 </v>
   <v>       0.18801194      -0.04151332      -0.38850623 </v>
   <v>       0.31326783      -0.29159219      -0.38841080 </v>
   <v>      -0.31212695       0.45806867      -0.38855616 </v>
   <v>      -0.31198322      -0.04158589      -0.38865910 </v>
   <v>       0.06325133       0.20840137      -0.38851572 </v>
   <v>       0.43842042       0.45856909      -0.38843530 </v>
   <v>       0.43845769      -0.04124882      -0.38842256 </v>
   <v>      -0.18690782       0.20844773      -0.38847612 </v>
   <v>      -0.43640118      -0.29129349      -0.38845403 </v>
   <v>       0.31295445       0.20818102      -0.38859566 </v>
   <v>      -0.05544195      -0.20011490      -0.21109762 </v>
   <v>       0.07085976      -0.45055334      -0.21125242 </v>
   <v>       0.19441242      -0.20032395      -0.21113837 </v>
   <v>      -0.43719728       0.20824414      -0.38875176 </v>
   <v>      -0.18008177      -0.45069235      -0.21106456 </v>
   <v>       0.31997634      -0.45051349      -0.21108762 </v>
   <v>       0.06930324       0.04940550      -0.21097455 </v>
   <v>      -0.05542383       0.29896020      -0.21120359 </v>
   <v>      -0.30517865      -0.20068188      -0.21107881 </v>
   <v>      -0.18097213       0.04961113      -0.21081985 </v>
   <v>       0.19492928       0.29919612      -0.21116540 </v>
   <v>       0.44479110      -0.20073303      -0.21115784 </v>
   <v>       0.32008361       0.04941130      -0.21118714 </v>
   <v>      -0.43030407      -0.45020599      -0.21086488 </v>
   <v>      -0.30503251       0.29915372      -0.21115379 </v>
   <v>       0.44467269       0.29900803      -0.21120516 </v>
   <v>      -0.43077037       0.04972349      -0.21098471 </v>
   <v>       0.05977201      -0.45935089      -0.34412901 </v>
   <v>      -0.06520886      -0.20941163      -0.34414573 </v>
   <v>       0.18492858      -0.20951187      -0.34414202 </v>
   <v>      -0.19035428      -0.45932034      -0.34411883 </v>
   <v>       0.30972549      -0.45933730      -0.34411462 </v>
   <v>       0.06001292       0.04047381      -0.34402320 </v>
   <v>      -0.06539320       0.29079713      -0.34413083 </v>
   <v>      -0.31547409      -0.20939692      -0.34409194 </v>
   <v>       0.18483385       0.29076688      -0.34403627 </v>
   <v>      -0.19011668       0.04063174      -0.34400792 </v>
   <v>       0.30978349       0.04070271      -0.34412376 </v>
   <v>       0.43473546      -0.20949444      -0.34400212 </v>
   <v>      -0.43996878      -0.45948821      -0.34408656 </v>
   <v>      -0.31531580       0.29071016      -0.34404673 </v>
   <v>       0.43506380       0.29072671      -0.34392614 </v>
   <v>      -0.44034632       0.04073588      -0.34417585 </v>
   <v>       0.05928541      -0.28776114      -0.25501911 </v>
   <v>      -0.06560477       0.46246460      -0.25506056 </v>
   <v>       0.18461493       0.46241347      -0.25513159 </v>
   <v>      -0.18928440      -0.28872311      -0.25535335 </v>
   <v>       0.30981984      -0.28778829      -0.25517057 </v>
   <v>      -0.06710377      -0.03818463      -0.25522275 </v>
   <v>       0.18376723      -0.03744306      -0.25517322 </v>
   <v>      -0.31621591       0.46274189      -0.25494810 </v>
   <v>       0.05973801       0.21260611      -0.25507978 </v>
   <v>      -0.31531648      -0.03750000      -0.25520914 </v>
   <v>       0.43471894       0.46289876      -0.25530294 </v>
   <v>       0.43386986      -0.03743797      -0.25526408 </v>
   <v>       0.30957549       0.21246848      -0.25510271 </v>
   <v>      -0.18980609       0.21183262      -0.25538268 </v>
   <v>      -0.44031897      -0.28776161      -0.25511537 </v>
   <v>      -0.43979434       0.21258780      -0.25514587 </v>
   <v>      -0.05355169      -0.37334458      -0.29948470 </v>
   <v>       0.07206151      -0.12337152      -0.29971731 </v>
   <v>       0.19664624      -0.37345317      -0.29964579 </v>
   <v>      -0.17816702      -0.12369280      -0.29956885 </v>
   <v>       0.07143936       0.37637561      -0.29940748 </v>
   <v>       0.32155163      -0.12351484      -0.29942495 </v>
   <v>      -0.17784992       0.37673846      -0.29974636 </v>
   <v>      -0.30269587      -0.37432441      -0.29953584 </v>
   <v>      -0.05343351       0.12607738      -0.29957153 </v>
   <v>       0.32228246       0.37629746      -0.29962970 </v>
   <v>       0.19625752       0.12583510      -0.29964078 </v>
   <v>       0.44685595      -0.37355226      -0.29958567 </v>
   <v>      -0.42866107      -0.12356046      -0.29944303 </v>
   <v>      -0.30272808       0.12636387      -0.29960098 </v>
   <v>       0.44669205       0.12586165      -0.29965719 </v>
   <v>      -0.42782702       0.37626864      -0.29959225 </v>
  </varray>
 </structure>
 <varray name="primitive_index" >
  <v type="int" >        1 </v>
  <v type="int" >      238 </v>
  <v type="int" >      220 </v>
  <v type="int" >      193 </v>
  <v type="int" >       10 </v>
  <v type="int" >      242 </v>
  <v type="int" >      109 </v>
  <v type="int" >      192 </v>
  <v type="int" >       71 </v>
  <v type="int" >       81 </v>
  <v type="int" >      208 </v>
  <v type="int" >       89 </v>
  <v type="int" >       35 </v>
  <v type="int" >       32 </v>
  <v type="int" >      288 </v>
  <v type="int" >      263 </v>
  <v type="int" >       55 </v>
  <v type="int" >      243 </v>
  <v type="int" >      283 </v>
  <v type="int" >      128 </v>
  <v type="int" >      117 </v>
  <v type="int" >      155 </v>
  <v type="int" >      158 </v>
  <v type="int" >      252 </v>
  <v type="int" >      222 </v>
  <v type="int" >      262 </v>
  <v type="int" >      183 </v>
  <v type="int" >      265 </v>
  <v type="int" >      162 </v>
  <v type="int" >       28 </v>
  <v type="int" >       38 </v>
  <v type="int" >      160 </v>
  <v type="int" >      205 </v>
  <v type="int" >       15 </v>
  <v type="int" >      161 </v>
  <v type="int" >      126 </v>
  <v type="int" >       45 </v>
  <v type="int" >      147 </v>
  <v type="int" >      278 </v>
  <v type="int" >      226 </v>
  <v type="int" >      227 </v>
  <v type="int" >      286 </v>
  <v type="int" >       48 </v>
  <v type="int" >       14 </v>
  <v type="int" >       26 </v>
  <v type="int" >       70 </v>
  <v type="int" >       61 </v>
  <v type="int" >      251 </v>
  <v type="int" >      197 </v>
  <v type="int" >      108 </v>
  <v type="int" >      277 </v>
  <v type="int" >       33 </v>
  <v type="int" >      191 </v>
  <v type="int" >       90 </v>
  <v type="int" >       25 </v>
  <v type="int" >      203 </v>
  <v type="int" >       99 </v>
  <v type="int" >       23 </v>
  <v type="int" >      133 </v>
  <v type="int" >       52 </v>
  <v type="int" >      104 </v>
  <v type="int" >      189 </v>
  <v type="int" >      100 </v>
  <v type="int" >      144 </v>
  <v type="int" >       83 </v>
  <v type="int" >      142 </v>
  <v type="int" >      145 </v>
  <v type="int" >        5 </v>
  <v type="int" >      143 </v>
  <v type="int" >      261 </v>
  <v type="int" >      122 </v>
  <v type="int" >      112 </v>
  <v type="int" >      267 </v>
  <v type="int" >       43 </v>
  <v type="int" >      118 </v>
  <v type="int" >      190 </v>
  <v type="int" >       63 </v>
  <v type="int" >      255 </v>
  <v type="int" >      279 </v>
  <v type="int" >      169 </v>
  <v type="int" >      120 </v>
  <v type="int" >       92 </v>
  <v type="int" >      170 </v>
  <v type="int" >      257 </v>
  <v type="int" >      254 </v>
  <v type="int" >      214 </v>
  <v type="int" >      124 </v>
  <v type="int" >       34 </v>
  <v type="int" >      153 </v>
  <v type="int" >       24 </v>
  <v type="int" >       95 </v>
  <v type="int" >      236 </v>
  <v type="int" >      172 </v>
  <v type="int" >      123 </v>
  <v type="int" >      258 </v>
  <v type="int" >      247 </v>
  <v type="int" >      198 </v>
  <v type="int" >      229 </v>
  <v type="int" >       86 </v>
  <v type="int" >       57 </v>
  <v type="int" >      246 </v>
  <v type="int" >       50 </v>
  <v type="int" >      273 </v>
  <v type="int" >      156 </v>
  <v type="int" >      105 </v>
  <v type="int" >       17 </v>
  <v type="int" >       79 </v>
  <v type="int" >      134 </v>
  <v type="int" >      232 </v>
  <v type="int" >      171 </v>
  <v type="int" >      248 </v>
  <v type="int" >      244 </v>
  <v type="int" >      282 </v>
  <v type="int" >      168 </v>
  <v type="int" >      211 </v>
  <v type="int" >      256 </v>
  <v type="int" >       46 </v>
  <v type="int" >      240 </v>
  <v type="int" >       29 </v>
  <v type="int" >       94 </v>
  <v type="int" >      215 </v>
  <v type="int" >      281 </v>
  <v type="int" >      231 </v>
  <v type="int" >      223 </v>
  <v type="int" >      239 </v>
  <v type="int" >      115 </v>
  <v type="int" >      184 </v>
  <v type="int" >      136 </v>
  <v type="int" >       62 </v>
  <v type="int" >      166 </v>
  <v type="int" >      268 </v>
  <v type="int" >      179 </v>
  <v type="int" >      132 </v>
  <v type="int" >      217 </v>
  <v type="int" >      176 </v>
  <v type="int" >      249 </v>
  <v type="int" >      185 </v>
  <v type="int" >       91 </v>
  <v type="int" >       19 </v>
  <v type="int" >      130 </v>
  <v type="int" >      207 </v>
  <v type="int" >      206 </v>
  <v type="int" >      175 </v>
  <v type="int" >       11 </v>
  <v type="int" >      116 </v>
  <v type="int" >      178 </v>
  <v type="int" >      107 </v>
  <v type="int" >      241 </v>
  <v type="int" >      230 </v>
  <v type="int" >      218 </v>
  <v type="int" >      209 </v>
  <v type="int" >       18 </v>
  <v type="int" >      225 </v>
  <v type="int" >      266 </v>
  <v type="int" >       93 </v>
  <v type="int" >      187 </v>
  <v type="int" >       87 </v>
  <v type="int" >      141 </v>
  <v type="int" >      111 </v>
  <v type="int" >      181 </v>
  <v type="int" >       58 </v>
  <v type="int" >      101 </v>
  <v type="int" >      151 </v>
  <v type="int" >      125 </v>
  <v type="int" >      274 </v>
  <v type="int" >        2 </v>
  <v type="int" >      154 </v>
  <v type="int" >      212 </v>
  <v type="int" >       27 </v>
  <v type="int" >      234 </v>
  <v type="int" >      173 </v>
  <v type="int" >       97 </v>
  <v type="int" >       41 </v>
  <v type="int" >      131 </v>
  <v type="int" >       39 </v>
  <v type="int" >       72 </v>
  <v type="int" >       12 </v>
  <v type="int" >      148 </v>
  <v type="int" >      276 </v>
  <v type="int" >      250 </v>
  <v type="int" >       40 </v>
  <v type="int" >       13 </v>
  <v type="int" >      264 </v>
  <v type="int" >      146 </v>
  <v type="int" >      259 </v>
  <v type="int" >      216 </v>
  <v type="int" >       21 </v>
  <v type="int" >      233 </v>
  <v type="int" >       98 </v>
  <v type="int" >      235 </v>
  <v type="int" >       68 </v>
  <v type="int" >       16 </v>
  <v type="int" >       59 </v>
  <v type="int" >       66 </v>
  <v type="int" >      177 </v>
  <v type="int" >        6 </v>
  <v type="int" >       75 </v>
  <v type="int" >        7 </v>
  <v type="int" >       73 </v>
  <v type="int" >      150 </v>
  <v type="int" >      271 </v>
  <v type="int" >      152 </v>
  <v type="int" >      129 </v>
  <v type="int" >      188 </v>
  <v type="int" >      174 </v>
  <v type="int" >      221 </v>
  <v type="int" >      269 </v>
  <v type="int" >      103 </v>
  <v type="int" >      180 </v>
  <v type="int" >      245 </v>
  <v type="int" >       82 </v>
  <v type="int" >      201 </v>
  <v type="int" >      194 </v>
  <v type="int" >       51 </v>
  <v type="int" >      280 </v>
  <v type="int" >      102 </v>
  <v type="int" >        3 </v>
  <v type="int" >      228 </v>
  <v type="int" >        4 </v>
  <v type="int" >      260 </v>
  <v type="int" >      167 </v>
  <v type="int" >       30 </v>
  <v type="int" >       77 </v>
  <v type="int" >      149 </v>
  <v type="int" >      284 </v>
  <v type="int" >       36 </v>
  <v type="int" >      275 </v>
  <v type="int" >      106 </v>
  <v type="int" >       60 </v>
  <v type="int" >       67 </v>
  <v type="int" >      199 </v>
  <v type="int" >       88 </v>
  <v type="int" >      253 </v>
  <v type="int" >       54 </v>
  <v type="int" >      114 </v>
  <v type="int" >       85 </v>
  <v type="int" >      121 </v>
  <v type="int" >      182 </v>
  <v type="int" >      127 </v>
  <v type="int" >       44 </v>
  <v type="int" >      196 </v>
  <v type="int" >      157 </v>
  <v type="int" >      113 </v>
  <v type="int" >       42 </v>
  <v type="int" >       49 </v>
  <v type="int" >      135 </v>
  <v type="int" >       69 </v>
  <v type="int" >      210 </v>
  <v type="int" >      200 </v>
  <v type="int" >      213 </v>
  <v type="int" >      186 </v>
  <v type="int" >       53 </v>
  <v type="int" >       31 </v>
  <v type="int" >       76 </v>
  <v type="int" >      159 </v>
  <v type="int" >      140 </v>
  <v type="int" >      204 </v>
  <v type="int" >      119 </v>
  <v type="int" >      110 </v>
  <v type="int" >      202 </v>
  <v type="int" >       84 </v>
  <v type="int" >      287 </v>
  <v type="int" >      237 </v>
  <v type="int" >      137 </v>
  <v type="int" >        9 </v>
  <v type="int" >       80 </v>
  <v type="int" >       78 </v>
  <v type="int" >       20 </v>
  <v type="int" >       64 </v>
  <v type="int" >       96 </v>
  <v type="int" >      272 </v>
  <v type="int" >      138 </v>
  <v type="int" >      164 </v>
  <v type="int" >      195 </v>
  <v type="int" >       74 </v>
  <v type="int" >      163 </v>
  <v type="int" >       65 </v>
  <v type="int" >      219 </v>
  <v type="int" >      285 </v>
  <v type="int" >       56 </v>
  <v type="int" >      139 </v>
  <v type="int" >      270 </v>
  <v type="int" >      165 </v>
  <v type="int" >        8 </v>
  <v type="int" >       22 </v>
  <v type="int" >      224 </v>
  <v type="int" >       37 </v>
  <v type="int" >       47 </v>
 </varray>
 <kpoints>
  <generation param="Gamma">
   <v type="int" name="divisions">       4        4        1 </v>
   <v name="usershift">      0.00000000       0.00000000       0.00000000 </v>
   <v name="genvec1">      0.25000000       0.00000000       0.00000000 </v>
   <v name="genvec2">      0.00000000       0.25000000       0.00000000 </v>
   <v name="genvec3">      0.00000000       0.00000000       1.00000000 </v>
   <v name="shift">      0.00000000       0.00000000       0.00000000 </v>
  </generation>
  <varray name="kpointlist" >
   <v>       0.00000000       0.00000000       0.00000000 </v>
   <v>       0.25000000       0.00000000       0.00000000 </v>
   <v>       0.50000000       0.00000000       0.00000000 </v>
   <v>       0.00000000       0.25000000       0.00000000 </v>
   <v>       0.25000000       0.25000000       0.00000000 </v>
   <v>       0.50000000       0.25000000       0.00000000 </v>
   <v>      -0.25000000       0.25000000       0.00000000 </v>
   <v>       0.00000000       0.50000000       0.00000000 </v>
   <v>       0.25000000       0.50000000       0.00000000 </v>
   <v>       0.50000000       0.50000000       0.00000000 </v>
  </varray>
  <varray name="weights" >
   <v>       0.06250000 </v>
   <v>       0.12500000 </v>
   <v>       0.06250000 </v>
   <v>       0.12500000 </v>
   <v>       0.12500000 </v>
   <v>       0.12500000 </v>
   <v>       0.12500000 </v>
   <v>       0.06250000 </v>
   <v>       0.12500000 </v>
   <v>       0.06250000 </v>
  </varray>
 </kpoints>
 <parameters>
  <separator name="general" >
   <i type="string" name="SYSTEM">unknown system</i>
   <i type="logical" name="LCOMPAT"> F  </i>
  </separator>
  <separator name="electronic" >
   <i type="string" name="PREC">accura</i>
   <i name="ENMAX">    450.00000000</i>
   <i name="ENAUG">    838.43500000</i>
   <i name="EDIFF">      0.00000100</i>
   <i type="int" name="IALGO">    68</i>
   <i type="int" name="IWAVPR">    11</i>
   <i type="int" name="NBANDS">  1386</i>
   <i name="NELECT">   2297.00000000</i>
   <i type="int" name="TURBO">     0</i>
   <i type="int" name="IRESTART">     0</i>
   <i type="int" name="NREBOOT">     0</i>
   <i type="int" name="NMIN">     0</i>
   <i name="EREF">      0.00000000</i>
   <separator name="electronic smearing" >
    <i type="int" name="ISMEAR">     0</i>
    <i name="SIGMA">      0.15000000</i>
    <i name="KSPACING">      0.50000000</i>
    <i type="logical" name="KGAMMA"> T  </i>
   </separator>
   <separator name="electronic projectors" >
    <i type="logical" name="LREAL"> T  </i>
    <v name="ROPT">     -0.00025000     -0.00025000</v>
    <i type="int" name="LMAXPAW">  -100</i>
    <i type="int" name="LMAXMIX">     2</i>
    <i type="logical" name="NLSPLINE"> F  </i>
   </separator>
   <separator name="electronic startup" >
    <i type="int" name="ISTART">     0</i>
    <i type="int" name="ICHARG">     2</i>
    <i type="int" name="INIWAV">     1</i>
   </separator>
   <separator name="electronic spin" >
    <i type="int" name="ISPIN">     1</i>
    <i type="logical" name="LNONCOLLINEAR"> F  </i>
    <v name="MAGMOM">      1.00000000      1.00000000      1.00000000      1.00000000      1.00000000      1.00000000      1.00000000      1.00000000      1.00000000      1.00000000      1.00000000      1.00000000      1.00000000      1.00000000      1.00000000      1.00000000      1.00000000      1.00000000      1.00000000      1.00000000
      1.00000000      1.00000000      1.00000000      1.00000000      1.00000000      1.00000000      1.00000000      1.00000000      1.00000000      1.00000000      1.00000000      1.00000000      1.00000000      1.00000000      1.00000000      1.00000000      1.00000000      1.00000000      1.00000000      1.00000000
      1.00000000      1.00000000      1.00000000      1.00000000      1.00000000      1.00000000      1.00000000      1.00000000      1.00000000      1.00000000      1.00000000      1.00000000      1.00000000      1.00000000      1.00000000      1.00000000      1.00000000      1.00000000      1.00000000      1.00000000
      1.00000000      1.00000000      1.00000000      1.00000000      1.00000000      1.00000000      1.00000000      1.00000000      1.00000000      1.00000000      1.00000000      1.00000000      1.00000000      1.00000000      1.00000000      1.00000000      1.00000000      1.00000000      1.00000000      1.00000000
      1.00000000      1.00000000      1.00000000      1.00000000      1.00000000      1.00000000      1.00000000      1.00000000      1.00000000      1.00000000      1.00000000      1.00000000      1.00000000      1.00000000      1.00000000      1.00000000      1.00000000      1.00000000      1.00000000      1.00000000
      1.00000000      1.00000000      1.00000000      1.00000000      1.00000000      1.00000000      1.00000000      1.00000000      1.00000000      1.00000000      1.00000000      1.00000000      1.00000000      1.00000000      1.00000000      1.00000000      1.00000000      1.00000000      1.00000000      1.00000000
      1.00000000      1.00000000      1.00000000      1.00000000      1.00000000      1.00000000      1.00000000      1.00000000      1.00000000      1.00000000      1.00000000      1.00000000      1.00000000      1.00000000      1.00000000      1.00000000      1.00000000      1.00000000      1.00000000      1.00000000
      1.00000000      1.00000000      1.00000000      1.00000000      1.00000000      1.00000000      1.00000000      1.00000000      1.00000000      1.00000000      1.00000000      1.00000000      1.00000000      1.00000000      1.00000000      1.00000000      1.00000000      1.00000000      1.00000000      1.00000000
      1.00000000      1.00000000      1.00000000      1.00000000      1.00000000      1.00000000      1.00000000      1.00000000      1.00000000      1.00000000      1.00000000      1.00000000      1.00000000      1.00000000      1.00000000      1.00000000      1.00000000      1.00000000      1.00000000      1.00000000
      1.00000000      1.00000000      1.00000000      1.00000000      1.00000000      1.00000000      1.00000000      1.00000000      1.00000000      1.00000000      1.00000000      1.00000000      1.00000000      1.00000000      1.00000000      1.00000000      1.00000000      1.00000000      1.00000000      1.00000000
      1.00000000      1.00000000      1.00000000      1.00000000      1.00000000      1.00000000      1.00000000      1.00000000      1.00000000      1.00000000      1.00000000      1.00000000      1.00000000      1.00000000      1.00000000      1.00000000      1.00000000      1.00000000      1.00000000      1.00000000
      1.00000000      1.00000000      1.00000000      1.00000000      1.00000000      1.00000000      1.00000000      1.00000000      1.00000000      1.00000000      1.00000000      1.00000000      1.00000000      1.00000000      1.00000000      1.00000000      1.00000000      1.00000000      1.00000000      1.00000000
      1.00000000      1.00000000      1.00000000      1.00000000      1.00000000      1.00000000      1.00000000      1.00000000      1.00000000      1.00000000      1.00000000      1.00000000      1.00000000      1.00000000      1.00000000      1.00000000      1.00000000      1.00000000      1.00000000      1.00000000
      1.00000000      1.00000000      1.00000000      1.00000000      1.00000000      1.00000000      1.00000000      1.00000000      1.00000000      1.00000000      1.00000000      1.00000000      1.00000000      1.00000000      1.00000000      1.00000000      1.00000000      1.00000000      1.00000000      1.00000000
      1.00000000      1.00000000      1.00000000      1.00000000      1.00000000      1.00000000      1.00000000      1.00000000</v>
    <i name="NUPDOWN">     -1.00000000</i>
    <i type="logical" name="LSORBIT"> F  </i>
    <v name="SAXIS">      0.00000000      0.00000000      1.00000000</v>
    <i type="logical" name="LSPIRAL"> F  </i>
    <v name="QSPIRAL">      0.00000000      0.00000000      0.00000000</v>
    <i type="logical" name="LZEROZ"> F  </i>
   </separator>
   <separator name="electronic exchange-correlation" >
    <i type="logical" name="LASPH"> F  </i>
    <i type="logical" name="LMETAGGA"> F  </i>
   </separator>
   <separator name="electronic convergence" >
    <i type="int" name="NELM">   200</i>
    <i type="int" name="NELMDL">     0</i>
    <i type="int" name="NELMIN">     4</i>
    <i name="ENINI">    450.00000000</i>
    <separator name="electronic convergence detail" >
     <i type="logical" name="LDIAG"> T  </i>
     <i type="logical" name="LSUBROT"> F  </i>
     <i name="WEIMIN">      0.00100000</i>
     <i name="EBREAK">      0.00000000</i>
     <i name="DEPER">      0.30000000</i>
     <i type="int" name="NRMM">     4</i>
     <i name="TIME">      0.40000000</i>
    </separator>
   </separator>
   <separator name="electronic mixer" >
    <i name="AMIX">      0.40000000</i>
    <i name="BMIX">      1.00000000</i>
    <i name="AMIN">      0.10000000</i>
    <i name="AMIX_MAG">      1.60000000</i>
    <i name="BMIX_MAG">      1.00000000</i>
    <separator name="electronic mixer details" >
     <i type="int" name="IMIX">     4</i>
     <i type="logical" name="MIXFIRST"> F  </i>
     <i type="int" name="MAXMIX">   -45</i>
     <i name="WC">    100.00000000</i>
     <i type="int" name="INIMIX">     1</i>
     <i type="int" name="MIXPRE">     1</i>
     <i type="int" name="MREMOVE">     5</i>
    </separator>
   </separator>
   <separator name="electronic dipolcorrection" >
    <i type="logical" name="LDIPOL"> F  </i>
    <i type="logical" name="LMONO"> F  </i>
    <i type="int" name="IDIPOL">     0</i>
    <i name="EPSILON">      1.00000000</i>
    <v name="DIPOL">   -100.00000000   -100.00000000   -100.00000000</v>
    <i name="EFIELD">      0.00000000</i>
   </separator>
  </separator>
  <separator name="grids" >
   <i type="int" name="NGX">    70</i>
   <i type="int" name="NGY">    60</i>
   <i type="int" name="NGZ">   320</i>
   <i type="int" name="NGXF">   140</i>
   <i type="int" name="NGYF">   120</i>
   <i type="int" name="NGZF">   640</i>
   <i type="logical" name="ADDGRID"> F  </i>
  </separator>
  <separator name="ionic" >
   <i type="int" name="NSW">     5</i>
   <i type="int" name="IBRION">     2</i>
   <i type="int" name="MDALGO">     0</i>
   <i type="int" name="ISIF">     2</i>
   <i name="PSTRESS">      0.00000000</i>
   <i name="EDIFFG">      0.00001000</i>
   <i type="int" name="NFREE">     1</i>
   <i name="POTIM">      0.25000000</i>
   <i name="SMASS">     -3.00000000</i>
   <i name="SCALEE">      1.00000000</i>
  </separator>
  <separator name="ionic md" >
   <i name="TEBEG">      0.00010000</i>
   <i name="TEEND">      0.00010000</i>
   <i type="int" name="NBLOCK">     1</i>
   <i type="int" name="KBLOCK">     5</i>
   <i type="int" name="NPACO">   256</i>
   <i name="APACO">     16.00000000</i>
  </separator>
  <separator name="symmetry" >
   <i type="int" name="ISYM">     2</i>
   <i name="SYMPREC">      0.00001000</i>
  </separator>
  <separator name="dos" >
   <i type="int" name="LORBIT">     0</i>
   <v name="RWIGS">     -1.00000000     -1.00000000</v>
   <i type="int" name="NEDOS">   301</i>
   <i name="EMIN">     10.00000000</i>
   <i name="EMAX">    -10.00000000</i>
   <i name="EFERMI">      0.00000000</i>
  </separator>
  <separator name="writing" >
   <i type="int" name="NWRITE">     2</i>
   <i type="logical" name="LWAVE"> F  </i>
   <i type="logical" name="LDOWNSAMPLE"> F  </i>
   <i type="logical" name="LCHARG"> F  </i>
   <i type="logical" name="LPARD"> F  </i>
   <i type="logical" name="LVTOT"> F  </i>
   <i type="logical" name="LVHAR"> F  </i>
   <i type="logical" name="LELF"> F  </i>
   <i type="logical" name="LOPTICS"> F  </i>
   <v name="STM">      0.00000000      0.00000000      0.00000000      0.00000000      0.00000000      0.00000000      0.00000000</v>
  </separator>
  <separator name="performance" >
   <i type="int" name="NPAR">    14</i>
   <i type="int" name="NSIM">     4</i>
   <i type="int" name="NBLK">    -1</i>
   <i type="logical" name="LPLANE"> T  </i>
   <i type="logical" name="LSCALAPACK"> T  </i>
   <i type="logical" name="LSCAAWARE"> T  </i>
   <i type="logical" name="LSCALU"> F  </i>
   <i type="logical" name="LASYNC"> F  </i>
   <i type="logical" name="LORBITALREAL"> F  </i>
  </separator>
  <separator name="miscellaneous" >
   <i type="int" name="IDIOT">     3</i>
   <i type="int" name="ISPECIAL">     0</i>
   <i type="logical" name="LMUSIC"> F  </i>
   <v name="POMASS">     55.84700000     54.93800000</v>
   <v name="DARWINR">      0.00000000      0.00000000</v>
   <v name="DARWINV">      1.00000000      1.00000000</v>
   <i type="logical" name="LCORR"> T  </i>
  </separator>
  <i type="logical" name="GGA_COMPAT"> T  </i>
  <i type="logical" name="LBERRY"> F  </i>
  <i type="int" name="ICORELEVEL">     0</i>
  <i type="logical" name="LDAU"> F  </i>
  <i type="int" name="I_CONSTRAINED_M">     0</i>
  <separator name="electronic exchange-correlation" >
   <i type="string" name="GGA">--</i>
   <i type="int" name="VOSKOWN">     0</i>
   <i type="logical" name="LHFCALC"> F  </i>
   <i type="string" name="PRECFOCK"></i>
   <i type="logical" name="LSYMGRAD"> F  </i>
   <i type="logical" name="LHFONE"> F  </i>
   <i type="logical" name="LRHFCALC"> F  </i>
   <i type="logical" name="LTHOMAS"> F  </i>
   <i type="logical" name="LMODELHF"> F  </i>
   <i name="ENCUT4O">     -1.00000000</i>
   <i type="int" name="EXXOEP">     0</i>
   <i type="int" name="FOURORBIT">     0</i>
   <i name="AEXX">      0.00000000</i>
   <i name="HFALPHA">      0.00000000</i>
   <i name="MCALPHA">      0.00000000</i>
   <i name="ALDAX">      1.00000000</i>
   <i name="AGGAX">      1.00000000</i>
   <i name="ALDAC">      1.00000000</i>
   <i name="AGGAC">      1.00000000</i>
   <i type="int" name="NKREDX">     1</i>
   <i type="int" name="NKREDY">     1</i>
   <i type="int" name="NKREDZ">     1</i>
   <i type="logical" name="SHIFTRED"> F  </i>
   <i type="logical" name="ODDONLY"> F  </i>
   <i type="logical" name="EVENONLY"> F  </i>
   <i type="int" name="LMAXFOCK">     0</i>
   <i type="int" name="NMAXFOCKAE">     0</i>
   <i type="logical" name="LFOCKAEDFT"> F  </i>
   <i name="HFSCREEN">      0.00000000</i>
   <i name="HFSCREENC">      0.00000000</i>
   <i type="int" name="NBANDSGWLOW">     0</i>
  </separator>
  <separator name="vdW DFT" >
   <i type="logical" name="LUSE_VDW"> F  </i>
   <i name="Zab_VDW">     -0.84910000</i>
   <i name="PARAM1">      0.12340000</i>
   <i name="PARAM2">      1.00000000</i>
   <i name="PARAM3">      0.00000000</i>
  </separator>
  <separator name="model GW" >
   <i type="int" name="MODEL_GW">     0</i>
   <i name="MODEL_EPS0">      7.68123389</i>
   <i name="MODEL_ALPHA">      1.00000000</i>
  </separator>
  <separator name="linear response parameters" >
   <i type="logical" name="LEPSILON"> F  </i>
   <i type="logical" name="LRPA"> F  </i>
   <i type="logical" name="LNABLA"> F  </i>
   <i type="logical" name="LVEL"> F  </i>
   <i type="int" name="KINTER">     0</i>
   <i name="CSHIFT">      0.10000000</i>
   <i name="OMEGAMAX">     -1.00000000</i>
   <i name="DEG_THRESHOLD">      0.00200000</i>
   <i name="RTIME">     -0.10000000</i>
   <i name="WPLASMAI">      0.00000000</i>
   <v name="DFIELD">      0.00000000      0.00000000      0.00000000</v>
   <v name="WPLASMA">      0.00000000      0.00000000      0.00000000      0.00000000      0.00000000      0.00000000      0.00000000      0.00000000      0.00000000</v>
  </separator>
  <separator name="orbital magnetization" >
   <i type="logical" name="NUCIND"> F  </i>
   <v name="MAGPOS">      0.00000000      0.00000000      0.00000000</v>
   <i type="logical" name="LNICSALL"> T  </i>
   <i type="logical" name="ORBITALMAG"> F  </i>
   <i type="logical" name="LMAGBLOCH"> F  </i>
   <i type="logical" name="LCHIMAG"> F  </i>
   <i type="logical" name="LGAUGE"> T  </i>
   <i type="int" name="MAGATOM">     0</i>
   <v name="MAGDIPOL">      0.00000000      0.00000000      0.00000000</v>
   <v name="AVECCONST">      0.00000000      0.00000000      0.00000000</v>
  </separator>
  <separator name="response functions" >
   <i type="logical" name="LADDER"> F  </i>
   <i type="logical" name="LRPAFORCE"> F  </i>
   <i type="logical" name="LFXC"> F  </i>
   <i type="logical" name="LHARTREE"> T  </i>
   <i type="int" name="IBSE">     0</i>
   <v type="int" name="KPOINT">    -1     0     0     0</v>
   <i type="logical" name="LTCTE"> F  </i>
   <i type="logical" name="LTETE"> F  </i>
   <i type="logical" name="LTRIPLET"> F  </i>
   <i type="logical" name="LFXCEPS"> F  </i>
   <i type="logical" name="LFXHEG"> F  </i>
   <i type="int" name="NATURALO">     2</i>
   <i type="logical" name="L2ORDER"> F  </i>
   <i type="logical" name="LMP2LT"> F  </i>
   <i type="logical" name="LUSEW"> F  </i>
   <i name="ENCUTGW">     -2.00000000</i>
   <i name="ENCUTGWSOFT">     -2.00000000</i>
   <i name="ENCUTLF">     -1.00000000</i>
   <i type="int" name="LMAXMP2">    -1</i>
   <i name="SCISSOR">      0.00000000</i>
   <i type="int" name="NOMEGA">     0</i>
   <i type="int" name="NOMEGAR">     0</i>
   <i type="int" name="NBANDSGW">    -1</i>
   <i type="int" name="NBANDSO">    -1</i>
   <i type="int" name="NBANDSV">    -1</i>
   <i type="int" name="NELM">   200</i>
   <i type="int" name="NELMHF">     1</i>
   <i type="int" name="DIM">     3</i>
   <i type="int" name="ANTIRES">     0</i>
   <i name="OMEGAMAX">    -30.00000000</i>
   <i name="OMEGAMIN">    -30.00000000</i>
   <i name="OMEGATL">   -200.00000000</i>
   <i type="int" name="OMEGAGRID">   140</i>
   <i name="CSHIFT">     -0.10000000</i>
   <i type="logical" name="SELFENERGY"> F  </i>
   <i type="logical" name="LSPECTRAL"> F  </i>
   <i type="logical" name="LSPECTRALGW"> F  </i>
   <i type="logical" name="LSINGLES"> F  </i>
   <i type="logical" name="LFERMIGW"> F  </i>
   <i type="logical" name="ODDONLYGW"> F  </i>
   <i type="logical" name="EVENONLYGW"> F  </i>
   <i type="int" name="NKREDLFX">     1</i>
   <i type="int" name="NKREDLFY">     1</i>
   <i type="int" name="NKREDLFZ">     1</i>
   <i type="int" name="MAXMEM">  2800</i>
   <i type="int" name="TELESCOPE">     0</i>
   <i type="int" name="TAUPAR">     1</i>
   <i type="int" name="OMEGAPAR">    -1</i>
   <i name="LAMBDA">      1.00000000</i>
  </separator>
  <separator name="External order field" >
   <i name="OFIELD_KAPPA">      0.00000000</i>
   <v name="OFIELD_K">      0.00000000      0.00000000      0.00000000</v>
   <i name="OFIELD_Q6_NEAR">      0.00000000</i>
   <i name="OFIELD_Q6_FAR">      0.00000000</i>
   <i name="OFIELD_A">      0.00000000</i>
  </separator>
 </parameters>
 <atominfo>
  <atoms>     288 </atoms>
  <types>       2 </types>
  <array name="atoms" >
   <dimension dim="1">ion</dimension>
   <field type="string">element</field>
   <field type="int">atomtype</field>
   <set>
    <rc><c>Fe</c><c>   1</c></rc>
    <rc><c>Fe</c><c>   1</c></rc>
    <rc><c>Fe</c><c>   1</c></rc>
    <rc><c>Fe</c><c>   1</c></rc>
    <rc><c>Fe</c><c>   1</c></rc>
    <rc><c>Fe</c><c>   1</c></rc>
    <rc><c>Fe</c><c>   1</c></rc>
    <rc><c>Fe</c><c>   1</c></rc>
    <rc><c>Fe</c><c>   1</c></rc>
    <rc><c>Fe</c><c>   1</c></rc>
    <rc><c>Fe</c><c>   1</c></rc>
    <rc><c>Fe</c><c>   1</c></rc>
    <rc><c>Fe</c><c>   1</c></rc>
    <rc><c>Fe</c><c>   1</c></rc>
    <rc><c>Fe</c><c>   1</c></rc>
    <rc><c>Fe</c><c>   1</c></rc>
    <rc><c>Fe</c><c>   1</c></rc>
    <rc><c>Fe</c><c>   1</c></rc>
    <rc><c>Fe</c><c>   1</c></rc>
    <rc><c>Fe</c><c>   1</c></rc>
    <rc><c>Fe</c><c>   1</c></rc>
    <rc><c>Fe</c><c>   1</c></rc>
    <rc><c>Fe</c><c>   1</c></rc>
    <rc><c>Fe</c><c>   1</c></rc>
    <rc><c>Fe</c><c>   1</c></rc>
    <rc><c>Fe</c><c>   1</c></rc>
    <rc><c>Fe</c><c>   1</c></rc>
    <rc><c>Fe</c><c>   1</c></rc>
    <rc><c>Fe</c><c>   1</c></rc>
    <rc><c>Fe</c><c>   1</c></rc>
    <rc><c>Fe</c><c>   1</c></rc>
    <rc><c>Fe</c><c>   1</c></rc>
    <rc><c>Fe</c><c>   1</c></rc>
    <rc><c>Fe</c><c>   1</c></rc>
    <rc><c>Fe</c><c>   1</c></rc>
    <rc><c>Fe</c><c>   1</c></rc>
    <rc><c>Fe</c><c>   1</c></rc>
    <rc><c>Fe</c><c>   1</c></rc>
    <rc><c>Fe</c><c>   1</c></rc>
    <rc><c>Fe</c><c>   1</c></rc>
    <rc><c>Fe</c><c>   1</c></rc>
    <rc><c>Fe</c><c>   1</c></rc>
    <rc><c>Fe</c><c>   1</c></rc>
    <rc><c>Fe</c><c>   1</c></rc>
    <rc><c>Fe</c><c>   1</c></rc>
    <rc><c>Fe</c><c>   1</c></rc>
    <rc><c>Fe</c><c>   1</c></rc>
    <rc><c>Fe</c><c>   1</c></rc>
    <rc><c>Fe</c><c>   1</c></rc>
    <rc><c>Fe</c><c>   1</c></rc>
    <rc><c>Fe</c><c>   1</c></rc>
    <rc><c>Fe</c><c>   1</c></rc>
    <rc><c>Fe</c><c>   1</c></rc>
    <rc><c>Fe</c><c>   1</c></rc>
    <rc><c>Fe</c><c>   1</c></rc>
    <rc><c>Fe</c><c>   1</c></rc>
    <rc><c>Fe</c><c>   1</c></rc>
    <rc><c>Fe</c><c>   1</c></rc>
    <rc><c>Fe</c><c>   1</c></rc>
    <rc><c>Fe</c><c>   1</c></rc>
    <rc><c>Fe</c><c>   1</c></rc>
    <rc><c>Fe</c><c>   1</c></rc>
    <rc><c>Fe</c><c>   1</c></rc>
    <rc><c>Fe</c><c>   1</c></rc>
    <rc><c>Fe</c><c>   1</c></rc>
    <rc><c>Fe</c><c>   1</c></rc>
    <rc><c>Fe</c><c>   1</c></rc>
    <rc><c>Fe</c><c>   1</c></rc>
    <rc><c>Fe</c><c>   1</c></rc>
    <rc><c>Fe</c><c>   1</c></rc>
    <rc><c>Fe</c><c>   1</c></rc>
    <rc><c>Fe</c><c>   1</c></rc>
    <rc><c>Fe</c><c>   1</c></rc>
    <rc><c>Fe</c><c>   1</c></rc>
    <rc><c>Fe</c><c>   1</c></rc>
    <rc><c>Fe</c><c>   1</c></rc>
    <rc><c>Fe</c><c>   1</c></rc>
    <rc><c>Fe</c><c>   1</c></rc>
    <rc><c>Fe</c><c>   1</c></rc>
    <rc><c>Fe</c><c>   1</c></rc>
    <rc><c>Fe</c><c>   1</c></rc>
    <rc><c>Fe</c><c>   1</c></rc>
    <rc><c>Fe</c><c>   1</c></rc>
    <rc><c>Fe</c><c>   1</c></rc>
    <rc><c>Fe</c><c>   1</c></rc>
    <rc><c>Fe</c><c>   1</c></rc>
    <rc><c>Fe</c><c>   1</c></rc>
    <rc><c>Fe</c><c>   1</c></rc>
    <rc><c>Fe</c><c>   1</c></rc>
    <rc><c>Fe</c><c>   1</c></rc>
    <rc><c>Fe</c><c>   1</c></rc>
    <rc><c>Fe</c><c>   1</c></rc>
    <rc><c>Fe</c><c>   1</c></rc>
    <rc><c>Fe</c><c>   1</c></rc>
    <rc><c>Fe</c><c>   1</c></rc>
    <rc><c>Fe</c><c>   1</c></rc>
    <rc><c>Fe</c><c>   1</c></rc>
    <rc><c>Fe</c><c>   1</c></rc>
    <rc><c>Fe</c><c>   1</c></rc>
    <rc><c>Fe</c><c>   1</c></rc>
    <rc><c>Fe</c><c>   1</c></rc>
    <rc><c>Fe</c><c>   1</c></rc>
    <rc><c>Fe</c><c>   1</c></rc>
    <rc><c>Fe</c><c>   1</c></rc>
    <rc><c>Fe</c><c>   1</c></rc>
    <rc><c>Fe</c><c>   1</c></rc>
    <rc><c>Fe</c><c>   1</c></rc>
    <rc><c>Fe</c><c>   1</c></rc>
    <rc><c>Fe</c><c>   1</c></rc>
    <rc><c>Fe</c><c>   1</c></rc>
    <rc><c>Fe</c><c>   1</c></rc>
    <rc><c>Fe</c><c>   1</c></rc>
    <rc><c>Fe</c><c>   1</c></rc>
    <rc><c>Fe</c><c>   1</c></rc>
    <rc><c>Fe</c><c>   1</c></rc>
    <rc><c>Fe</c><c>   1</c></rc>
    <rc><c>Fe</c><c>   1</c></rc>
    <rc><c>Fe</c><c>   1</c></rc>
    <rc><c>Fe</c><c>   1</c></rc>
    <rc><c>Fe</c><c>   1</c></rc>
    <rc><c>Fe</c><c>   1</c></rc>
    <rc><c>Fe</c><c>   1</c></rc>
    <rc><c>Fe</c><c>   1</c></rc>
    <rc><c>Fe</c><c>   1</c></rc>
    <rc><c>Fe</c><c>   1</c></rc>
    <rc><c>Fe</c><c>   1</c></rc>
    <rc><c>Fe</c><c>   1</c></rc>
    <rc><c>Fe</c><c>   1</c></rc>
    <rc><c>Fe</c><c>   1</c></rc>
    <rc><c>Fe</c><c>   1</c></rc>
    <rc><c>Fe</c><c>   1</c></rc>
    <rc><c>Fe</c><c>   1</c></rc>
    <rc><c>Fe</c><c>   1</c></rc>
    <rc><c>Fe</c><c>   1</c></rc>
    <rc><c>Fe</c><c>   1</c></rc>
    <rc><c>Fe</c><c>   1</c></rc>
    <rc><c>Fe</c><c>   1</c></rc>
    <rc><c>Fe</c><c>   1</c></rc>
    <rc><c>Fe</c><c>   1</c></rc>
    <rc><c>Fe</c><c>   1</c></rc>
    <rc><c>Fe</c><c>   1</c></rc>
    <rc><c>Fe</c><c>   1</c></rc>
    <rc><c>Fe</c><c>   1</c></rc>
    <rc><c>Fe</c><c>   1</c></rc>
    <rc><c>Fe</c><c>   1</c></rc>
    <rc><c>Fe</c><c>   1</c></rc>
    <rc><c>Fe</c><c>   1</c></rc>
    <rc><c>Fe</c><c>   1</c></rc>
    <rc><c>Fe</c><c>   1</c></rc>
    <rc><c>Fe</c><c>   1</c></rc>
    <rc><c>Fe</c><c>   1</c></rc>
    <rc><c>Fe</c><c>   1</c></rc>
    <rc><c>Fe</c><c>   1</c></rc>
    <rc><c>Fe</c><c>   1</c></rc>
    <rc><c>Fe</c><c>   1</c></rc>
    <rc><c>Fe</c><c>   1</c></rc>
    <rc><c>Fe</c><c>   1</c></rc>
    <rc><c>Fe</c><c>   1</c></rc>
    <rc><c>Fe</c><c>   1</c></rc>
    <rc><c>Fe</c><c>   1</c></rc>
    <rc><c>Fe</c><c>   1</c></rc>
    <rc><c>Fe</c><c>   1</c></rc>
    <rc><c>Fe</c><c>   1</c></rc>
    <rc><c>Fe</c><c>   1</c></rc>
    <rc><c>Fe</c><c>   1</c></rc>
    <rc><c>Fe</c><c>   1</c></rc>
    <rc><c>Fe</c><c>   1</c></rc>
    <rc><c>Fe</c><c>   1</c></rc>
    <rc><c>Fe</c><c>   1</c></rc>
    <rc><c>Fe</c><c>   1</c></rc>
    <rc><c>Fe</c><c>   1</c></rc>
    <rc><c>Fe</c><c>   1</c></rc>
    <rc><c>Fe</c><c>   1</c></rc>
    <rc><c>Fe</c><c>   1</c></rc>
    <rc><c>Fe</c><c>   1</c></rc>
    <rc><c>Fe</c><c>   1</c></rc>
    <rc><c>Fe</c><c>   1</c></rc>
    <rc><c>Fe</c><c>   1</c></rc>
    <rc><c>Fe</c><c>   1</c></rc>
    <rc><c>Fe</c><c>   1</c></rc>
    <rc><c>Fe</c><c>   1</c></rc>
    <rc><c>Fe</c><c>   1</c></rc>
    <rc><c>Fe</c><c>   1</c></rc>
    <rc><c>Fe</c><c>   1</c></rc>
    <rc><c>Fe</c><c>   1</c></rc>
    <rc><c>Fe</c><c>   1</c></rc>
    <rc><c>Fe</c><c>   1</c></rc>
    <rc><c>Fe</c><c>   1</c></rc>
    <rc><c>Fe</c><c>   1</c></rc>
    <rc><c>Fe</c><c>   1</c></rc>
    <rc><c>Fe</c><c>   1</c></rc>
    <rc><c>Fe</c><c>   1</c></rc>
    <rc><c>Fe</c><c>   1</c></rc>
    <rc><c>Fe</c><c>   1</c></rc>
    <rc><c>Fe</c><c>   1</c></rc>
    <rc><c>Fe</c><c>   1</c></rc>
    <rc><c>Fe</c><c>   1</c></rc>
    <rc><c>Fe</c><c>   1</c></rc>
    <rc><c>Fe</c><c>   1</c></rc>
    <rc><c>Fe</c><c>   1</c></rc>
    <rc><c>Fe</c><c>   1</c></rc>
    <rc><c>Fe</c><c>   1</c></rc>
    <rc><c>Fe</c><c>   1</c></rc>
    <rc><c>Fe</c><c>   1</c></rc>
    <rc><c>Fe</c><c>   1</c></rc>
    <rc><c>Fe</c><c>   1</c></rc>
    <rc><c>Fe</c><c>   1</c></rc>
    <rc><c>Fe</c><c>   1</c></rc>
    <rc><c>Fe</c><c>   1</c></rc>
    <rc><c>Fe</c><c>   1</c></rc>
    <rc><c>Fe</c><c>   1</c></rc>
    <rc><c>Fe</c><c>   1</c></rc>
    <rc><c>Fe</c><c>   1</c></rc>
    <rc><c>Fe</c><c>   1</c></rc>
    <rc><c>Fe</c><c>   1</c></rc>
    <rc><c>Fe</c><c>   1</c></rc>
    <rc><c>Fe</c><c>   1</c></rc>
    <rc><c>Fe</c><c>   1</c></rc>
    <rc><c>Fe</c><c>   1</c></rc>
    <rc><c>Fe</c><c>   1</c></rc>
    <rc><c>Fe</c><c>   1</c></rc>
    <rc><c>Fe</c><c>   1</c></rc>
    <rc><c>Fe</c><c>   1</c></rc>
    <rc><c>Fe</c><c>   1</c></rc>
    <rc><c>Fe</c><c>   1</c></rc>
    <rc><c>Fe</c><c>   1</c></rc>
    <rc><c>Fe</c><c>   1</c></rc>
    <rc><c>Fe</c><c>   1</c></rc>
    <rc><c>Fe</c><c>   1</c></rc>
    <rc><c>Fe</c><c>   1</c></rc>
    <rc><c>Fe</c><c>   1</c></rc>
    <rc><c>Fe</c><c>   1</c></rc>
    <rc><c>Fe</c><c>   1</c></rc>
    <rc><c>Fe</c><c>   1</c></rc>
    <rc><c>Fe</c><c>   1</c></rc>
    <rc><c>Fe</c><c>   1</c></rc>
    <rc><c>Fe</c><c>   1</c></rc>
    <rc><c>Fe</c><c>   1</c></rc>
    <rc><c>Fe</c><c>   1</c></rc>
    <rc><c>Fe</c><c>   1</c></rc>
    <rc><c>Fe</c><c>   1</c></rc>
    <rc><c>Fe</c><c>   1</c></rc>
    <rc><c>Fe</c><c>   1</c></rc>
    <rc><c>Fe</c><c>   1</c></rc>
    <rc><c>Fe</c><c>   1</c></rc>
    <rc><c>Fe</c><c>   1</c></rc>
    <rc><c>Fe</c><c>   1</c></rc>
    <rc><c>Fe</c><c>   1</c></rc>
    <rc><c>Fe</c><c>   1</c></rc>
    <rc><c>Fe</c><c>   1</c></rc>
    <rc><c>Fe</c><c>   1</c></rc>
    <rc><c>Fe</c><c>   1</c></rc>
    <rc><c>Fe</c><c>   1</c></rc>
    <rc><c>Fe</c><c>   1</c></rc>
    <rc><c>Fe</c><c>   1</c></rc>
    <rc><c>Fe</c><c>   1</c></rc>
    <rc><c>Fe</c><c>   1</c></rc>
    <rc><c>Fe</c><c>   1</c></rc>
    <rc><c>Fe</c><c>   1</c></rc>
    <rc><c>Fe</c><c>   1</c></rc>
    <rc><c>Fe</c><c>   1</c></rc>
    <rc><c>Fe</c><c>   1</c></rc>
    <rc><c>Fe</c><c>   1</c></rc>
    <rc><c>Fe</c><c>   1</c></rc>
    <rc><c>Fe</c><c>   1</c></rc>
    <rc><c>Fe</c><c>   1</c></rc>
    <rc><c>Fe</c><c>   1</c></rc>
    <rc><c>Fe</c><c>   1</c></rc>
    <rc><c>Fe</c><c>   1</c></rc>
    <rc><c>Fe</c><c>   1</c></rc>
    <rc><c>Fe</c><c>   1</c></rc>
    <rc><c>Fe</c><c>   1</c></rc>
    <rc><c>Fe</c><c>   1</c></rc>
    <rc><c>Fe</c><c>   1</c></rc>
    <rc><c>Fe</c><c>   1</c></rc>
    <rc><c>Fe</c><c>   1</c></rc>
    <rc><c>Fe</c><c>   1</c></rc>
    <rc><c>Fe</c><c>   1</c></rc>
    <rc><c>Fe</c><c>   1</c></rc>
    <rc><c>Fe</c><c>   1</c></rc>
    <rc><c>Fe</c><c>   1</c></rc>
    <rc><c>Mn</c><c>   2</c></rc>
    <rc><c>Mn</c><c>   2</c></rc>
    <rc><c>Mn</c><c>   2</c></rc>
    <rc><c>Mn</c><c>   2</c></rc>
    <rc><c>Mn</c><c>   2</c></rc>
    <rc><c>Mn</c><c>   2</c></rc>
    <rc><c>Mn</c><c>   2</c></rc>
   </set>
  </array>
  <array name="atomtypes" >
   <dimension dim="1">type</dimension>
   <field type="int">atomspertype</field>
   <field type="string">element</field>
   <field>mass</field>
   <field>valence</field>
   <field type="string">pseudopotential</field>
   <set>
    <rc><c> 281</c><c>Fe</c><c>     55.84700000</c><c>      8.00000000</c><c>  PAW_PBE Fe_GW 31Mar2010               </c></rc>
    <rc><c>   7</c><c>Mn</c><c>     54.93800000</c><c>      7.00000000</c><c>  PAW_PBE Mn_GW 31Mar2010               </c></rc>
   </set>
  </array>
 </atominfo>
 <structure name="initialpos" >
  <crystal>
   <varray name="basis" >
    <v>       9.72667804       0.00000000       0.00000000 </v>
    <v>       0.00000000       8.42355028       0.00000000 </v>
    <v>       0.00000000       0.00000000      45.00000000 </v>
   </varray>
   <i name="volume">   3686.99226691 </i>
   <varray name="rec_basis" >
    <v>       0.10281002       0.00000000       0.00000000 </v>
    <v>       0.00000000       0.11871479       0.00000000 </v>
    <v>       0.00000000       0.00000000       0.02222222 </v>
   </varray>
  </crystal>
  <varray name="positions" >
   <v>       0.05403878       0.70108908       0.21126113 </v>
   <v>       0.31813699       0.72416597       0.87627911 </v>
   <v>       0.68801678       0.95841411       0.61134090 </v>
   <v>       0.43842042       0.45856909       0.61156470 </v>
   <v>       0.44060890       0.28739904       0.25506687 </v>
   <v>       0.05859589       0.38822099       0.83359910 </v>
   <v>       0.30851714       0.88757063       0.83356504 </v>
   <v>       0.44685595       0.62644774       0.70041433 </v>
   <v>       0.05973801       0.21260611       0.74492022 </v>
   <v>       0.17887998       0.45134979       0.21132934 </v>
   <v>       0.56787767       0.21081394       0.47747769 </v>
   <v>       0.06662692       0.87514928       0.56691605 </v>
   <v>       0.56811712       0.22396336       0.87613400 </v>
   <v>       0.80912423       0.52794264       0.12390888 </v>
   <v>       0.42906820       0.95130676       0.21136598 </v>
   <v>       0.56647327       0.37497902       0.56684348 </v>
   <v>       0.81127222       0.04169879       0.38831808 </v>
   <v>       0.68181757       0.78902155       0.52237822 </v>
   <v>       0.44274750       0.46075715       0.47747001 </v>
   <v>       0.43386986       0.96256203       0.74473592 </v>
   <v>       0.44176922       0.62516075       0.56683755 </v>
   <v>       0.57133893       0.87643954       0.70055697 </v>
   <v>       0.30922805       0.02589008       0.12387814 </v>
   <v>       0.69007830       0.95904828       0.34407363 </v>
   <v>       0.68794387       0.78200726       0.12417639 </v>
   <v>       0.05266285       0.37392368       0.29955800 </v>
   <v>       0.68971322       0.46801322       0.87612009 </v>
   <v>       0.42894099       0.45119696       0.21140577 </v>
   <v>       0.80840582       0.37510068       0.43307928 </v>
   <v>       0.56359882       0.70870651       0.61154597 </v>
   <v>       0.56003122       0.54051179       0.65591344 </v>
   <v>       0.81775842       0.86196398       0.16670511 </v>
   <v>       0.56570050       0.53747751       0.25516316 </v>
   <v>       0.68982501       0.45885696       0.34400341 </v>
   <v>       0.19173501       0.61164639       0.16637486 </v>
   <v>       0.19441242       0.79967605       0.78886163 </v>
   <v>       0.44669205       0.12586165       0.70034281 </v>
   <v>       0.92792106       0.62364563       0.29958888 </v>
   <v>       0.31764582       0.22382248       0.87610650 </v>
   <v>       0.31677612       0.87476506       0.56684938 </v>
   <v>       0.81737964       0.22380823       0.87622713 </v>
   <v>       0.80964572       0.54067966       0.65588117 </v>
   <v>       0.55892678       0.52691328       0.12383172 </v>
   <v>       0.56922963       0.04972349       0.78901529 </v>
   <v>       0.19064874       0.28739817       0.25516997 </v>
   <v>       0.80849398       0.87484051       0.43307881 </v>
   <v>       0.57217298       0.37626864       0.70040775 </v>
   <v>       0.05724243       0.02685372       0.12405343 </v>
   <v>       0.30972549       0.54066270       0.65588538 </v>
   <v>       0.56527939       0.20895777       0.34402676 </v>
   <v>       0.18801194       0.95848668       0.61149377 </v>
   <v>       0.30285607       0.37399756       0.29960972 </v>
   <v>       0.43473546       0.79050556       0.65599788 </v>
   <v>       0.19492928       0.29919612       0.78883460 </v>
   <v>       0.06749621       0.36315590       0.16664644 </v>
   <v>       0.69730413       0.62567559       0.70046416 </v>
   <v>       0.31157511       0.54113820       0.38844310 </v>
   <v>       0.06762249       0.72344866       0.87618081 </v>
   <v>       0.93371464       0.63766199       0.83401555 </v>
   <v>       0.31997634       0.54948651       0.78891238 </v>
   <v>       0.30451839       0.20054534       0.21118811 </v>
   <v>       0.06803957       0.71069303       0.47748356 </v>
   <v>       0.55443104       0.20083719       0.21108916 </v>
   <v>       0.30957549       0.21246848       0.74489729 </v>
   <v>       0.07143936       0.37637561       0.70059252 </v>
   <v>       0.18332132       0.63745821       0.83350876 </v>
   <v>       0.06930324       0.04940550       0.78902545 </v>
   <v>       0.44155731       0.12504082       0.56691104 </v>
   <v>       0.93460680       0.29079713       0.65586917 </v>
   <v>       0.80426434       0.20129636       0.21118786 </v>
   <v>       0.92926075       0.95128072       0.21128864 </v>
   <v>       0.94155948       0.62504858       0.56689384 </v>
   <v>       0.80829286       0.38781748       0.83353427 </v>
   <v>       0.19664624       0.62654683       0.70035421 </v>
   <v>       0.80867912       0.88777072       0.83354369 </v>
   <v>       0.68468420       0.29071016       0.65595327 </v>
   <v>       0.31295445       0.20818102       0.61140434 </v>
   <v>       0.43471894       0.46289876       0.74469706 </v>
   <v>       0.43635615       0.79116582       0.38842477 </v>
   <v>       0.68468352       0.96250000       0.74479086 </v>
   <v>       0.80388414       0.70104743       0.21123427 </v>
   <v>       0.81319992       0.70874362       0.61153227 </v>
   <v>       0.43727074       0.78377967       0.12395104 </v>
   <v>       0.30981984       0.71221171       0.74482943 </v>
   <v>       0.32008361       0.04941130       0.78881286 </v>
   <v>       0.81138047       0.54141283       0.38833201 </v>
   <v>       0.68251044       0.28838194       0.52229257 </v>
   <v>       0.69482135       0.79931812       0.78892119 </v>
   <v>       0.19040953       0.78773991       0.25519936 </v>
   <v>       0.69184061       0.11245313       0.16662565 </v>
   <v>       0.69273814       0.96082330       0.47747482 </v>
   <v>       0.94025314       0.95920786       0.34410297 </v>
   <v>       0.80729214       0.03928076       0.52247973 </v>
   <v>       0.68346148       0.62489879       0.43309312 </v>
   <v>       0.44013766       0.45863322       0.34401419 </v>
   <v>       0.81019391       0.21183262       0.74461732 </v>
   <v>       0.43976071       0.96822520       0.87610533 </v>
   <v>       0.56662341       0.87486964       0.56682476 </v>
   <v>       0.80938012       0.02786072       0.12396631 </v>
   <v>       0.42802066       0.62400204       0.29942146 </v>
   <v>       0.81687640       0.72379465       0.87638650 </v>
   <v>       0.68787305       0.45806867       0.61144384 </v>
   <v>       0.55845312       0.38743191       0.83348805 </v>
   <v>       0.80278733       0.37339698       0.29947083 </v>
   <v>       0.18644531       0.29109582       0.38838059 </v>
   <v>       0.81991823       0.54930765       0.78893544 </v>
   <v>       0.18245007       0.78926285       0.52252474 </v>
   <v>       0.30292245       0.87410148       0.29958883 </v>
   <v>       0.17828851       0.95135516       0.21129271 </v>
   <v>       0.18461493       0.46241347       0.74486841 </v>
   <v>       0.43255348       0.28848890       0.52231715 </v>
   <v>       0.06526985       0.70898822       0.34398132 </v>
   <v>       0.18492858       0.79048813       0.65585798 </v>
   <v>       0.44479110       0.79926697       0.78884216 </v>
   <v>       0.68344458       0.12506505       0.43298950 </v>
   <v>       0.93229758       0.78864098       0.52231641 </v>
   <v>       0.69188588       0.61250822       0.16663125 </v>
   <v>       0.81478614       0.70870159       0.34396895 </v>
   <v>       0.93439523       0.46246460       0.74493944 </v>
   <v>       0.19034160       0.45893323       0.34409344 </v>
   <v>       0.56969593       0.54979401       0.78913512 </v>
   <v>       0.56641358       0.36250889       0.16645174 </v>
   <v>       0.56489707       0.70898649       0.34395458 </v>
   <v>       0.55280593       0.37379326       0.29960919 </v>
   <v>       0.18972427       0.46797588       0.87607110 </v>
   <v>       0.19159139       0.11129282       0.16639430 </v>
   <v>       0.44467269       0.29900803       0.78879484 </v>
   <v>       0.69097875       0.78733650       0.25539189 </v>
   <v>       0.93357543       0.13777125       0.83357317 </v>
   <v>       0.44285768       0.96068736       0.47745204 </v>
   <v>       0.56751832       0.72482849       0.87624005 </v>
   <v>       0.19268254       0.46063023       0.47743978 </v>
   <v>       0.93435267       0.28165727       0.12410932 </v>
   <v>       0.31144539       0.04136388       0.38839721 </v>
   <v>       0.06001292       0.04047381       0.65597680 </v>
   <v>       0.55845757       0.37475409       0.43307929 </v>
   <v>       0.68378409       0.46274189       0.74505190 </v>
   <v>       0.56020566       0.21258780       0.74485413 </v>
   <v>       0.94656649       0.12607738       0.70042847 </v>
   <v>       0.55965368       0.04073588       0.65582415 </v>
   <v>       0.55709047       0.53921889       0.52253512 </v>
   <v>       0.17801494       0.12386980       0.29958215 </v>
   <v>       0.44189878       0.11043825       0.16634975 </v>
   <v>       0.67772762       0.62355855       0.29958794 </v>
   <v>       0.92789993       0.12358457       0.29965512 </v>
   <v>       0.81647058       0.37507491       0.56690556 </v>
   <v>       0.05300394       0.87403353       0.29953733 </v>
   <v>       0.19158490       0.62490431       0.56690162 </v>
   <v>       0.94455805       0.79988510       0.78890238 </v>
   <v>       0.30838671       0.38746599       0.83351051 </v>
   <v>       0.93957652       0.46836903       0.87614272 </v>
   <v>       0.43354197       0.63771673       0.83352013 </v>
   <v>       0.06516043       0.20878157       0.34390020 </v>
   <v>       0.18985516       0.96825768       0.87608587 </v>
   <v>       0.93482399       0.78197205       0.12411399 </v>
   <v>       0.68635392       0.79124596       0.38837960 </v>
   <v>       0.93479114       0.79058837       0.65585427 </v>
   <v>       0.94137557       0.11189134       0.16651613 </v>
   <v>       0.43506380       0.29072671       0.65607386 </v>
   <v>       0.05426549       0.20106953       0.21126316 </v>
   <v>       0.67889588       0.95126864       0.21128194 </v>
   <v>       0.17830693       0.62378675       0.29944149 </v>
   <v>       0.82183298       0.87630720       0.70043115 </v>
   <v>       0.94644831       0.62665542       0.70051530 </v>
   <v>       0.19625752       0.12583510       0.70035922 </v>
   <v>       0.94290974       0.46066089       0.47741014 </v>
   <v>       0.81309218       0.20844773       0.61152388 </v>
   <v>       0.18332362       0.62496352       0.43311412 </v>
   <v>       0.42800669       0.12370775       0.29940771 </v>
   <v>       0.67817193       0.12340577       0.29942578 </v>
   <v>       0.56151445       0.54130327       0.38841200 </v>
   <v>       0.81463057       0.20855822       0.34396097 </v>
   <v>       0.43976504       0.46791676       0.87592957 </v>
   <v>       0.55862747       0.88756946       0.83348978 </v>
   <v>       0.31794661       0.21056065       0.47743872 </v>
   <v>       0.19296078       0.96069791       0.47748433 </v>
   <v>       0.05854548       0.88762770       0.83353735 </v>
   <v>       0.05715332       0.53925123       0.52248046 </v>
   <v>       0.94263585       0.96058862       0.47735236 </v>
   <v>       0.06315802       0.70838531       0.61159370 </v>
   <v>       0.55741232       0.03864806       0.52236589 </v>
   <v>       0.69496749       0.29915372       0.78884621 </v>
   <v>       0.81777392       0.36183476       0.16669845 </v>
   <v>       0.43353011       0.12490701       0.43304815 </v>
   <v>       0.06783467       0.21079853       0.47746091 </v>
   <v>       0.30978349       0.04070271       0.65587624 </v>
   <v>       0.43225511       0.78925031       0.52245465 </v>
   <v>       0.18368561       0.13790910       0.83356450 </v>
   <v>       0.18558634       0.28298259       0.12425714 </v>
   <v>       0.94038440       0.45927146       0.34410080 </v>
   <v>       0.56669156       0.86257800       0.16646568 </v>
   <v>       0.30403649       0.70078990       0.21125309 </v>
   <v>       0.94129364       0.61226319       0.16651813 </v>
   <v>       0.18817685       0.45861729       0.61149837 </v>
   <v>       0.07206151       0.87662848       0.70028269 </v>
   <v>       0.05977201       0.54064911       0.65587099 </v>
   <v>       0.30820666       0.52621749       0.12396790 </v>
   <v>       0.93633430       0.79110176       0.38844491 </v>
   <v>       0.94457617       0.29896020       0.78879641 </v>
   <v>       0.18483385       0.29076688       0.65596373 </v>
   <v>       0.93782081       0.95803108       0.61134238 </v>
   <v>       0.81071560       0.71127689       0.74464665 </v>
   <v>       0.69086508       0.28766271       0.25528968 </v>
   <v>       0.05928541       0.71223886       0.74498089 </v>
   <v>       0.67891165       0.45131340       0.21124345 </v>
   <v>       0.81795946       0.21075084       0.47752410 </v>
   <v>       0.56768239       0.71061508       0.47741413 </v>
   <v>       0.06775225       0.86347835       0.16660407 </v>
   <v>       0.93231829       0.28885220       0.52248632 </v>
   <v>       0.68452591       0.79060308       0.65590806 </v>
   <v>       0.05836171       0.87467242       0.43311395 </v>
   <v>       0.06823104       0.22323432       0.87615527 </v>
   <v>       0.80988332       0.04063174       0.65599208 </v>
   <v>       0.55960687       0.02691684       0.12384708 </v>
   <v>       0.30855297       0.37483892       0.43303511 </v>
   <v>       0.31658077       0.37492069       0.56688527 </v>
   <v>       0.31769160       0.71051697       0.47735981 </v>
   <v>       0.05701717       0.03904287       0.52255383 </v>
   <v>       0.32155163       0.87648516       0.70057505 </v>
   <v>       0.06507703       0.53756310       0.25511351 </v>
   <v>       0.68361050       0.13775500       0.83352441 </v>
   <v>       0.81508539       0.03752887       0.25518958 </v>
   <v>       0.18362809       0.12495778       0.43310353 </v>
   <v>       0.69727192       0.12636387       0.70039902 </v>
   <v>       0.18241571       0.28919693       0.52249350 </v>
   <v>       0.44062254       0.78771564       0.25525738 </v>
   <v>       0.44152211       0.61060845       0.16641385 </v>
   <v>       0.06325133       0.20840137       0.61148428 </v>
   <v>       0.18606961       0.79122722       0.38837173 </v>
   <v>       0.30740487       0.53891046       0.52249860 </v>
   <v>       0.93339565       0.12489881       0.43309251 </v>
   <v>       0.68640053       0.29127758       0.38838606 </v>
   <v>       0.19157278       0.12520956       0.56689893 </v>
   <v>       0.68962614       0.96846420       0.87611690 </v>
   <v>       0.69160757       0.12504999       0.56688143 </v>
   <v>       0.44016024       0.95892767       0.34406019 </v>
   <v>       0.18376723       0.96255694       0.74482678 </v>
   <v>       0.94058084       0.78761977       0.25521625 </v>
   <v>       0.55837843       0.87501592       0.43308675 </v>
   <v>       0.30828119       0.87521072       0.43309364 </v>
   <v>       0.80738062       0.53937394       0.52252281 </v>
   <v>       0.92923250       0.45126760       0.21128418 </v>
   <v>       0.31532552       0.53779438       0.25509515 </v>
   <v>       0.56152313       0.04131377       0.38838584 </v>
   <v>       0.93790514       0.45823772       0.61153028 </v>
   <v>       0.06133698       0.04133916       0.38842893 </v>
   <v>       0.06158463       0.54125908       0.38842781 </v>
   <v>       0.43657594       0.29120454       0.38837510 </v>
   <v>       0.69298084       0.46048267       0.47747035 </v>
   <v>       0.06677702       0.37513288       0.56689110 </v>
   <v>       0.55417355       0.70089542       0.21110216 </v>
   <v>       0.94093367       0.28743380       0.25538068 </v>
   <v>       0.81902787       0.04961113       0.78918015 </v>
   <v>       0.18998235       0.95896898       0.34400016 </v>
   <v>       0.55289966       0.87386054       0.29963579 </v>
   <v>       0.05856344       0.37493080       0.43312867 </v>
   <v>       0.31510367       0.70907207       0.34399774 </v>
   <v>       0.31489782       0.20905080       0.34395042 </v>
   <v>       0.94182260       0.12498847       0.56674943 </v>
   <v>       0.43845769       0.95875118       0.61157744 </v>
   <v>       0.56549335       0.03749050       0.25502839 </v>
   <v>       0.18594651       0.78280293       0.12422595 </v>
   <v>       0.06527437       0.03719199       0.25512982 </v>
   <v>       0.69169932       0.62503556       0.56687733 </v>
   <v>       0.05696559       0.52598254       0.12411903 </v>
   <v>       0.30707035       0.03858007       0.52223360 </v>
   <v>       0.68748863       0.28198636       0.12417192 </v>
   <v>       0.81796254       0.71068394       0.47743524 </v>
   <v>       0.43345702       0.13784222       0.83355012 </v>
   <v>       0.32228246       0.37629746       0.70037030 </v>
   <v>       0.68367923       0.63791418       0.83350602 </v>
   <v>       0.55968103       0.71223839       0.74488463 </v>
   <v>       0.93682423       0.29157480       0.38847891 </v>
   <v>       0.93982421       0.96842695       0.87612640 </v>
   <v>       0.56280272       0.20824414       0.61124824 </v>
   <v>       0.81653432       0.87495662       0.56688113 </v>
   <v>       0.80333751       0.87341865       0.29944559 </v>
   <v>       0.31520463       0.03767727       0.25512832 </v>
   <v>       0.43679486       0.28362914       0.12403134 </v>
   <v>       0.31326783       0.70840781       0.61158920 </v>
   <v>       0.43350556       0.62504246       0.43311074 </v>
   <v>       0.93277983       0.62503407       0.43325129 </v>
   <v>       0.31821549       0.86280007       0.16570086 </v>
   <v>       0.07085976       0.54944666       0.78874758 </v>
   <v>       0.82215008       0.37673846       0.70025364 </v>
   <v>       0.31851415       0.36326008       0.16575606 </v>
   <v>       0.93289623       0.96181537       0.74477725 </v>
   <v>       0.81599853       0.53746103       0.25549769 </v>
  </varray>
 </structure>
 <calculation>
  <scstep>
   <time name="dav">   54.13   54.15</time>
   <time name="total">   54.28   54.33</time>
   <energy>
    <i name="alphaZ">  16403.00255340 </i>
    <i name="ewald"> 716351.87949295 </i>
    <i name="hartreedc">-908022.51685717 </i>
    <i name="XCdc">  -6389.76443547 </i>
    <i name="pawpsdc"> 163151.95320885 </i>
    <i name="pawaedc">-160818.84594568 </i>
    <i name="eentropy">     -1.05269507 </i>
    <i name="bandstr">  38626.22690902 </i>
    <i name="atom"> 169914.59583762 </i>
    <i name="e_fr_energy">  29215.47806845 </i>
    <i name="e_wo_entrp">  29216.53076351 </i>
    <i name="e_0_energy">  29216.00441598 </i>
   </energy>
  </scstep>
  <scstep>
   <time name="dav">   53.79   53.82</time>
   <time name="total">   53.80   53.83</time>
   <energy>
    <i name="e_fr_energy">   1193.32315827 </i>
    <i name="e_wo_entrp">   1194.79114645 </i>
    <i name="e_0_energy">   1194.05715236 </i>
   </energy>
  </scstep>
  <scstep>
   <time name="dav">   70.44   70.48</time>
   <time name="total">   70.45   70.49</time>
   <energy>
    <i name="e_fr_energy">  -1939.81864711 </i>
    <i name="e_wo_entrp">  -1936.24510578 </i>
    <i name="e_0_energy">  -1938.03187644 </i>
   </energy>
  </scstep>
  <scstep>
   <time name="dav">   88.67   88.72</time>
   <time name="total">   88.67   88.72</time>
   <energy>
    <i name="e_fr_energy">  -2606.81731477 </i>
    <i name="e_wo_entrp">  -2603.19616481 </i>
    <i name="e_0_energy">  -2605.00673979 </i>
   </energy>
  </scstep>
  <scstep>
   <time name="dav">   84.24   84.29</time>
   <time name="total">   86.29   86.34</time>
   <energy>
    <i name="e_fr_energy">  -2726.99274711 </i>
    <i name="e_wo_entrp">  -2723.20266815 </i>
    <i name="e_0_energy">  -2725.09770763 </i>
   </energy>
  </scstep>
  <scstep>
   <time name="diag">    8.24    8.24</time>
   <time name="diis">   37.45   37.45</time>
   <time name="orth">    2.28    2.28</time>
   <time name="total">   50.17   50.23</time>
   <energy>
    <i name="e_fr_energy">  -5273.14444675 </i>
    <i name="e_wo_entrp">  -5269.06432713 </i>
    <i name="e_0_energy">  -5271.10438694 </i>
   </energy>
  </scstep>
  <scstep>
   <time name="diag">    8.25    8.26</time>
   <time name="diis">   25.75   25.76</time>
   <time name="orth">    2.29    2.29</time>
   <time name="total">   38.45   38.50</time>
[...]
       <r>     5.8274     0.0000  2772.0000 </r>
       <r>     5.8700     0.0000  2772.0000 </r>
       <r>     5.9126     0.0000  2772.0000 </r>
       <r>     5.9553     0.0000  2772.0000 </r>
       <r>     5.9979     0.0000  2772.0000 </r>
       <r>     6.0405     0.0000  2772.0000 </r>
       <r>     6.0831     0.0000  2772.0000 </r>
       <r>     6.1257     0.0000  2772.0000 </r>
       <r>     6.1683     0.0000  2772.0000 </r>
       <r>     6.2109     0.0000  2772.0000 </r>
       <r>     6.2535     0.0000  2772.0000 </r>
       <r>     6.2961     0.0000  2772.0000 </r>
       <r>     6.3387     0.0000  2772.0000 </r>
       <r>     6.3813     0.0000  2772.0000 </r>
       <r>     6.4239     0.0000  2772.0000 </r>
       <r>     6.4665     0.0000  2772.0000 </r>
       <r>     6.5091     0.0000  2772.0000 </r>
       <r>     6.5517     0.0000  2772.0000 </r>
       <r>     6.5943     0.0000  2772.0000 </r>
       <r>     6.6369     0.0000  2772.0000 </r>
       <r>     6.6796     0.0000  2772.0000 </r>
       <r>     6.7222     0.0000  2772.0000 </r>
       <r>     6.7648     0.0000  2772.0000 </r>
      </set>
     </set>
    </array>
   </total>
  </dos>
 </calculation>
 <structure name="finalpos" >
  <crystal>
   <varray name="basis" >
    <v>       9.72667804       0.00000000       0.00000000 </v>
    <v>       0.00000000       8.42355028       0.00000000 </v>
    <v>       0.00000000       0.00000000      45.00000000 </v>
   </varray>
   <i name="volume">   3686.99226691 </i>
   <varray name="rec_basis" >
    <v>       0.10281002       0.00000000       0.00000000 </v>
    <v>       0.00000000       0.11871479       0.00000000 </v>
    <v>       0.00000000       0.00000000       0.02222222 </v>
   </varray>
  </crystal>
  <varray name="positions" >
   <v>       0.05801854       0.70104936       0.21106322 </v>
   <v>       0.31612996       0.72055517       0.87577036 </v>
   <v>       0.68839572       0.95826131       0.61146685 </v>
   <v>       0.43817928       0.45796164       0.61142038 </v>
   <v>       0.43662505       0.28679152       0.25551568 </v>
   <v>       0.06087401       0.38678091       0.83417908 </v>
   <v>       0.31134094       0.88669158       0.83421412 </v>
   <v>       0.44217284       0.62678777       0.70039565 </v>
   <v>       0.06347042       0.21290514       0.74454515 </v>
   <v>       0.18244279       0.45126675       0.21120661 </v>
   <v>       0.56393917       0.20892360       0.47780152 </v>
   <v>       0.06419667       0.87463184       0.56682181 </v>
   <v>       0.56573354       0.21989594       0.87571020 </v>
   <v>       0.81019512       0.53029825       0.12449402 </v>
   <v>       0.43315786       0.95136359       0.21110562 </v>
   <v>       0.56423159       0.37475500       0.56674381 </v>
   <v>       0.81177260       0.04196399       0.38850424 </v>
   <v>       0.68615096       0.79076038       0.52215360 </v>
   <v>       0.43898246       0.45910804       0.47784009 </v>
   <v>       0.43786450       0.96289902       0.74450850 </v>
   <v>       0.43891212       0.62463461       0.56684973 </v>
   <v>       0.56679841       0.87647967       0.70032483 </v>
   <v>       0.31068396       0.03087384       0.12413070 </v>
   <v>       0.68690990       0.95798427       0.34412415 </v>
   <v>       0.68773696       0.77958513       0.12465663 </v>
   <v>       0.05772936       0.37343131       0.29967211 </v>
   <v>       0.68894354       0.47142368       0.87549089 </v>
   <v>       0.43319498       0.45145097       0.21109824 </v>
   <v>       0.81109806       0.37508886       0.43305662 </v>
   <v>       0.56308765       0.70796871       0.61153215 </v>
   <v>       0.56305814       0.54129695       0.65578891 </v>
   <v>       0.81451520       0.86357893       0.16595494 </v>
   <v>       0.56081024       0.53714313       0.25550828 </v>
   <v>       0.68681497       0.45818468       0.34408832 </v>
   <v>       0.18841706       0.61274354       0.16616813 </v>
   <v>       0.19179292       0.79926567       0.78875383 </v>
   <v>       0.44253174       0.12623407       0.70037601 </v>
   <v>       0.93287272       0.62336803       0.29973223 </v>
   <v>       0.31526394       0.22007412       0.87572644 </v>
   <v>       0.31379509       0.87472010       0.56679116 </v>
   <v>       0.81533432       0.22004773       0.87572250 </v>
   <v>       0.81279432       0.54178184       0.65569642 </v>
   <v>       0.56021223       0.52954385       0.12442775 </v>
   <v>       0.56682124       0.04941516       0.78892895 </v>
   <v>       0.18664682       0.28697641       0.25549018 </v>
   <v>       0.81079649       0.87539891       0.43301550 </v>
   <v>       0.56658798       0.37645725       0.70044556 </v>
   <v>       0.06126239       0.02921861       0.12443087 </v>
   <v>       0.31278758       0.54115462       0.65583941 </v>
   <v>       0.56181475       0.20807043       0.34414965 </v>
   <v>       0.18822868       0.95785891       0.61139764 </v>
   <v>       0.30760504       0.37377920       0.29957855 </v>
   <v>       0.43787137       0.79169417       0.65578300 </v>
   <v>       0.19163443       0.29854409       0.78884643 </v>
   <v>       0.06392780       0.36346266       0.16598724 </v>
   <v>       0.69134423       0.62680636       0.70036166 </v>
   <v>       0.31163634       0.54170454       0.38850622 </v>
   <v>       0.06541808       0.71989208       0.87588027 </v>
   <v>       0.93623640       0.63669680       0.83431534 </v>
   <v>       0.31726265       0.54975536       0.78894001 </v>
   <v>       0.30745271       0.20025102       0.21105782 </v>
   <v>       0.06400483       0.70913051       0.47791892 </v>
   <v>       0.55728918       0.20090824       0.21107859 </v>
   <v>       0.31352353       0.21343622       0.74439253 </v>
   <v>       0.06753625       0.37681870       0.70031781 </v>
   <v>       0.18613320       0.63674264       0.83397484 </v>
   <v>       0.06672593       0.04931405       0.78895923 </v>
   <v>       0.43918705       0.12471202       0.56682887 </v>
   <v>       0.93803015       0.29159153       0.65572537 </v>
   <v>       0.80749954       0.20134340       0.21110344 </v>
   <v>       0.93259907       0.95165741       0.21128001 </v>
   <v>       0.93912631       0.62487988       0.56677306 </v>
   <v>       0.81103688       0.38670138       0.83423909 </v>
   <v>       0.19208097       0.62686037       0.70035517 </v>
   <v>       0.81105813       0.88658635       0.83426879 </v>
   <v>       0.68794526       0.29102685       0.65570922 </v>
   <v>       0.31340486       0.20808275       0.61153320 </v>
   <v>       0.43809064       0.46257499       0.74443563 </v>
   <v>       0.43654683       0.79162225       0.38847265 </v>
   <v>       0.68764783       0.96259152       0.74450687 </v>
   <v>       0.80743362       0.70081536       0.21115138 </v>
   <v>       0.81312737       0.70824367       0.61134691 </v>
   <v>       0.43714435       0.77943755       0.12425901 </v>
   <v>       0.31322029       0.71296049       0.74443554 </v>
   <v>       0.31712047       0.04965596       0.78897579 </v>
   <v>       0.81168824       0.54176758       0.38848649 </v>
   <v>       0.68622222       0.29118378       0.52210963 </v>
   <v>       0.69193153       0.79920095       0.78884577 </v>
   <v>       0.18680075       0.78768888       0.25552935 </v>
   <v>       0.68887554       0.11358963       0.16615484 </v>
   <v>       0.68872349       0.95907203       0.47784635 </v>
   <v>       0.93709816       0.95821583       0.34414603 </v>
   <v>       0.81109278       0.04039722       0.52207558 </v>
   <v>       0.68545502       0.62499303       0.43303354 </v>
   <v>       0.43687758       0.45861208       0.34414441 </v>
   <v>       0.81302384       0.21327147       0.74456320 </v>
   <v>       0.43907167       0.97152851       0.87551020 </v>
   <v>       0.56406934       0.87453727       0.56673370 </v>
   <v>       0.81044838       0.02988429       0.12451355 </v>
   <v>       0.43244485       0.62331618       0.29967302 </v>
   <v>       0.81518901       0.72043254       0.87588934 </v>
   <v>       0.68824650       0.45804120       0.61140252 </v>
   <v>       0.56109183       0.38697027       0.83410146 </v>
   <v>       0.80760957       0.37322757       0.29970743 </v>
   <v>       0.18667394       0.29178318       0.38845805 </v>
   <v>       0.81641277       0.54967627       0.78913608 </v>
   <v>       0.18624808       0.79073183       0.52222386 </v>
   <v>       0.30779038       0.87347006       0.29959548 </v>
   <v>       0.18270643       0.95159627       0.21123544 </v>
   <v>       0.18862150       0.46308982       0.74449990 </v>
   <v>       0.43597395       0.29092120       0.52211108 </v>
   <v>       0.06211329       0.70838914       0.34424318 </v>
   <v>       0.18802092       0.79123351       0.65570063 </v>
   <v>       0.44169483       0.79964577       0.78879039 </v>
   <v>       0.68538984       0.12494083       0.43305853 </v>
   <v>       0.93628929       0.79069948       0.52216297 </v>
   <v>       0.68884098       0.61324326       0.16609026 </v>
   <v>       0.81210294       0.70828080       0.34424415 </v>
   <v>       0.93841424       0.46267846       0.74449204 </v>
   <v>       0.18697251       0.45853706       0.34414301 </v>
   <v>       0.56720150       0.54960165       0.78903173 </v>
   <v>       0.56534672       0.36392945       0.16574631 </v>
   <v>       0.56163327       0.70850797       0.34429472 </v>
   <v>       0.55794559       0.37337640       0.29956987 </v>
   <v>       0.18884401       0.47146562       0.87556023 </v>
   <v>       0.18890173       0.11282968       0.16609649 </v>
   <v>       0.44152900       0.29888738       0.78879763 </v>
   <v>       0.68606815       0.78716201       0.25548370 </v>
   <v>       0.93685589       0.13682514       0.83417294 </v>
   <v>       0.43869556       0.95897488       0.47782321 </v>
   <v>       0.56541085       0.72020674       0.87571590 </v>
   <v>       0.18877567       0.45918812       0.47785992 </v>
   <v>       0.93627557       0.27956787       0.12463111 </v>
   <v>       0.31151699       0.04176614       0.38849613 </v>
   <v>       0.06290509       0.04111958       0.65573036 </v>
   <v>       0.56098163       0.37488056       0.43302007 </v>
   <v>       0.68752041       0.46249320       0.74455802 </v>
   <v>       0.56365134       0.21333441       0.74438316 </v>
   <v>       0.94242974       0.12668792       0.70035709 </v>
   <v>       0.56298712       0.04125931       0.65575607 </v>
   <v>       0.56125641       0.54061460       0.52205494 </v>
   <v>       0.18260822       0.12336076       0.29959281 </v>
   <v>       0.43839499       0.11227998       0.16599082 </v>
   <v>       0.68230752       0.62351557       0.29969501 </v>
   <v>       0.93260431       0.12287199       0.29968485 </v>
   <v>       0.81409142       0.37479399       0.56685890 </v>
   <v>       0.05783410       0.87326666       0.29968715 </v>
   <v>       0.18912930       0.62482102       0.56690402 </v>
   <v>       0.94120611       0.79883313       0.78897599 </v>
   <v>       0.31128518       0.38668114       0.83417154 </v>
   <v>       0.93920353       0.47154454       0.87557675 </v>
   <v>       0.43668065       0.63719735       0.83410899 </v>
   <v>       0.06181735       0.20859320       0.34422507 </v>
   <v>       0.18886939       0.97123518       0.87553029 </v>
   <v>       0.93640191       0.77958629       0.12461361 </v>
   <v>       0.68662232       0.79180545       0.38851403 </v>
   <v>       0.93797249       0.79173139       0.65575434 </v>
   <v>       0.93864211       0.11380915       0.16617613 </v>
   <v>       0.43752124       0.29137026       0.65580815 </v>
   <v>       0.05846805       0.20114405       0.21111717 </v>
   <v>       0.68289057       0.95133522       0.21126202 </v>
   <v>       0.18254501       0.62350514       0.29970781 </v>
   <v>       0.81674435       0.87647855       0.70034060 </v>
   <v>       0.94241270       0.62701989       0.70035297 </v>
   <v>       0.19202382       0.12671669       0.70036253 </v>
   <v>       0.93897439       0.45896787       0.47788693 </v>
   <v>       0.81311162       0.20797679       0.61142391 </v>
   <v>       0.18640621       0.62506886       0.43303685 </v>
   <v>       0.43273846       0.12333392       0.29966760 </v>
   <v>       0.68236693       0.12307304       0.29965160 </v>
   <v>       0.56146662       0.54171559       0.38852421 </v>
   <v>       0.81211305       0.20824819       0.34434013 </v>
   <v>       0.43910717       0.47172406       0.87550182 </v>
   <v>       0.56109073       0.88670791       0.83421634 </v>
   <v>       0.31383832       0.20905388       0.47783555 </v>
   <v>       0.18872849       0.95897825       0.47785266 </v>
   <v>       0.06109488       0.88686655       0.83419339 </v>
   <v>       0.06127505       0.54071408       0.52211770 </v>
   <v>       0.93900583       0.95880701       0.47783615 </v>
   <v>       0.06327971       0.70782467       0.61143884 </v>
   <v>       0.56104482       0.04099802       0.52210822 </v>
   <v>       0.69184550       0.29886371       0.78879865 </v>
   <v>       0.81438057       0.36363057       0.16602067 </v>
   <v>       0.43576434       0.12497786       0.43302608 </v>
   <v>       0.06391782       0.20865087       0.47786788 </v>
   <v>       0.31306353       0.04142622       0.65577555 </v>
   <v>       0.43603443       0.79044712       0.52208585 </v>
   <v>       0.18672956       0.13681656       0.83408755 </v>
   <v>       0.18603519       0.27898324       0.12444524 </v>
   <v>       0.93680323       0.45837568       0.34417344 </v>
   <v>       0.56555594       0.86394980       0.16580004 </v>
   <v>       0.30758418       0.70031838       0.21110443 </v>
   <v>       0.93811494       0.61334956       0.16618441 </v>
   <v>       0.18817535       0.45773999       0.61146347 </v>
   <v>       0.06757471       0.87684076       0.70027512 </v>
   <v>       0.06306881       0.54131705       0.65583758 </v>
   <v>       0.31064853       0.53077608       0.12404815 </v>
   <v>       0.93640179       0.79185910       0.38847887 </v>
   <v>       0.94155891       0.29863980       0.78887527 </v>
   <v>       0.18772225       0.29133252       0.65577832 </v>
   <v>       0.93850806       0.95823497       0.61149386 </v>
   <v>       0.81312568       0.71290994       0.74458680 </v>
   <v>       0.68620471       0.28724393       0.25543109 </v>
   <v>       0.06417038       0.71310298       0.74448509 </v>
   <v>       0.68284256       0.45124352       0.21126046 </v>
   <v>       0.81388029       0.20882631       0.47784374 </v>
   <v>       0.56391394       0.70911456       0.47787134 </v>
   <v>       0.06361380       0.86366278       0.16600182 </v>
   <v>       0.93621764       0.29057422       0.52216734 </v>
   <v>       0.68767692       0.79156747       0.65579201 </v>
   <v>       0.06076141       0.87500346       0.43300328 </v>
   <v>       0.06559871       0.21956121       0.87580980 </v>
   <v>       0.81280310       0.04149198       0.65573689 </v>
   <v>       0.56031476       0.02951172       0.12439406 </v>
   <v>       0.31083229       0.37477000       0.43302679 </v>
   <v>       0.31423824       0.37488028       0.56677118 </v>
   <v>       0.31398657       0.70918063       0.47786744 </v>
   <v>       0.06135400       0.04040974       0.52204260 </v>
   <v>       0.31704082       0.87649068       0.70035889 </v>
   <v>       0.06188896       0.53708541       0.25555142 </v>
   <v>       0.68649307       0.13722071       0.83415066 </v>
   <v>       0.81132442       0.03683576       0.25556569 </v>
   <v>       0.18629347       0.12501656       0.43305602 </v>
   <v>       0.69168102       0.12660700       0.70029818 </v>
   <v>       0.18630156       0.29062499       0.52210896 </v>
   <v>       0.43648515       0.78747442       0.25554266 </v>
   <v>       0.43864670       0.61246231       0.16603052 </v>
   <v>       0.06346843       0.20780355       0.61128422 </v>
   <v>       0.18636620       0.79152487       0.38842840 </v>
   <v>       0.31120567       0.54068060       0.52210247 </v>
   <v>       0.93598723       0.12512497       0.43301422 </v>
   <v>       0.68648907       0.29188226       0.38848690 </v>
   <v>       0.18904600       0.12477977       0.56685296 </v>
   <v>       0.68902645       0.97166830       0.87552702 </v>
   <v>       0.68905929       0.12475095       0.56678845 </v>
   <v>       0.43688259       0.95853568       0.34414575 </v>
   <v>       0.18833480       0.96293641       0.74450267 </v>
   <v>       0.93655755       0.78728404       0.25553075 </v>
   <v>       0.56111478       0.87550412       0.43302520 </v>
   <v>       0.31089490       0.87530554       0.43309473 </v>
   <v>       0.81109622       0.54047334       0.52212663 </v>
   <v>       0.93264583       0.45146119       0.21137302 </v>
   <v>       0.31154321       0.53680859       0.25562560 </v>
   <v>       0.56143733       0.04176642       0.38850985 </v>
   <v>       0.93829251       0.45776586       0.61145119 </v>
   <v>       0.06151463       0.04194329       0.38852928 </v>
   <v>       0.06150123       0.54172923       0.38848782 </v>
   <v>       0.43658908       0.29168643       0.38844453 </v>
   <v>       0.68889010       0.45923147       0.47789365 </v>
   <v>       0.06403772       0.37478370       0.56684315 </v>
   <v>       0.55760685       0.70071417       0.21116884 </v>
   <v>       0.93643610       0.28696590       0.25555755 </v>
   <v>       0.81652651       0.04914644       0.78896764 </v>
   <v>       0.18693189       0.95848676       0.34420316 </v>
   <v>       0.55770190       0.87335099       0.29960620 </v>
   <v>       0.06104597       0.37500194       0.43300426 </v>
   <v>       0.31185864       0.70808622       0.34418967 </v>
   <v>       0.31195286       0.20805214       0.34414859 </v>
   <v>       0.93891639       0.12497313       0.56680127 </v>
   <v>       0.43787463       0.95785787       0.61147215 </v>
   <v>       0.56045391       0.03707828       0.25555415 </v>
   <v>       0.18620530       0.77895586       0.12434911 </v>
   <v>       0.06215702       0.03733447       0.25558683 </v>
   <v>       0.68896007       0.62455089       0.56683344 </v>
   <v>       0.06089741       0.52922540       0.12443088 </v>
   <v>       0.31117877       0.04103507       0.52210608 </v>
   <v>       0.68751827       0.27982415       0.12465678 </v>
   <v>       0.81362693       0.70924297       0.47785685 </v>
   <v>       0.43675085       0.13661063       0.83391410 </v>
   <v>       0.31735472       0.37637913       0.70031199 </v>
   <v>       0.68694576       0.63709597       0.83412764 </v>
   <v>       0.56333927       0.71271353       0.74452426 </v>
   <v>       0.93638889       0.29187253       0.38851113 </v>
   <v>       0.93922229       0.97131454       0.87554796 </v>
   <v>       0.56323084       0.20776161       0.61140206 </v>
   <v>       0.81425149       0.87461917       0.56684224 </v>
   <v>       0.80748714       0.87324454       0.29964948 </v>
   <v>       0.31126553       0.03685844       0.25557759 </v>
   <v>       0.43697943       0.27967991       0.12424882 </v>
   <v>       0.31321477       0.70818687       0.61144174 </v>
   <v>       0.43553573       0.62507337       0.43301911 </v>
   <v>       0.93576228       0.62494074       0.43309943 </v>
   <v>       0.31512630       0.86345403       0.16553027 </v>
   <v>       0.06718034       0.54943416       0.78883502 </v>
   <v>       0.81764520       0.37642587       0.70031142 </v>
   <v>       0.31497371       0.36330427       0.16559079 </v>
   <v>       0.93760730       0.96309183       0.74465909 </v>
   <v>       0.81182330       0.53678094       0.25535657 </v>
  </varray>
 </structure>
</modeling>
