unknown system                          
           1
     9.726678    0.000000    0.000000
     0.000000    8.423550    0.000000
     0.000000    0.000000   45.000000
   Fe   Mn
 281   7
Direct configuration=     1
   0.05403878  0.70108908  0.21126113
   0.31813699  0.72416597  0.87627911
   0.68801678  0.95841411  0.61134090
   0.43842042  0.45856909  0.61156470
   0.44060890  0.28739904  0.25506687
   0.05859589  0.38822099  0.83359910
   0.30851714  0.88757063  0.83356504
   0.44685595  0.62644774  0.70041433
   0.05973801  0.21260611  0.74492022
   0.17887998  0.45134979  0.21132934
   0.56787767  0.21081394  0.47747769
   0.06662692  0.87514928  0.56691605
   0.56811712  0.22396336  0.87613400
   0.80912423  0.52794264  0.12390888
   0.42906820  0.95130676  0.21136598
   0.56647327  0.37497902  0.56684348
   0.81127222  0.04169879  0.38831808
   0.68181757  0.78902155  0.52237822
   0.44274750  0.46075715  0.47747001
   0.43386986  0.96256203  0.74473592
   0.44176922  0.62516075  0.56683755
   0.57133893  0.87643954  0.70055697
   0.30922805  0.02589008  0.12387814
   0.69007830  0.95904828  0.34407363
   0.68794387  0.78200726  0.12417639
   0.05266285  0.37392368  0.29955800
   0.68971322  0.46801322  0.87612009
   0.42894099  0.45119696  0.21140577
   0.80840582  0.37510068  0.43307928
   0.56359882  0.70870651  0.61154597
   0.56003122  0.54051179  0.65591344
   0.81775842  0.86196398  0.16670511
   0.56570050  0.53747751  0.25516316
   0.68982501  0.45885696  0.34400341
   0.19173501  0.61164639  0.16637486
   0.19441242  0.79967605  0.78886163
   0.44669205  0.12586165  0.70034281
   0.92792106  0.62364563  0.29958888
   0.31764582  0.22382248  0.87610650
   0.31677612  0.87476506  0.56684938
   0.81737964  0.22380823  0.87622713
   0.80964572  0.54067966  0.65588117
   0.55892678  0.52691328  0.12383172
   0.56922963  0.04972349  0.78901529
   0.19064874  0.28739817  0.25516997
   0.80849398  0.87484051  0.43307881
   0.57217298  0.37626864  0.70040775
   0.05724243  0.02685372  0.12405343
   0.30972549  0.54066270  0.65588538
   0.56527939  0.20895777  0.34402676
   0.18801194  0.95848668  0.61149377
   0.30285607  0.37399756  0.29960972
   0.43473546  0.79050556  0.65599788
   0.19492928  0.29919612  0.78883460
   0.06749621  0.36315590  0.16664644
   0.69730413  0.62567559  0.70046416
   0.31157511  0.54113820  0.38844310
   0.06762249  0.72344866  0.87618081
   0.93371464  0.63766199  0.83401555
   0.31997634  0.54948651  0.78891238
   0.30451839  0.20054534  0.21118811
   0.06803957  0.71069303  0.47748356
   0.55443104  0.20083719  0.21108916
   0.30957549  0.21246848  0.74489729
   0.07143936  0.37637561  0.70059252
   0.18332132  0.63745821  0.83350876
   0.06930324  0.04940550  0.78902545
   0.44155731  0.12504082  0.56691104
   0.93460680  0.29079713  0.65586917
   0.80426434  0.20129636  0.21118786
   0.92926075  0.95128072  0.21128864
   0.94155948  0.62504858  0.56689384
   0.80829286  0.38781748  0.83353427
   0.19664624  0.62654683  0.70035421
   0.80867912  0.88777072  0.83354369
   0.68468420  0.29071016  0.65595327
   0.31295445  0.20818102  0.61140434
   0.43471894  0.46289876  0.74469706
   0.43635615  0.79116582  0.38842477
   0.68468352  0.96250000  0.74479086
   0.80388414  0.70104743  0.21123427
   0.81319992  0.70874362  0.61153227
   0.43727074  0.78377967  0.12395104
   0.30981984  0.71221171  0.74482943
   0.32008361  0.04941130  0.78881286
   0.81138047  0.54141283  0.38833201
   0.68251044  0.28838194  0.52229257
   0.69482135  0.79931812  0.78892119
   0.19040953  0.78773991  0.25519936
   0.69184061  0.11245313  0.16662565
   0.69273814  0.96082330  0.47747482
   0.94025314  0.95920786  0.34410297
   0.80729214  0.03928076  0.52247973
   0.68346148  0.62489879  0.43309312
   0.44013766  0.45863322  0.34401419
   0.81019391  0.21183262  0.74461732
   0.43976071  0.96822520  0.87610533
   0.56662341  0.87486964  0.56682476
   0.80938012  0.02786072  0.12396631
   0.42802066  0.62400204  0.29942146
   0.81687640  0.72379465  0.87638650
   0.68787305  0.45806867  0.61144384
   0.55845312  0.38743191  0.83348805
   0.80278733  0.37339698  0.29947083
   0.18644531  0.29109582  0.38838059
   0.81991823  0.54930765  0.78893544
   0.18245007  0.78926285  0.52252474
   0.30292245  0.87410148  0.29958883
   0.17828851  0.95135516  0.21129271
   0.18461493  0.46241347  0.74486841
   0.43255348  0.28848890  0.52231715
   0.06526985  0.70898822  0.34398132
   0.18492858  0.79048813  0.65585798
   0.44479110  0.79926697  0.78884216
   0.68344458  0.12506505  0.43298950
   0.93229758  0.78864098  0.52231641
   0.69188588  0.61250822  0.16663125
   0.81478614  0.70870159  0.34396895
   0.93439523  0.46246460  0.74493944
   0.19034160  0.45893323  0.34409344
   0.56969593  0.54979401  0.78913512
   0.56641358  0.36250889  0.16645174
   0.56489707  0.70898649  0.34395458
   0.55280593  0.37379326  0.29960919
   0.18972427  0.46797588  0.87607110
   0.19159139  0.11129282  0.16639430
   0.44467269  0.29900803  0.78879484
   0.69097875  0.78733650  0.25539189
   0.93357543  0.13777125  0.83357317
   0.44285768  0.96068736  0.47745204
   0.56751832  0.72482849  0.87624005
   0.19268254  0.46063023  0.47743978
   0.93435267  0.28165727  0.12410932
   0.31144539  0.04136388  0.38839721
   0.06001292  0.04047381  0.65597680
   0.55845757  0.37475409  0.43307929
   0.68378409  0.46274189  0.74505190
   0.56020566  0.21258780  0.74485413
   0.94656649  0.12607738  0.70042847
   0.55965368  0.04073588  0.65582415
   0.55709047  0.53921889  0.52253512
   0.17801494  0.12386980  0.29958215
   0.44189878  0.11043825  0.16634975
   0.67772762  0.62355855  0.29958794
   0.92789993  0.12358457  0.29965512
   0.81647058  0.37507491  0.56690556
   0.05300394  0.87403353  0.29953733
   0.19158490  0.62490431  0.56690162
   0.94455805  0.79988510  0.78890238
   0.30838671  0.38746599  0.83351051
   0.93957652  0.46836903  0.87614272
   0.43354197  0.63771673  0.83352013
   0.06516043  0.20878157  0.34390020
   0.18985516  0.96825768  0.87608587
   0.93482399  0.78197205  0.12411399
   0.68635392  0.79124596  0.38837960
   0.93479114  0.79058837  0.65585427
   0.94137557  0.11189134  0.16651613
   0.43506380  0.29072671  0.65607386
   0.05426549  0.20106953  0.21126316
   0.67889588  0.95126864  0.21128194
   0.17830693  0.62378675  0.29944149
   0.82183298  0.87630720  0.70043115
   0.94644831  0.62665542  0.70051530
   0.19625752  0.12583510  0.70035922
   0.94290974  0.46066089  0.47741014
   0.81309218  0.20844773  0.61152388
   0.18332362  0.62496352  0.43311412
   0.42800669  0.12370775  0.29940771
   0.67817193  0.12340577  0.29942578
   0.56151445  0.54130327  0.38841200
   0.81463057  0.20855822  0.34396097
   0.43976504  0.46791676  0.87592957
   0.55862747  0.88756946  0.83348978
   0.31794661  0.21056065  0.47743872
   0.19296078  0.96069791  0.47748433
   0.05854548  0.88762770  0.83353735
   0.05715332  0.53925123  0.52248046
   0.94263585  0.96058862  0.47735236
   0.06315802  0.70838531  0.61159370
   0.55741232  0.03864806  0.52236589
   0.69496749  0.29915372  0.78884621
   0.81777392  0.36183476  0.16669845
   0.43353011  0.12490701  0.43304815
   0.06783467  0.21079853  0.47746091
   0.30978349  0.04070271  0.65587624
   0.43225511  0.78925031  0.52245465
   0.18368561  0.13790910  0.83356450
   0.18558634  0.28298259  0.12425714
   0.94038440  0.45927146  0.34410080
   0.56669156  0.86257800  0.16646568
   0.30403649  0.70078990  0.21125309
   0.94129364  0.61226319  0.16651813
   0.18817685  0.45861729  0.61149837
   0.07206151  0.87662848  0.70028269
   0.05977201  0.54064911  0.65587099
   0.30820666  0.52621749  0.12396790
   0.93633430  0.79110176  0.38844491
   0.94457617  0.29896020  0.78879641
   0.18483385  0.29076688  0.65596373
   0.93782081  0.95803108  0.61134238
   0.81071560  0.71127689  0.74464665
   0.69086508  0.28766271  0.25528968
   0.05928541  0.71223886  0.74498089
   0.67891165  0.45131340  0.21124345
   0.81795946  0.21075084  0.47752410
   0.56768239  0.71061508  0.47741413
   0.06775225  0.86347835  0.16660407
   0.93231829  0.28885220  0.52248632
   0.68452591  0.79060308  0.65590806
   0.05836171  0.87467242  0.43311395
   0.06823104  0.22323432  0.87615527
   0.80988332  0.04063174  0.65599208
   0.55960687  0.02691684  0.12384708
   0.30855297  0.37483892  0.43303511
   0.31658077  0.37492069  0.56688527
   0.31769160  0.71051697  0.47735981
   0.05701717  0.03904287  0.52255383
   0.32155163  0.87648516  0.70057505
   0.06507703  0.53756310  0.25511351
   0.68361050  0.13775500  0.83352441
   0.81508539  0.03752887  0.25518958
   0.18362809  0.12495778  0.43310353
   0.69727192  0.12636387  0.70039902
   0.18241571  0.28919693  0.52249350
   0.44062254  0.78771564  0.25525738
   0.44152211  0.61060845  0.16641385
   0.06325133  0.20840137  0.61148428
   0.18606961  0.79122722  0.38837173
   0.30740487  0.53891046  0.52249860
   0.93339565  0.12489881  0.43309251
   0.68640053  0.29127758  0.38838606
   0.19157278  0.12520956  0.56689893
   0.68962614  0.96846420  0.87611690
   0.69160757  0.12504999  0.56688143
   0.44016024  0.95892767  0.34406019
   0.18376723  0.96255694  0.74482678
   0.94058084  0.78761977  0.25521625
   0.55837843  0.87501592  0.43308675
   0.30828119  0.87521072  0.43309364
   0.80738062  0.53937394  0.52252281
   0.92923250  0.45126760  0.21128418
   0.31532552  0.53779438  0.25509515
   0.56152313  0.04131377  0.38838584
   0.93790514  0.45823772  0.61153028
   0.06133698  0.04133916  0.38842893
   0.06158463  0.54125908  0.38842781
   0.43657594  0.29120454  0.38837510
   0.69298084  0.46048267  0.47747035
   0.06677702  0.37513288  0.56689110
   0.55417355  0.70089542  0.21110216
   0.94093367  0.28743380  0.25538068
   0.81902787  0.04961113  0.78918015
   0.18998235  0.95896898  0.34400016
   0.55289966  0.87386054  0.29963579
   0.05856344  0.37493080  0.43312867
   0.31510367  0.70907207  0.34399774
   0.31489782  0.20905080  0.34395042
   0.94182260  0.12498847  0.56674943
   0.43845769  0.95875118  0.61157744
   0.56549335  0.03749050  0.25502839
   0.18594651  0.78280293  0.12422595
   0.06527437  0.03719199  0.25512982
   0.69169932  0.62503556  0.56687733
   0.05696559  0.52598254  0.12411903
   0.30707035  0.03858007  0.52223360
   0.68748863  0.28198636  0.12417192
   0.81796254  0.71068394  0.47743524
   0.43345702  0.13784222  0.83355012
   0.32228246  0.37629746  0.70037030
   0.68367923  0.63791418  0.83350602
   0.55968103  0.71223839  0.74488463
   0.93682423  0.29157480  0.38847891
   0.93982421  0.96842695  0.87612640
   0.56280272  0.20824414  0.61124824
   0.81653432  0.87495662  0.56688113
   0.80333751  0.87341865  0.29944559
   0.31520463  0.03767727  0.25512832
   0.43679486  0.28362914  0.12403134
   0.31326783  0.70840781  0.61158920
   0.43350556  0.62504246  0.43311074
   0.93277983  0.62503407  0.43325129
   0.31821549  0.86280007  0.16570086
   0.07085976  0.54944666  0.78874758
   0.82215008  0.37673846  0.70025364
   0.31851415  0.36326008  0.16575606
   0.93289623  0.96181537  0.74477725
   0.81599853  0.53746103  0.25549769
Direct configuration=     2
   0.05460247  0.70108345  0.21123309
   0.31785271  0.72365453  0.87620705
   0.68807045  0.95839247  0.61135874
   0.43838627  0.45848305  0.61154426
   0.44004462  0.28731299  0.25513044
   0.05891857  0.38801702  0.83368125
   0.30891710  0.88744612  0.83365698
   0.44619263  0.62649590  0.70041169
   0.06026667  0.21264846  0.74486709
   0.17938462  0.45133803  0.21131196
   0.56731981  0.21054619  0.47752356
   0.06628270  0.87507599  0.56690270
   0.56777951  0.22338725  0.87607397
   0.80927591  0.52827629  0.12399176
   0.42964746  0.95131481  0.21132910
   0.56615576  0.37494729  0.56682936
   0.81134309  0.04173636  0.38834445
   0.68243135  0.78926784  0.52234641
   0.44221421  0.46052357  0.47752243
   0.43443566  0.96260976  0.74470371
   0.44136454  0.62508623  0.56683928
   0.57069581  0.87644522  0.70052409
   0.30943427  0.02659598  0.12391392
   0.68962953  0.95889757  0.34408079
   0.68791456  0.78166419  0.12424441
   0.05338048  0.37385394  0.29957417
   0.68960420  0.46849628  0.87603097
   0.42954353  0.45123294  0.21136221
   0.80878715  0.37509901  0.43307607
   0.56352641  0.70860201  0.61154401
   0.56045996  0.54062300  0.65589580
   0.81729905  0.86219272  0.16659886
   0.56500784  0.53743015  0.25521205
   0.68939867  0.45876174  0.34401543
   0.19126506  0.61180179  0.16634558
   0.19404139  0.79961792  0.78884636
   0.44610278  0.12591440  0.70034751
   0.92862242  0.62360631  0.29960918
   0.31730845  0.22329156  0.87605266
   0.31635388  0.87475869  0.56684113
   0.81708994  0.22327559  0.87615566
   0.81009169  0.54083577  0.65585500
   0.55910885  0.52728587  0.12391615
   0.56888850  0.04967982  0.78900306
   0.19008190  0.28733843  0.25521532
   0.80882011  0.87491961  0.43306984
   0.57138191  0.37629536  0.70041311
   0.05781182  0.02718868  0.12410689
   0.31015921  0.54073237  0.65587887
   0.56478866  0.20883208  0.34404416
   0.18804264  0.95839776  0.61148015
   0.30352872  0.37396663  0.29960531
   0.43517964  0.79067392  0.65596744
   0.19446259  0.29910377  0.78883628
   0.06699078  0.36319935  0.16655307
   0.69645996  0.62583575  0.70044964
   0.31158378  0.54121841  0.38845204
   0.06731025  0.72294491  0.87613824
   0.93407182  0.63752528  0.83405801
   0.31959197  0.54952459  0.78891629
   0.30493401  0.20050365  0.21116965
   0.06746808  0.71047171  0.47754522
   0.55483587  0.20084725  0.21108767
   0.31013470  0.21260555  0.74482579
   0.07088652  0.37643837  0.70055361
   0.18371960  0.63735686  0.83357478
   0.06893818  0.04939255  0.78901607
   0.44122159  0.12499425  0.56689940
   0.93509169  0.29090965  0.65584880
   0.80472258  0.20130303  0.21117590
   0.92973359  0.95133408  0.21128742
   0.94121485  0.62502469  0.56687673
   0.80868152  0.38765940  0.83363410
   0.19599961  0.62659124  0.70035435
   0.80901608  0.88760297  0.83364639
   0.68514610  0.29075501  0.65591870
   0.31301825  0.20816710  0.61142259
   0.43519651  0.46285290  0.74466003
   0.43638316  0.79123047  0.38843155
   0.68510339  0.96251296  0.74475063
   0.80438689  0.70101456  0.21122252
   0.81318964  0.70867281  0.61150601
   0.43725284  0.78316464  0.12399466
   0.31030148  0.71231777  0.74477364
   0.31966391  0.04944596  0.78883593
   0.81142407  0.54146308  0.38835389
   0.68303618  0.28877880  0.52226666
   0.69441203  0.79930153  0.78891051
   0.18989838  0.78773268  0.25524610
   0.69142063  0.11261410  0.16655896
   0.69216951  0.96057525  0.47752745
   0.93980627  0.95906735  0.34410907
   0.80783046  0.03943890  0.52242248
   0.68374385  0.62491213  0.43308468
   0.43967590  0.45863023  0.34403264
   0.81059475  0.21203642  0.74460966
   0.43966312  0.96869309  0.87602103
   0.56626165  0.87482256  0.56681187
   0.80953143  0.02814734  0.12404382
   0.42864731  0.62390489  0.29945709
   0.81663740  0.72331844  0.87631608
   0.68792595  0.45806478  0.61143799
   0.55882687  0.38736652  0.83357493
   0.80347035  0.37337298  0.29950434
   0.18647769  0.29119318  0.38839156
   0.81942171  0.54935986  0.78896386
   0.18298802  0.78947092  0.52248212
   0.30361195  0.87401205  0.29958977
   0.17891427  0.95138931  0.21128460
   0.18518243  0.46250927  0.74481621
   0.43303795  0.28883342  0.52228796
   0.06482275  0.70890336  0.34401841
   0.18536658  0.79059370  0.65583569
   0.44435254  0.79932062  0.78883483
   0.68372011  0.12504745  0.43299928
   0.93286296  0.78893254  0.52229468
   0.69145460  0.61261233  0.16655463
   0.81440609  0.70864199  0.34400793
   0.93496449  0.46249489  0.74487607
   0.18986440  0.45887711  0.34410046
   0.56934262  0.54976676  0.78912048
   0.56626247  0.36271010  0.16635182
   0.56443478  0.70891871  0.34400276
   0.55353392  0.37373422  0.29960362
   0.18959959  0.46847017  0.87599874
   0.19121042  0.11151050  0.16635212
   0.44422742  0.29899095  0.78879523
   0.69028321  0.78731178  0.25540489
   0.93404008  0.13763724  0.83365812
   0.44226816  0.96044481  0.47750461
   0.56721981  0.72417386  0.87616581
   0.19212917  0.46042597  0.47749929
   0.93462503  0.28136133  0.12418323
   0.31145553  0.04142086  0.38841122
   0.06042257  0.04056528  0.65594190
   0.55881508  0.37477200  0.43307091
   0.68431331  0.46270667  0.74498194
   0.56069371  0.21269355  0.74478742
   0.94598056  0.12616386  0.70041836
   0.56012583  0.04081002  0.65581451
   0.55768054  0.53941658  0.52246710
   0.17866553  0.12379770  0.29958366
   0.44140250  0.11069911  0.16629891
   0.67837632  0.62355246  0.29960311
   0.92856626  0.12348364  0.29965933
   0.81613359  0.37503512  0.56689895
   0.05368809  0.87392491  0.29955855
   0.19123709  0.62489252  0.56690196
   0.94408328  0.79973610  0.78891281
   0.30879725  0.38735482  0.83360414
   0.93952369  0.46881881  0.87606255
   0.43398653  0.63764316  0.83360354
   0.06468691  0.20875489  0.34394621
   0.18971553  0.96867942  0.87600718
   0.93504749  0.78163413  0.12418475
   0.68639194  0.79132521  0.38839864
   0.93524175  0.79075027  0.65584011
   0.94098840  0.11216298  0.16646798
   0.43541187  0.29081787  0.65603623
   0.05486074  0.20108008  0.21124248
   0.67946169  0.95127807  0.21127912
   0.17890721  0.62374686  0.29947921
   0.82111222  0.87633147  0.70041833
   0.94587670  0.62670705  0.70049231
   0.19565785  0.12595997  0.70035969
   0.94235233  0.46042109  0.47747767
   0.81309493  0.20838103  0.61150972
   0.18376024  0.62497844  0.43310318
   0.42867691  0.12365480  0.29944452
   0.67876612  0.12335864  0.29945777
   0.56150768  0.54136167  0.38842790
   0.81427399  0.20851430  0.34401467
   0.43967186  0.46845603  0.87586898
   0.55897637  0.88744743  0.83359269
   0.31736471  0.21034723  0.47749493
   0.19236132  0.96045434  0.47753650
   0.05890658  0.88751989  0.83363027
   0.05773712  0.53945843  0.52242908
   0.94212169  0.96033627  0.47742089
   0.06317525  0.70830590  0.61157176
   0.55792683  0.03898091  0.52232939
   0.69452529  0.29911264  0.78883948
   0.81729328  0.36208912  0.16660245
   0.43384657  0.12491705  0.43304502
   0.06727989  0.21049433  0.47751856
   0.31024808  0.04080519  0.65586198
   0.43279041  0.78941983  0.52240241
   0.18411676  0.13775435  0.83363859
   0.18564991  0.28241612  0.12428378
   0.93987716  0.45914458  0.34411109
   0.56653071  0.86277230  0.16637140
   0.30453899  0.70072311  0.21123203
   0.94084340  0.61241706  0.16647086
   0.18817664  0.45849303  0.61149343
   0.07142599  0.87665855  0.70028161
   0.06023897  0.54074372  0.65586626
   0.30855253  0.52686317  0.12397926
   0.93634386  0.79120903  0.38844972
   0.94414880  0.29891482  0.78880758
   0.18524296  0.29084700  0.65593747
   0.93791815  0.95805996  0.61136383
   0.81105696  0.71150819  0.74463817
   0.69020498  0.28760340  0.25530971
   0.05997732  0.71236126  0.74491067
   0.67946843  0.45130350  0.21124586
   0.81738168  0.21047825  0.47756938
   0.56714863  0.71040255  0.47747889
   0.06716607  0.86350448  0.16651877
   0.93287060  0.28909610  0.52244114
   0.68497222  0.79073968  0.65589162
   0.05870160  0.87471930  0.43309828
   0.06785819  0.22271406  0.87610633
   0.81029688  0.04075358  0.65595593
   0.55970713  0.02728438  0.12392456
   0.30887582  0.37482916  0.43303393
   0.31624897  0.37491496  0.56686911
   0.31716682  0.71032769  0.47743171
   0.05763144  0.03923647  0.52248142
   0.32091271  0.87648594  0.70054443
   0.06462546  0.53749544  0.25517553
   0.68401879  0.13767932  0.83361311
   0.81455269  0.03743070  0.25524285
   0.18400562  0.12496610  0.43309680
   0.69648002  0.12639830  0.70038474
   0.18296611  0.28939920  0.52243903
   0.44003652  0.78768147  0.25529778
   0.44111484  0.61087103  0.16635955
   0.06328208  0.20831669  0.61145595
   0.18611162  0.79126938  0.38837976
   0.30794321  0.53916118  0.52244249
   0.93376272  0.12493084  0.43308142
   0.68641307  0.29136323  0.38840034
   0.19121489  0.12514868  0.56689242
   0.68954120  0.96891803  0.87603335
   0.69124663  0.12500764  0.56686826
   0.43969599  0.95887215  0.34407231
   0.18441418  0.96261069  0.74478088
   0.94001098  0.78757222  0.25526079
   0.55876601  0.87508507  0.43307804
   0.30865140  0.87522415  0.43309379
   0.80790690  0.53952966  0.52246670
   0.92971597  0.45129502  0.21129677
   0.31478979  0.53765475  0.25517028
   0.56151098  0.04137788  0.38840341
   0.93796001  0.45817088  0.61151908
   0.06136214  0.04142473  0.38844314
   0.06157282  0.54132567  0.38843631
   0.43657780  0.29127280  0.38838493
   0.69240142  0.46030545  0.47753030
   0.06638902  0.37508342  0.56688431
   0.55465985  0.70086975  0.21111161
   0.94029663  0.28736753  0.25540573
   0.81867358  0.04954531  0.78915005
   0.18955028  0.95890068  0.34402891
   0.55357985  0.87378837  0.29963160
   0.05891506  0.37494087  0.43311105
   0.31464404  0.70893244  0.34402492
   0.31448069  0.20890935  0.34397849
   0.94141096  0.12498629  0.56675678
   0.43837511  0.95862465  0.61156253
   0.56477956  0.03743211  0.25510286
   0.18598316  0.78225803  0.12424340
   0.06483282  0.03721217  0.25519455
   0.69131133  0.62496691  0.56687112
   0.05752250  0.52644186  0.12416320
   0.30765227  0.03892780  0.52221554
   0.68749283  0.28168010  0.12424060
   0.81734844  0.71047984  0.47749495
   0.43392356  0.13766778  0.83360167
   0.32158449  0.37630903  0.70036204
   0.68414190  0.63779829  0.83359407
   0.56019918  0.71230569  0.74483359
   0.93676257  0.29161697  0.38848348
   0.93973895  0.96883595  0.87604447
   0.56286336  0.20817579  0.61127002
   0.81621098  0.87490882  0.56687562
   0.80392527  0.87339399  0.29947446
   0.31464669  0.03756129  0.25519195
   0.43682101  0.28306977  0.12406214
   0.31326031  0.70837651  0.61156831
   0.43379311  0.62504684  0.43309776
   0.93320227  0.62502085  0.43322978
   0.31777794  0.86289270  0.16567670
   0.07033861  0.54944489  0.78875996
   0.82151201  0.37669419  0.70026183
   0.31801268  0.36326634  0.16573265
   0.93356351  0.96199617  0.74476051
   0.81540715  0.53736471  0.25547770
Direct configuration=     3
   0.05629356  0.70106658  0.21114900
   0.31699988  0.72212022  0.87599087
   0.68823147  0.95832754  0.61141226
   0.43828380  0.45822493  0.61148293
   0.43835180  0.28705484  0.25532115
   0.05988659  0.38740509  0.83392770
   0.31011700  0.88707259  0.83393278
   0.44420267  0.62664039  0.70040375
   0.06185266  0.21277553  0.74470771
   0.18089854  0.45130275  0.21125981
   0.56564626  0.20974294  0.47766116
   0.06525003  0.87485611  0.56686266
   0.56676667  0.22165891  0.87589389
   0.80973096  0.52927724  0.12424040
   0.43138525  0.95133896  0.21121847
   0.56520322  0.37485210  0.56678701
   0.81155571  0.04184905  0.38842355
   0.68427271  0.79000671  0.52225096
   0.44061436  0.45982282  0.47767968
   0.43613308  0.96275296  0.74460707
   0.44015049  0.62486266  0.56684445
   0.56876644  0.87646228  0.70042545
   0.31005291  0.02871369  0.12402123
   0.68828320  0.95844545  0.34410226
   0.68782664  0.78063497  0.12444847
   0.05553335  0.37364472  0.29962265
   0.68927715  0.46994546  0.87576361
   0.43135114  0.45134087  0.21123153
   0.80993114  0.37509399  0.43306644
   0.56330921  0.70828850  0.61153814
   0.56174616  0.54095663  0.65584289
   0.81592093  0.86287895  0.16628009
   0.56292986  0.53728806  0.25535869
   0.68811963  0.45847607  0.34405152
   0.18985518  0.61226799  0.16625773
   0.19292830  0.79944354  0.78880056
   0.44433497  0.12607265  0.70036162
   0.93072649  0.62348836  0.29967009
   0.31629633  0.22169879  0.87589117
   0.31508718  0.87473959  0.56681639
   0.81622084  0.22167767  0.87594123
   0.81142960  0.54130411  0.65577650
   0.55965507  0.52840366  0.12416941
   0.56786512  0.04954880  0.78896637
   0.18838139  0.28715922  0.25535139
   0.80979850  0.87515688  0.43304294
   0.56900872  0.37637550  0.70042917
   0.05951999  0.02819358  0.12426727
   0.31146036  0.54094140  0.65585934
   0.56331646  0.20845503  0.34409638
   0.18813474  0.95813101  0.61143931
   0.30554666  0.37387385  0.29959206
   0.43651216  0.79117898  0.65587613
   0.19306254  0.29882670  0.78884130
   0.06547448  0.36332970  0.16627296
   0.69392747  0.62631624  0.70040609
   0.31160980  0.54145907  0.38847886
   0.06637355  0.72143363  0.87601054
   0.93514338  0.63711514  0.83418540
   0.31843886  0.54963883  0.78892803
   0.30618087  0.20037859  0.21111429
   0.06575363  0.70980777  0.47773022
   0.55605036  0.20087744  0.21108317
   0.31181231  0.21301677  0.74461131
   0.06922800  0.37662665  0.70043688
   0.18491443  0.63705279  0.83377283
   0.06784303  0.04935369  0.78898793
   0.44021441  0.12485453  0.56686449
   0.93654634  0.29124721  0.65578770
   0.80609729  0.20132301  0.21114003
   0.93115212  0.95149414  0.21128375
   0.94018094  0.62495300  0.56682541
   0.80984752  0.38718514  0.83393359
   0.19405972  0.62672447  0.70035475
   0.81002698  0.88709970  0.83395450
   0.68653180  0.29088958  0.65581500
   0.31320964  0.20812535  0.61147735
   0.43662922  0.46271532  0.74454895
   0.43646418  0.79142441  0.38845190
   0.68636299  0.96255185  0.74462996
   0.80589514  0.70091595  0.21118730
   0.81315882  0.70846037  0.61142725
   0.43719913  0.78131958  0.12412552
   0.31174641  0.71263594  0.74460627
   0.31840481  0.04954992  0.78890517
   0.81155484  0.54161382  0.38841954
   0.68461340  0.28996936  0.52218892
   0.69318408  0.79925173  0.78887846
   0.18836493  0.78771100  0.25538632
   0.69016071  0.11309703  0.16635891
   0.69046359  0.95983109  0.47768532
   0.93846565  0.95864581  0.34412737
   0.80944544  0.03991331  0.52225075
   0.68459095  0.62495218  0.43305937
   0.43829062  0.45862124  0.34408797
   0.81179725  0.21264782  0.74458666
   0.43937033  0.97009673  0.87576815
   0.56517636  0.87468133  0.56677317
   0.80998535  0.02900720  0.12427636
   0.43052724  0.62361345  0.29956399
   0.81592039  0.72188980  0.87610483
   0.68808463  0.45805311  0.61142043
   0.55994811  0.38717036  0.83383559
   0.80551944  0.37330100  0.29960488
   0.18657485  0.29148525  0.38842448
   0.81793216  0.54951650  0.78904912
   0.18460188  0.79009512  0.52235427
   0.30568044  0.87374374  0.29959260
   0.18079154  0.95149176  0.21126026
   0.18688491  0.46279667  0.74465963
   0.43449139  0.28986695  0.52220040
   0.06348146  0.70864880  0.34412968
   0.18668059  0.79091043  0.65576883
   0.44303686  0.79948158  0.78881283
   0.68454669  0.12499467  0.43302861
   0.93455913  0.78980725  0.52222948
   0.69016075  0.61292466  0.16632475
   0.81326594  0.70846319  0.34412487
   0.93667226  0.46258576  0.74468596
   0.18843280  0.45870878  0.34412153
   0.56828267  0.54968503  0.78907654
   0.56580914  0.36331373  0.16605207
   0.56304792  0.70871538  0.34414729
   0.55571787  0.37355708  0.29958691
   0.18922554  0.46995304  0.87578166
   0.19006753  0.11216355  0.16622557
   0.44289159  0.29893968  0.78879642
   0.68819658  0.78723764  0.25544391
   0.93543402  0.13723522  0.83391298
   0.44049958  0.95971713  0.47766233
   0.56632430  0.72220997  0.87594308
   0.19046905  0.45981318  0.47767782
   0.93544212  0.28047349  0.12440495
   0.31148596  0.04159179  0.38845325
   0.06165152  0.04083968  0.65583718
   0.55988761  0.37482574  0.43304574
   0.68590095  0.46260099  0.74477209
   0.56215785  0.21301080  0.74458730
   0.94422276  0.12642329  0.70038803
   0.56154229  0.04103243  0.65578558
   0.55945074  0.54000965  0.52226307
   0.18061732  0.12358139  0.29958819
   0.43991366  0.11148170  0.16614639
   0.68032242  0.62353420  0.29964860
   0.93056526  0.12318085  0.29967196
   0.81512264  0.37491575  0.56687913
   0.05574053  0.87359905  0.29962221
   0.19019365  0.62485712  0.56690298
   0.94265897  0.79928909  0.78894408
   0.31002888  0.38702132  0.83388502
   0.93936520  0.47016816  0.87582206
   0.43532023  0.63742247  0.83385376
   0.06326636  0.20867485  0.34408426
   0.18929666  0.96994462  0.87577110
   0.93571799  0.78062037  0.12439705
   0.68650598  0.79156295  0.38845576
   0.93659357  0.79123597  0.65579765
   0.93982689  0.11297790  0.16632350
   0.43645609  0.29109133  0.65592332
   0.05664651  0.20111175  0.21118045
   0.68115913  0.95130636  0.21127066
   0.18070807  0.62362720  0.29959238
   0.81894995  0.87640428  0.70037985
   0.94416188  0.62686192  0.70042333
   0.19385886  0.12633458  0.70036109
   0.94068011  0.45970169  0.47768027
   0.81310319  0.20818091  0.61146724
   0.18507011  0.62502321  0.43307034
   0.43068754  0.12349595  0.29955495
   0.68054867  0.12321726  0.29955372
   0.56148735  0.54153688  0.38847557
   0.81320424  0.20838257  0.34417579
   0.43939232  0.47007384  0.87568722
   0.56002306  0.88708134  0.83390142
   0.31561900  0.20970697  0.47766355
   0.19056292  0.95972362  0.47769301
   0.05998988  0.88719646  0.83390904
   0.05948854  0.54008003  0.52227494
   0.94057921  0.95957923  0.47762646
   0.06322696  0.70806767  0.61150596
   0.55947036  0.03997946  0.52221990
   0.69319869  0.29898941  0.78881926
   0.81585137  0.36285220  0.16631444
   0.43479594  0.12494715  0.43303565
   0.06561553  0.20958174  0.47769149
   0.31164184  0.04111263  0.65581919
   0.43439633  0.78992838  0.52224570
   0.18541020  0.13729011  0.83386084
   0.18584064  0.28071671  0.12436371
   0.93835544  0.45876394  0.34414195
   0.56604816  0.86335521  0.16608855
   0.30604648  0.70052275  0.21116886
   0.93949270  0.61287869  0.16632906
   0.18817600  0.45812024  0.61147859
   0.06951945  0.87674875  0.70027840
   0.06163986  0.54102754  0.65585206
   0.30959013  0.52880022  0.12401337
   0.93637254  0.79153084  0.38846415
   0.94286670  0.29877867  0.78884109
   0.18647031  0.29108735  0.65585868
   0.93821018  0.95814660  0.61142820
   0.81208106  0.71220211  0.74461274
   0.68822468  0.28742544  0.25536980
   0.06205305  0.71272844  0.74469999
   0.68113876  0.45127381  0.21125309
   0.81564835  0.20966047  0.47770520