 288 288   0   0
  0.1280206E+02  0.9726678E-09  0.8423550E-09  0.4500000E-08  0.2500000E-15
  1.000000000000000E-004
  CAR 
 unknown system                          
      6.82081622     -6.01775681  301      4.29409031      1.00000000
     -6.018  0.0000E+00  0.0000E+00
     -5.975  0.0000E+00  0.0000E+00
     -5.932  0.0000E+00  0.0000E+00
     -5.889  0.0000E+00  0.0000E+00
     -5.847  0.0000E+00  0.0000E+00
     -5.804  0.0000E+00  0.0000E+00
     -5.761  0.0000E+00  0.0000E+00
     -5.718  0.0000E+00  0.0000E+00
     -5.675  0.0000E+00  0.0000E+00
     -5.633  0.0000E+00  0.0000E+00
     -5.590  0.0000E+00  0.0000E+00
     -5.547  0.0000E+00  0.0000E+00
     -5.504  0.0000E+00  0.0000E+00
     -5.461  0.0000E+00  0.0000E+00
     -5.419  0.0000E+00  0.0000E+00
     -5.376  0.1621E-15  0.6939E-17
     -5.333  0.4281E-14  0.1901E-15
     -5.290  0.9145E-13  0.4104E-14
     -5.247  0.1671E-11  0.7560E-13
     -5.205  0.2600E-10  0.1188E-11
     -5.162  0.3447E-09  0.1594E-10
     -5.119  0.3894E-08  0.1826E-09
     -5.076  0.3750E-07  0.1787E-08
     -5.033  0.3081E-06  0.1497E-07
     -4.991  0.2162E-05  0.1075E-06
     -4.948  0.1297E-04  0.6626E-06
     -4.905  0.6666E-04  0.3515E-05
     -4.862  0.2941E-03  0.1610E-04
     -4.819  0.1117E-02  0.6392E-04
     -4.777  0.3675E-02  0.2212E-03
     -4.734  0.1052E-01  0.6715E-03
     -4.691  0.2644E-01  0.1803E-02
     -4.648  0.5885E-01  0.4321E-02
     -4.606  0.1174E+00  0.9344E-02
     -4.563  0.2121E+00  0.1842E-01
     -4.520  0.3508E+00  0.3343E-01
     -4.477  0.5355E+00  0.5635E-01
     -4.434  0.7595E+00  0.8885E-01
     -4.392  0.1005E+01  0.1319E+00
     -4.349  0.1248E+01  0.1853E+00
     -4.306  0.1461E+01  0.2478E+00
     -4.263  0.1623E+01  0.3172E+00
     -4.220  0.1728E+01  0.3912E+00
     -4.178  0.1789E+01  0.4678E+00
     -4.135  0.1839E+01  0.5465E+00
     -4.092  0.1918E+01  0.6285E+00
     -4.049  0.2058E+01  0.7166E+00
     -4.006  0.2271E+01  0.8138E+00
     -3.964  0.2537E+01  0.9224E+00
     -3.921  0.2813E+01  0.1043E+01
     -3.878  0.3045E+01  0.1173E+01
     -3.835  0.3184E+01  0.1309E+01
     -3.792  0.3214E+01  0.1447E+01
     -3.750  0.3159E+01  0.1582E+01
     -3.707  0.3072E+01  0.1714E+01
     -3.664  0.3019E+01  0.1843E+01
     -3.621  0.3052E+01  0.1973E+01
     -3.578  0.3190E+01  0.2110E+01
     -3.536  0.3411E+01  0.2256E+01
     -3.493  0.3661E+01  0.2413E+01
     -3.450  0.3884E+01  0.2579E+01
     -3.407  0.4040E+01  0.2752E+01
     -3.364  0.4121E+01  0.2928E+01
     -3.322  0.4145E+01  0.3105E+01
     -3.279  0.4145E+01  0.3283E+01
     -3.236  0.4156E+01  0.3461E+01
     -3.193  0.4204E+01  0.3641E+01
     -3.150  0.4305E+01  0.3825E+01
     -3.108  0.4457E+01  0.4016E+01
     -3.065  0.4648E+01  0.4215E+01
     -3.022  0.4855E+01  0.4422E+01
     -2.979  0.5047E+01  0.4638E+01
     -2.936  0.5197E+01  0.4861E+01
     -2.894  0.5294E+01  0.5087E+01
     -2.851  0.5348E+01  0.5316E+01
     -2.808  0.5390E+01  0.5547E+01
     -2.765  0.5454E+01  0.5780E+01
     -2.723  0.5555E+01  0.6018E+01
     -2.680  0.5667E+01  0.6260E+01
     -2.637  0.5728E+01  0.6506E+01
     -2.594  0.5683E+01  0.6749E+01
     -2.551  0.5539E+01  0.6986E+01
     -2.509  0.5390E+01  0.7217E+01
     -2.466  0.5381E+01  0.7447E+01
     -2.423  0.5628E+01  0.7688E+01
     -2.380  0.6136E+01  0.7950E+01
     -2.337  0.6779E+01  0.8240E+01
     -2.295  0.7345E+01  0.8555E+01
     -2.252  0.7641E+01  0.8882E+01
     -2.209  0.7591E+01  0.9207E+01
     -2.166  0.7283E+01  0.9518E+01
     -2.123  0.6927E+01  0.9815E+01
     -2.081  0.6751E+01  0.1010E+02
     -2.038  0.6893E+01  0.1040E+02
     -1.995  0.7338E+01  0.1071E+02
     -1.952  0.7937E+01  0.1105E+02
     -1.909  0.8485E+01  0.1142E+02
     -1.867  0.8821E+01  0.1179E+02
     -1.824  0.8897E+01  0.1217E+02
     -1.781  0.8797E+01  0.1255E+02
     -1.738  0.8672E+01  0.1292E+02
     -1.695  0.8652E+01  0.1329E+02
     -1.653  0.8783E+01  0.1367E+02
     -1.610  0.9023E+01  0.1405E+02
     -1.567  0.9304E+01  0.1445E+02
     -1.524  0.9583E+01  0.1486E+02
     -1.481  0.9852E+01  0.1528E+02
     -1.439  0.1011E+02  0.1572E+02
     -1.396  0.1032E+02  0.1616E+02
     -1.353  0.1045E+02  0.1660E+02
     -1.310  0.1054E+02  0.1706E+02
     -1.267  0.1072E+02  0.1751E+02
     -1.225  0.1122E+02  0.1799E+02
     -1.182  0.1212E+02  0.1851E+02
     -1.139  0.1333E+02  0.1908E+02
     -1.096  0.1453E+02  0.1971E+02
     -1.054  0.1535E+02  0.2036E+02
     -1.011  0.1565E+02  0.2103E+02
     -0.968  0.1558E+02  0.2170E+02
     -0.925  0.1556E+02  0.2237E+02
     -0.882  0.1599E+02  0.2305E+02
     -0.840  0.1705E+02  0.2378E+02
     -0.797  0.1870E+02  0.2458E+02
     -0.754  0.2082E+02  0.2547E+02
     -0.711  0.2345E+02  0.2647E+02
     -0.668  0.2680E+02  0.2762E+02
     -0.626  0.3100E+02  0.2895E+02
     -0.583  0.3584E+02  0.3048E+02
     -0.540  0.4076E+02  0.3223E+02
     -0.497  0.4509E+02  0.3416E+02
     -0.454  0.4846E+02  0.3623E+02
     -0.412  0.5092E+02  0.3841E+02
     -0.369  0.5278E+02  0.4067E+02
     -0.326  0.5432E+02  0.4299E+02
     -0.283  0.5559E+02  0.4537E+02
     -0.240  0.5648E+02  0.4779E+02
     -0.198  0.5693E+02  0.5022E+02
     -0.155  0.5699E+02  0.5266E+02
     -0.112  0.5686E+02  0.5510E+02
     -0.069  0.5681E+02  0.5753E+02
     -0.026  0.5710E+02  0.5997E+02
      0.016  0.5795E+02  0.6245E+02
      0.059  0.5952E+02  0.6500E+02
      0.102  0.6184E+02  0.6765E+02
      0.145  0.6484E+02  0.7042E+02
      0.188  0.6834E+02  0.7334E+02
      0.230  0.7210E+02  0.7643E+02
      0.273  0.7584E+02  0.7968E+02
      0.316  0.7924E+02  0.8307E+02
      0.359  0.8206E+02  0.8658E+02
      0.402  0.8420E+02  0.9018E+02
      0.444  0.8574E+02  0.9385E+02
      0.487  0.8675E+02  0.9756E+02
      0.530  0.8728E+02  0.1013E+03
      0.573  0.8732E+02  0.1050E+03
      0.616  0.8690E+02  0.1088E+03
      0.658  0.8608E+02  0.1124E+03
      0.701  0.8493E+02  0.1161E+03
      0.744  0.8343E+02  0.1196E+03
      0.787  0.8159E+02  0.1231E+03
      0.829  0.7955E+02  0.1265E+03
      0.872  0.7765E+02  0.1299E+03
      0.915  0.7630E+02  0.1331E+03
      0.958  0.7571E+02  0.1364E+03
      1.001  0.7578E+02  0.1396E+03
      1.043  0.7614E+02  0.1429E+03
      1.086  0.7635E+02  0.1461E+03
      1.129  0.7616E+02  0.1494E+03
      1.172  0.7555E+02  0.1526E+03
      1.215  0.7474E+02  0.1558E+03
      1.257  0.7392E+02  0.1590E+03
      1.300  0.7319E+02  0.1621E+03
      1.343  0.7249E+02  0.1652E+03
      1.386  0.7162E+02  0.1683E+03
      1.429  0.7039E+02  0.1713E+03
      1.471  0.6881E+02  0.1742E+03
      1.514  0.6714E+02  0.1771E+03
      1.557  0.6595E+02  0.1799E+03
      1.600  0.6579E+02  0.1828E+03
      1.643  0.6694E+02  0.1856E+03
      1.685  0.6925E+02  0.1886E+03
      1.728  0.7226E+02  0.1917E+03
      1.771  0.7547E+02  0.1949E+03
      1.814  0.7857E+02  0.1983E+03
      1.857  0.8142E+02  0.2018E+03
      1.899  0.8400E+02  0.2054E+03
      1.942  0.8629E+02  0.2090E+03
      1.985  0.8834E+02  0.2128E+03
      2.028  0.9020E+02  0.2167E+03
      2.071  0.9189E+02  0.2206E+03
      2.113  0.9332E+02  0.2246E+03
      2.156  0.9446E+02  0.2287E+03
      2.199  0.9545E+02  0.2327E+03
      2.242  0.9668E+02  0.2369E+03
      2.285  0.9861E+02  0.2411E+03
      2.327  0.1015E+03  0.2454E+03
      2.370  0.1054E+03  0.2500E+03
      2.413  0.1099E+03  0.2547E+03
      2.456  0.1143E+03  0.2595E+03
      2.498  0.1182E+03  0.2646E+03
      2.541  0.1213E+03  0.2698E+03
      2.584  0.1238E+03  0.2751E+03
      2.627  0.1258E+03  0.2805E+03
      2.670  0.1277E+03  0.2859E+03
      2.712  0.1297E+03  0.2915E+03
      2.755  0.1318E+03  0.2971E+03
      2.798  0.1343E+03  0.3029E+03
      2.841  0.1371E+03  0.3088E+03
      2.884  0.1398E+03  0.3147E+03
      2.926  0.1417E+03  0.3208E+03
      2.969  0.1418E+03  0.3269E+03
      3.012  0.1392E+03  0.3328E+03
      3.055  0.1338E+03  0.3386E+03
      3.098  0.1260E+03  0.3439E+03
      3.140  0.1171E+03  0.3490E+03
      3.183  0.1082E+03  0.3536E+03
      3.226  0.1003E+03  0.3579E+03
      3.269  0.9422E+02  0.3619E+03
      3.312  0.8994E+02  0.3658E+03
      3.354  0.8719E+02  0.3695E+03
      3.397  0.8553E+02  0.3732E+03
      3.440  0.8457E+02  0.3768E+03
      3.483  0.8394E+02  0.3804E+03
      3.526  0.8336E+02  0.3839E+03
      3.568  0.8272E+02  0.3875E+03
      3.611  0.8225E+02  0.3910E+03
      3.654  0.8243E+02  0.3945E+03
      3.697  0.8378E+02  0.3981E+03
      3.740  0.8655E+02  0.4018E+03
      3.782  0.9048E+02  0.4057E+03
      3.825  0.9497E+02  0.4097E+03
      3.868  0.9932E+02  0.4140E+03
      3.911  0.1030E+03  0.4184E+03
      3.954  0.1059E+03  0.4229E+03
      3.996  0.1079E+03  0.4276E+03
      4.039  0.1089E+03  0.4322E+03
      4.082  0.1090E+03  0.4369E+03
      4.125  0.1084E+03  0.4415E+03
      4.168  0.1074E+03  0.4461E+03
      4.210  0.1062E+03  0.4507E+03
      4.253  0.1049E+03  0.4551E+03
      4.296  0.1038E+03  0.4596E+03
      4.339  0.1028E+03  0.4640E+03
      4.381  0.1021E+03  0.4684E+03
      4.424  0.1016E+03  0.4727E+03
      4.467  0.1011E+03  0.4770E+03
      4.510  0.1003E+03  0.4813E+03
      4.553  0.9913E+02  0.4856E+03
      4.595  0.9785E+02  0.4898E+03
      4.638  0.9701E+02  0.4939E+03
      4.681  0.9709E+02  0.4981E+03
      4.724  0.9826E+02  0.5023E+03
      4.767  0.1003E+03  0.5066E+03
      4.809  0.1029E+03  0.5110E+03
      4.852  0.1054E+03  0.5155E+03
      4.895  0.1075E+03  0.5201E+03
      4.938  0.1086E+03  0.5247E+03
      4.981  0.1085E+03  0.5294E+03
      5.023  0.1067E+03  0.5339E+03
      5.066  0.1023E+03  0.5383E+03
      5.109  0.9454E+02  0.5424E+03
      5.152  0.8287E+02  0.5459E+03
      5.195  0.6787E+02  0.5488E+03
      5.237  0.5121E+02  0.5510E+03
      5.280  0.3520E+02  0.5525E+03
      5.323  0.2184E+02  0.5534E+03
      5.366  0.1215E+02  0.5540E+03
      5.409  0.6035E+01  0.5542E+03
      5.451  0.2666E+01  0.5543E+03
      5.494  0.1046E+01  0.5544E+03
      5.537  0.3645E+00  0.5544E+03
      5.580  0.1126E+00  0.5544E+03
      5.623  0.3090E-01  0.5544E+03
      5.665  0.7520E-02  0.5544E+03
      5.708  0.1621E-02  0.5544E+03
      5.751  0.3091E-03  0.5544E+03
      5.794  0.5192E-04  0.5544E+03
      5.837  0.7652E-05  0.5544E+03
      5.879  0.9854E-06  0.5544E+03
      5.922  0.1104E-06  0.5544E+03
      5.965  0.1071E-07  0.5544E+03
      6.008  0.8969E-09  0.5544E+03
      6.051  0.6465E-10  0.5544E+03
      6.093  0.4001E-11  0.5544E+03
      6.136  0.2114E-12  0.5544E+03
      6.179  0.9339E-14  0.5544E+03
      6.222  0.2594E-15  0.5544E+03
      6.264  0.0000E+00  0.5544E+03
      6.307  0.0000E+00  0.5544E+03
      6.350  0.0000E+00  0.5544E+03
      6.393  0.0000E+00  0.5544E+03
      6.436  0.0000E+00  0.5544E+03
      6.478  0.0000E+00  0.5544E+03
      6.521  0.0000E+00  0.5544E+03
      6.564  0.0000E+00  0.5544E+03
      6.607  0.0000E+00  0.5544E+03
      6.650  0.0000E+00  0.5544E+03
      6.692  0.0000E+00  0.5544E+03
      6.735  0.0000E+00  0.5544E+03
      6.778  0.0000E+00  0.5544E+03
      6.821  0.0000E+00  0.5544E+03
