       N       E                     dE             d eps       ncg     rms          rms(c)
DAV:   1     0.292135777549E+05    0.29214E+05   -0.86585E+05 27944   0.197E+03
DAV:   2     0.119236461045E+04   -0.28021E+05   -0.27410E+05 27720   0.604E+02
DAV:   3    -0.194040111965E+04   -0.31328E+04   -0.27223E+04 39060   0.279E+02
DAV:   4    -0.260715028022E+04   -0.66675E+03   -0.60669E+03 50974   0.975E+01
DAV:   5    -0.272714168852E+04   -0.11999E+03   -0.11210E+03 48342   0.396E+01    0.203E+02
RMM:   6    -0.616528259111E+04   -0.34381E+04   -0.13107E+04 48713   0.257E+02    0.702E+02
RMM:   7    -0.427079866037E+04    0.18945E+04   -0.39099E+03 48978   0.104E+02    0.419E+02
RMM:   8    -0.120975548591E+05   -0.78268E+04   -0.26779E+04 48467   0.401E+02    0.147E+03
RMM:   9    -0.145741386374E+05   -0.24766E+04   -0.23313E+04 49402   0.243E+02    0.113E+03
RMM:  10    -0.822386576819E+04    0.63503E+04   -0.80568E+03 45427   0.193E+02    0.760E+02
RMM:  11    -0.112459033624E+05   -0.30220E+04   -0.13746E+04 43058   0.215E+02    0.760E+02
RMM:  12    -0.108057716672E+05    0.44013E+03   -0.74905E+03 49096   0.124E+02    0.637E+02
RMM:  13    -0.865820299706E+04    0.21476E+04   -0.75734E+03 33282   0.206E+02    0.586E+02
RMM:  14    -0.507464766703E+04    0.35836E+04   -0.58536E+03 39754   0.126E+02    0.489E+02
RMM:  15    -0.473853667543E+04    0.33611E+03   -0.24823E+03 38302   0.937E+01    0.432E+02
RMM:  16    -0.399481421165E+04    0.74372E+03   -0.12454E+03 30609   0.632E+01    0.384E+02
RMM:  17    -0.303252995359E+04    0.96228E+03   -0.22003E+03 39716   0.834E+01    0.266E+02
RMM:  18    -0.285839024659E+04    0.17414E+03   -0.18225E+03 43840   0.483E+01    0.217E+02
RMM:  19    -0.339696571110E+04   -0.53858E+03   -0.10134E+03 33422   0.484E+01    0.332E+02
RMM:  20    -0.361353350207E+04   -0.21657E+03   -0.15430E+03 38558   0.594E+01    0.289E+02
RMM:  21    -0.284030600433E+04    0.77323E+03   -0.88162E+02 36845   0.366E+01    0.207E+02
RMM:  22    -0.269974696119E+04    0.14056E+03   -0.65759E+02 39647   0.229E+01    0.183E+02
RMM:  23    -0.251075462371E+04    0.18899E+03   -0.14774E+02 29925   0.193E+01    0.160E+02
RMM:  24    -0.244707645351E+04    0.63678E+02   -0.34053E+02 43213   0.142E+01    0.135E+02
RMM:  25    -0.240833756545E+04    0.38739E+02   -0.22983E+02 41221   0.116E+01    0.107E+02
RMM:  26    -0.238618597567E+04    0.22152E+02   -0.78937E+01 31842   0.126E+01    0.104E+02
RMM:  27    -0.234743984418E+04    0.38746E+02   -0.62427E+01 37649   0.874E+00    0.777E+01
RMM:  28    -0.233566821944E+04    0.11772E+02   -0.44055E+01 38416   0.662E+00    0.651E+01
RMM:  29    -0.233441974910E+04    0.12485E+01   -0.30755E+01 31905   0.797E+00    0.609E+01
RMM:  30    -0.232609025902E+04    0.83295E+01   -0.19558E+01 32539   0.639E+00    0.468E+01
RMM:  31    -0.232721303433E+04   -0.11228E+01   -0.96086E+00 32271   0.463E+00    0.477E+01
RMM:  32    -0.232959083796E+04   -0.23778E+01   -0.76890E+00 31837   0.430E+00    0.506E+01
RMM:  33    -0.233110980349E+04   -0.15190E+01   -0.75027E+00 40863   0.286E+00    0.542E+01
RMM:  34    -0.233505148693E+04   -0.39417E+01   -0.43229E+00 32198   0.304E+00    0.616E+01
RMM:  35    -0.233437761689E+04    0.67387E+00   -0.38260E+00 42345   0.158E+00    0.602E+01
RMM:  36    -0.233071599859E+04    0.36616E+01   -0.50770E+00 29553   0.419E+00    0.511E+01
RMM:  37    -0.232736010265E+04    0.33559E+01   -0.57496E+00 36331   0.270E+00    0.438E+01
RMM:  38    -0.232301084510E+04    0.43493E+01   -0.25887E+00 30881   0.253E+00    0.370E+01
RMM:  39    -0.231935538826E+04    0.36555E+01   -0.36208E+00 31312   0.302E+00    0.304E+01
RMM:  40    -0.231750475214E+04    0.18506E+01   -0.73165E+00 35442   0.336E+00    0.285E+01
RMM:  41    -0.231741357538E+04    0.91177E-01   -0.45659E+00 40303   0.218E+00    0.276E+01
RMM:  42    -0.231699899070E+04    0.41458E+00   -0.23455E+00 41602   0.118E+00    0.248E+01
RMM:  43    -0.231691351804E+04    0.85473E-01   -0.68115E-01 34273   0.984E-01    0.235E+01
RMM:  44    -0.231759967747E+04   -0.68616E+00   -0.60159E-01 30227   0.134E+00    0.244E+01
RMM:  45    -0.231839026280E+04   -0.79059E+00   -0.55571E-01 29919   0.135E+00    0.278E+01
RMM:  46    -0.231887730016E+04   -0.48704E+00   -0.53585E-01 29910   0.133E+00    0.304E+01
RMM:  47    -0.231755972215E+04    0.13176E+01   -0.82750E-01 31985   0.142E+00    0.259E+01
RMM:  48    -0.231690497387E+04    0.65475E+00   -0.10248E+00 35798   0.130E+00    0.239E+01
RMM:  49    -0.231633968534E+04    0.56529E+00   -0.86318E-01 34610   0.125E+00    0.216E+01
RMM:  50    -0.231617676797E+04    0.16292E+00   -0.54457E-01 31003   0.122E+00    0.206E+01
RMM:  51    -0.234195124947E+04   -0.25774E+02   -0.23635E+01 28644   0.958E+00    0.677E+01
RMM:  52    -0.234221301926E+04   -0.26177E+00   -0.37188E+01 39419   0.657E+00    0.677E+01
RMM:  53    -0.234001446671E+04    0.21986E+01   -0.72063E+00 30234   0.459E+00    0.687E+01
RMM:  54    -0.233913636421E+04    0.87810E+00   -0.60037E+00 28566   0.477E+00    0.697E+01
RMM:  55    -0.233920905175E+04   -0.72688E-01   -0.74742E+00 28889   0.519E+00    0.693E+01
RMM:  56    -0.237055595618E+04   -0.31347E+02   -0.23688E+01 30465   0.810E+00    0.101E+02
RMM:  57    -0.236844736528E+04    0.21086E+01   -0.21688E+01 42407   0.349E+00    0.966E+01
RMM:  58    -0.235266351689E+04    0.15784E+02   -0.50121E+00 29321   0.429E+00    0.815E+01
RMM:  59    -0.233191940390E+04    0.20744E+02   -0.57599E+00 27877   0.518E+00    0.560E+01
RMM:  60    -0.232066110516E+04    0.11258E+02   -0.56702E+00 27780   0.519E+00    0.326E+01
RMM:  61    -0.232775884074E+04   -0.70977E+01   -0.24897E+01 27985   0.100E+01    0.483E+01
RMM:  62    -0.232928644583E+04   -0.15276E+01   -0.11525E+01 28153   0.722E+00    0.513E+01
RMM:  63    -0.232791503781E+04    0.13714E+01   -0.66637E+00 31006   0.393E+00    0.485E+01
RMM:  64    -0.232596996157E+04    0.19451E+01   -0.43738E+00 36310   0.222E+00    0.451E+01
RMM:  65    -0.232260251978E+04    0.33674E+01   -0.19074E+00 31146   0.218E+00    0.378E+01
RMM:  66    -0.232674073559E+04   -0.41382E+01   -0.58106E+00 28773   0.462E+00    0.466E+01
RMM:  67    -0.232005906704E+04    0.66817E+01   -0.53542E+00 27973   0.501E+00    0.306E+01
RMM:  68    -0.231741754494E+04    0.26415E+01   -0.45064E+00 31399   0.323E+00    0.212E+01
RMM:  69    -0.231650940060E+04    0.90814E+00   -0.22059E+00 31012   0.241E+00    0.168E+01
RMM:  70    -0.231635859441E+04    0.15081E+00   -0.17714E+00 36444   0.158E+00    0.155E+01
RMM:  71    -0.231860645510E+04   -0.22479E+01   -0.24532E+00 30767   0.253E+00    0.262E+01
RMM:  72    -0.231762193354E+04    0.98452E+00   -0.11181E+00 27997   0.234E+00    0.224E+01
RMM:  73    -0.231547791656E+04    0.21440E+01   -0.73588E-01 28590   0.172E+00    0.932E+00
RMM:  74    -0.231532355904E+04    0.15436E+00   -0.44448E-01 27946   0.149E+00    0.806E+00
RMM:  75    -0.231531838019E+04    0.51788E-02   -0.37395E-01 29754   0.110E+00    0.779E+00
RMM:  76    -0.231523213528E+04    0.86245E-01   -0.31457E-01 28599   0.117E+00    0.668E+00
RMM:  77    -0.231520000466E+04    0.32131E-01   -0.26825E-01 28194   0.108E+00    0.630E+00
RMM:  78    -0.231517927913E+04    0.20726E-01   -0.19643E-01 28207   0.930E-01    0.584E+00
RMM:  79    -0.231519358971E+04   -0.14311E-01   -0.12725E-01 30284   0.614E-01    0.594E+00
RMM:  80    -0.231516125304E+04    0.32337E-01   -0.82130E-02 31215   0.460E-01    0.530E+00
RMM:  81    -0.231532129187E+04   -0.16004E+00   -0.36872E-01 28501   0.120E+00    0.740E+00
RMM:  82    -0.231510665395E+04    0.21464E+00   -0.14972E-01 27721   0.105E+00    0.410E+00
RMM:  83    -0.231505496454E+04    0.51689E-01   -0.55398E-02 29145   0.454E-01    0.271E+00
RMM:  84    -0.231503542879E+04    0.19536E-01   -0.75719E-02 33179   0.364E-01    0.175E+00
RMM:  85    -0.231503193302E+04    0.34958E-02   -0.43560E-02 32831   0.287E-01    0.142E+00
RMM:  86    -0.231503685863E+04   -0.49256E-02   -0.35858E-02 34226   0.251E-01    0.162E+00
RMM:  87    -0.231503158118E+04    0.52775E-02   -0.13594E-02 29184   0.239E-01    0.128E+00
RMM:  88    -0.231503014948E+04    0.14317E-02   -0.11199E-02 31974   0.160E-01    0.117E+00
RMM:  89    -0.231502626556E+04    0.38839E-02   -0.60083E-03 30406   0.132E-01    0.766E-01
RMM:  90    -0.231502503397E+04    0.12316E-02   -0.44630E-03 31096   0.110E-01    0.586E-01
RMM:  91    -0.231502560917E+04   -0.57520E-03   -0.53992E-03 29859   0.135E-01    0.662E-01
RMM:  92    -0.231502456698E+04    0.10422E-02   -0.25737E-03 29381   0.102E-01    0.461E-01
RMM:  93    -0.231502455855E+04    0.84286E-05   -0.24231E-03 33117   0.650E-02    0.445E-01
RMM:  94    -0.231502424074E+04    0.31781E-03   -0.15002E-03 33880   0.495E-02    0.353E-01
RMM:  95    -0.231502399510E+04    0.24564E-03   -0.95791E-04 34406   0.384E-02    0.243E-01
RMM:  96    -0.231502426634E+04   -0.27124E-03   -0.12454E-03 31397   0.555E-02    0.321E-01
RMM:  97    -0.231502386498E+04    0.40136E-03   -0.38323E-04 28886   0.432E-02    0.161E-01
RMM:  98    -0.231502383272E+04    0.32254E-04   -0.35378E-04 35599   0.209E-02    0.119E-01
RMM:  99    -0.231502385943E+04   -0.26705E-04   -0.22088E-04 32861   0.207E-02    0.119E-01
RMM: 100    -0.231502384794E+04    0.11491E-04   -0.12259E-04 31991   0.161E-02    0.995E-02
RMM: 101    -0.231502388246E+04   -0.34521E-04   -0.16649E-04 35888   0.160E-02    0.113E-01
RMM: 102    -0.231502384887E+04    0.33587E-04   -0.59324E-05 29210   0.151E-02    0.732E-02
RMM: 103    -0.231502385096E+04   -0.20867E-05   -0.57542E-05 31494   0.112E-02    0.606E-02
RMM: 104    -0.231502385577E+04   -0.48100E-05   -0.46818E-05 33605   0.855E-03    0.469E-02
RMM: 105    -0.231502385919E+04   -0.34180E-05   -0.27458E-05 31704   0.558E-03    0.381E-02
RMM: 106    -0.231502387981E+04   -0.20620E-04   -0.26171E-05 31272   0.691E-03    0.634E-02
RMM: 107    -0.231502387702E+04    0.27844E-05   -0.11762E-05 25782   0.608E-03    0.546E-02
RMM: 108    -0.231502387560E+04    0.14211E-05   -0.93244E-06 22129   0.415E-03    0.405E-02
RMM: 109    -0.231502387388E+04    0.17197E-05   -0.58618E-06 19306   0.382E-03    0.255E-02
RMM: 110    -0.231502387516E+04   -0.12812E-05   -0.47312E-06 18405   0.297E-03    0.155E-02
RMM: 111    -0.231502388290E+04   -0.77406E-05   -0.12263E-05 27064   0.616E-03    0.390E-02
RMM: 112    -0.231502387859E+04    0.43161E-05   -0.59663E-06 19317   0.495E-03    0.193E-02
RMM: 113    -0.231502387938E+04   -0.79293E-06   -0.34303E-06 16545   0.289E-03
   1 F= -.23150239E+04 E0= -.23121405E+04  d E =-.231502E+04
       N       E                     dE             d eps       ncg     rms          rms(c)
DAV:   1    -0.231525955050E+04   -0.23567E+00   -0.56022E+01 28196   0.784E+00    0.114E+00
RMM:   2    -0.231578235534E+04   -0.52280E+00   -0.87618E-01 27976   0.194E+00    0.927E+00
RMM:   3    -0.231630274063E+04   -0.52039E+00   -0.32096E-01 39791   0.627E-01    0.135E+01
RMM:   4    -0.231593388951E+04    0.36885E+00   -0.88100E-02 27955   0.588E-01    0.105E+01
RMM:   5    -0.231560449700E+04    0.32939E+00   -0.12477E-01 36600   0.428E-01    0.731E+00
RMM:   6    -0.231551684146E+04    0.87656E-01   -0.14639E-01 28282   0.705E-01    0.587E+00
RMM:   7    -0.231544122096E+04    0.75620E-01   -0.13902E-01 28377   0.735E-01    0.463E+00
RMM:   8    -0.231535845330E+04    0.82768E-01   -0.52107E-02 27722   0.590E-01    0.258E+00
RMM:   9    -0.231540137965E+04   -0.42926E-01   -0.32877E-02 31238   0.276E-01    0.397E+00
RMM:  10    -0.231534508936E+04    0.56290E-01   -0.27035E-02 28044   0.323E-01    0.202E+00
RMM:  11    -0.231534127413E+04    0.38152E-02   -0.27113E-02 28433   0.319E-01    0.191E+00
RMM:  12    -0.231532996150E+04    0.11313E-01   -0.10636E-02 27737   0.238E-01    0.129E+00
RMM:  13    -0.231532463165E+04    0.53299E-02   -0.52711E-03 28472   0.150E-01    0.835E-01
RMM:  14    -0.231532363162E+04    0.10000E-02   -0.63031E-03 31996   0.116E-01    0.702E-01
RMM:  15    -0.231532177900E+04    0.18526E-02   -0.30376E-03 30514   0.907E-02    0.331E-01
RMM:  16    -0.231532142121E+04    0.35779E-03   -0.16428E-03 31794   0.627E-02    0.187E-01
RMM:  17    -0.231532162692E+04   -0.20571E-03   -0.18471E-03 35941   0.516E-02    0.236E-01
RMM:  18    -0.231532144939E+04    0.17753E-03   -0.65746E-04 30950   0.424E-02    0.135E-01
RMM:  19    -0.231532139271E+04    0.56676E-04   -0.46529E-04 34715   0.263E-02    0.605E-02
RMM:  20    -0.231532141865E+04   -0.25940E-04   -0.32825E-04 39071   0.171E-02    0.678E-02
RMM:  21    -0.231532142863E+04   -0.99767E-05   -0.13538E-04 33317   0.158E-02    0.733E-02
RMM:  22    -0.231532141964E+04    0.89903E-05   -0.76370E-05 33739   0.115E-02    0.539E-02
RMM:  23    -0.231532142476E+04   -0.51215E-05   -0.71889E-05 38815   0.873E-03    0.564E-02
RMM:  24    -0.231532141425E+04    0.10511E-04   -0.26717E-05 30557   0.832E-03    0.289E-02
RMM:  25    -0.231532141349E+04    0.76048E-06   -0.21173E-05 30950   0.480E-03    0.209E-02
RMM:  26    -0.231532141370E+04   -0.21679E-06   -0.95524E-06 24635   0.364E-03
   2 F= -.23153214E+04 E0= -.23124335E+04  d E =-.297534E+00
       N       E                     dE             d eps       ncg     rms          rms(c)
DAV:   1    -0.231517423515E+04    0.14718E+00   -0.50291E+02 27720   0.237E+01    0.407E+00
RMM:   2    -0.231982607009E+04   -0.46518E+01   -0.11280E+01 27845   0.686E+00    0.270E+01
RMM:   3    -0.233410103199E+04   -0.14275E+02   -0.38026E+00 39710   0.231E+00    0.560E+01
RMM:   4    -0.232456203223E+04    0.95390E+01   -0.13059E+00 28561   0.211E+00    0.390E+01
RMM:   5    -0.232300635386E+04    0.15557E+01   -0.24737E+00 36825   0.183E+00    0.371E+01
RMM:   6    -0.231875855745E+04    0.42478E+01   -0.21798E+00 28473   0.268E+00    0.219E+01
RMM:   7    -0.231733800141E+04    0.14206E+01   -0.12819E+00 27772   0.251E+00    0.161E+01
RMM:   8    -0.231829214260E+04   -0.95414E+00   -0.71532E-01 27971   0.174E+00    0.215E+01
RMM:   9    -0.231636071397E+04    0.19314E+01   -0.46356E-01 27862   0.146E+00    0.840E+00
RMM:  10    -0.231662569365E+04   -0.26498E+00   -0.70843E-01 27818   0.172E+00    0.112E+01
RMM:  11    -0.231620276712E+04    0.42293E+00   -0.35244E-01 27742   0.133E+00    0.698E+00
RMM:  12    -0.231597367842E+04    0.22909E+00   -0.14505E-01 27825   0.913E-01    0.280E+00
RMM:  13    -0.231595685311E+04    0.16825E-01   -0.11260E-01 32264   0.474E-01    0.225E+00
RMM:  14    -0.231595234768E+04    0.45054E-02   -0.80652E-02 32928   0.415E-01    0.189E+00
RMM:  15    -0.231594041031E+04    0.11937E-01   -0.28867E-02 28464   0.354E-01    0.126E+00
RMM:  16    -0.231594184752E+04   -0.14372E-02   -0.33596E-02 36051   0.222E-01    0.125E+00
RMM:  17    -0.231594025906E+04    0.15885E-02   -0.20258E-02 32065   0.205E-01    0.101E+00
RMM:  18    -0.231593738358E+04    0.28755E-02   -0.84338E-03 30670   0.159E-01    0.705E-01
RMM:  19    -0.231593667241E+04    0.71116E-03   -0.91330E-03 36765   0.106E-01    0.513E-01
RMM:  20    -0.231593673635E+04   -0.63937E-04   -0.33028E-03 31739   0.885E-02    0.520E-01
RMM:  21    -0.231593692675E+04   -0.19040E-03   -0.19307E-03 32059   0.668E-02    0.550E-01
RMM:  22    -0.231593654754E+04    0.37920E-03   -0.21397E-03 36254   0.543E-02    0.445E-01
RMM:  23    -0.231593588707E+04    0.66048E-03   -0.10730E-03 31740   0.500E-02    0.230E-01
RMM:  24    -0.231593585054E+04    0.36524E-04   -0.92527E-04 36442   0.362E-02    0.194E-01
RMM:  25    -0.231593582177E+04    0.28771E-04   -0.49666E-04 33211   0.314E-02    0.173E-01
RMM:  26    -0.231593570568E+04    0.11609E-03   -0.16837E-04 29895   0.247E-02    0.899E-02
RMM:  27    -0.231593570667E+04   -0.98909E-06   -0.19186E-04 39463   0.123E-02    0.772E-02
RMM:  28    -0.231593570589E+04    0.78420E-06   -0.96565E-05 35144   0.114E-02    0.693E-02
RMM:  29    -0.231593569282E+04    0.13065E-04   -0.37628E-05 31117   0.944E-03    0.468E-02
RMM:  30    -0.231593569306E+04   -0.23944E-06   -0.36416E-05 34614   0.582E-03    0.420E-02
RMM:  31    -0.231593568824E+04    0.48226E-05   -0.16692E-05 30119   0.546E-03    0.246E-02
RMM:  32    -0.231593568593E+04    0.23102E-05   -0.61769E-06 21786   0.427E-03    0.127E-02
RMM:  33    -0.231593568612E+04   -0.18673E-06   -0.44996E-06 20512   0.266E-03
   3 F= -.23159357E+04 E0= -.23130360E+04  d E =-.911807E+00
       N       E                     dE             d eps       ncg     rms          rms(c)
DAV:   1    -0.231196574759E+04    0.39699E+01   -0.20131E+03 27720   0.484E+01    0.856E+00
RMM:   2    -0.233510803970E+04   -0.23142E+02   -0.59129E+01 27818   0.139E+01    0.582E+01
RMM:   3    -0.241832952515E+04   -0.83221E+02   -0.20327E+01 40064   0.532E+00    0.129E+02
RMM:   4    -0.234574465528E+04    0.72585E+02   -0.63420E+00 28807   0.443E+00    0.709E+01
RMM:   5    -0.235449440031E+04   -0.87497E+01   -0.15800E+01 38569   0.405E+00    0.867E+01
RMM:   6    -0.232542182053E+04    0.29073E+02   -0.80554E+00 28555   0.508E+00    0.393E+01
RMM:   7    -0.232664543814E+04   -0.12236E+01   -0.53726E+00 27803   0.498E+00    0.448E+01
RMM:   8    -0.232658957270E+04    0.55865E-01   -0.33544E+00 28033   0.355E+00    0.449E+01
RMM:   9    -0.231873177255E+04    0.78578E+01   -0.36591E+00 27725   0.434E+00    0.219E+01
RMM:  10    -0.231882396818E+04   -0.92196E-01   -0.29757E+00 27794   0.377E+00    0.228E+01
RMM:  11    -0.231675284788E+04    0.20711E+01   -0.12369E+00 27743   0.257E+00    0.123E+01
RMM:  12    -0.231616694927E+04    0.58590E+00   -0.66603E-01 28536   0.168E+00    0.690E+00
RMM:  13    -0.231606482487E+04    0.10212E+00   -0.68634E-01 32238   0.117E+00    0.521E+00
RMM:  14    -0.231609867316E+04   -0.33848E-01   -0.22774E-01 29113   0.943E-01    0.588E+00
RMM:  15    -0.231608095948E+04    0.17714E-01   -0.18296E-01 30808   0.710E-01    0.552E+00
RMM:  16    -0.231601943290E+04    0.61527E-01   -0.19653E-01 36389   0.483E-01    0.415E+00
RMM:  17    -0.231599004125E+04    0.29392E-01   -0.82162E-02 31694   0.425E-01    0.339E+00
RMM:  18    -0.231596660968E+04    0.23432E-01   -0.67127E-02 34606   0.345E-01    0.253E+00
RMM:  19    -0.231597334538E+04   -0.67357E-02   -0.25249E-02 30063   0.281E-01    0.281E+00
RMM:  20    -0.231596248436E+04    0.10861E-01   -0.25776E-02 35284   0.192E-01    0.237E+00
RMM:  21    -0.231594185019E+04    0.20634E-01   -0.13703E-02 34464   0.147E-01    0.127E+00
RMM:  22    -0.231593774925E+04    0.41009E-02   -0.85750E-03 30820   0.157E-01    0.859E-01
RMM:  23    -0.231593986121E+04   -0.21120E-02   -0.10851E-02 29877   0.185E-01    0.984E-01
RMM:  24    -0.231593827887E+04    0.15823E-02   -0.50259E-03 27849   0.161E-01    0.815E-01
RMM:  25    -0.231593763399E+04    0.64488E-03   -0.38971E-03 30460   0.107E-01    0.719E-01
RMM:  26    -0.231593669838E+04    0.93561E-03   -0.37017E-03 31287   0.969E-02    0.559E-01
RMM:  27    -0.231593577126E+04    0.92711E-03   -0.15722E-03 29726   0.774E-02    0.390E-01
RMM:  28    -0.231593581310E+04   -0.41835E-04   -0.19022E-03 38354   0.403E-02    0.371E-01
RMM:  29    -0.231593555659E+04    0.25651E-03   -0.92911E-04 34977   0.368E-02    0.287E-01
RMM:  30    -0.231593535014E+04    0.20645E-03   -0.36955E-04 31497   0.299E-02    0.207E-01
RMM:  31    -0.231593532659E+04    0.23548E-04   -0.42536E-04 37236   0.235E-02    0.180E-01
RMM:  32    -0.231593524685E+04    0.79737E-04   -0.20388E-04 32418   0.207E-02    0.123E-01
RMM:  33    -0.231593522384E+04    0.23008E-04   -0.12609E-04 33953   0.146E-02    0.988E-02
RMM:  34    -0.231593521408E+04    0.97572E-05   -0.12790E-04 39352   0.120E-02    0.837E-02
RMM:  35    -0.231593518281E+04    0.31276E-04   -0.50286E-05 31819   0.105E-02    0.361E-02
RMM:  36    -0.231593518177E+04    0.10409E-05   -0.44308E-05 37217   0.660E-03    0.262E-02
RMM:  37    -0.231593518193E+04   -0.16391E-06   -0.18309E-05 29424   0.464E-03    0.248E-02
RMM:  38    -0.231593517928E+04    0.26491E-05   -0.60023E-06 21559   0.444E-03    0.137E-02
RMM:  39    -0.231593517911E+04    0.17526E-06   -0.38466E-06 19334   0.350E-03
   4 F= -.23159352E+04 E0= -.23130366E+04  d E =-.911300E+00
       N       E                     dE             d eps       ncg     rms          rms(c)
DAV:   1    -0.231535561667E+04    0.57956E+00   -0.51139E+02 27720   0.239E+01    0.428E+00
RMM:   2    -0.232011980492E+04   -0.47642E+01   -0.12924E+01 27777   0.753E+00    0.287E+01
RMM:   3    -0.234377256166E+04   -0.23653E+02   -0.43636E+00 37399   0.294E+00    0.691E+01
RMM:   4    -0.232139951262E+04    0.22373E+02   -0.13658E+00 28719   0.208E+00    0.291E+01
RMM:   5    -0.233114144722E+04   -0.97419E+01   -0.22590E+00 31685   0.223E+00    0.535E+01
RMM:   6    -0.231965948167E+04    0.11482E+02   -0.23188E+00 30536   0.244E+00    0.237E+01
RMM:   7    -0.231741047689E+04    0.22490E+01   -0.15050E+00 27744   0.274E+00    0.150E+01
RMM:   8    -0.231838730008E+04   -0.97682E+00   -0.81379E-01 27884   0.188E+00    0.210E+01
RMM:   9    -0.231667557945E+04    0.17117E+01   -0.51489E-01 28146   0.143E+00    0.960E+00
RMM:  10    -0.231678919297E+04   -0.11361E+00   -0.75640E-01 27826   0.176E+00    0.107E+01
RMM:  11    -0.231648948697E+04    0.29971E+00   -0.40160E-01 27741   0.143E+00    0.800E+00
RMM:  12    -0.231621936977E+04    0.27012E+00   -0.15272E-01 27795   0.950E-01    0.391E+00
RMM:  13    -0.231617561859E+04    0.43751E-01   -0.98312E-02 30229   0.508E-01    0.279E+00
RMM:  14    -0.231617284587E+04    0.27727E-02   -0.11848E-01 32743   0.498E-01    0.255E+00
RMM:  15    -0.231614769896E+04    0.25147E-01   -0.37621E-02 28230   0.410E-01    0.143E+00
RMM:  16    -0.231614838859E+04   -0.68963E-03   -0.39793E-02 36079   0.238E-01    0.137E+00
RMM:  17    -0.231614885710E+04   -0.46851E-03   -0.22659E-02 33094   0.205E-01    0.134E+00
RMM:  18    -0.231614666559E+04    0.21915E-02   -0.96424E-03 30710   0.165E-01    0.116E+00
RMM:  19    -0.231614471769E+04    0.19479E-02   -0.10479E-02 35532   0.123E-01    0.947E-01
RMM:  20    -0.231614174076E+04    0.29769E-02   -0.49448E-03 30863   0.116E-01    0.558E-01
RMM:  21    -0.231614147010E+04    0.27066E-03   -0.27853E-03 30962   0.888E-02    0.507E-01
RMM:  22    -0.231614167524E+04   -0.20514E-03   -0.34471E-03 37718   0.630E-02    0.517E-01
RMM:  23    -0.231614111450E+04    0.56074E-03   -0.10658E-03 31683   0.489E-02    0.395E-01
RMM:  24    -0.231614100611E+04    0.10839E-03   -0.94809E-04 37772   0.315E-02    0.352E-01
RMM:  25    -0.231614063734E+04    0.36876E-03   -0.51403E-04 31958   0.349E-02    0.209E-01
RMM:  26    -0.231614047761E+04    0.15974E-03   -0.22256E-04 29365   0.295E-02    0.115E-01
RMM:  27    -0.231614048172E+04   -0.41148E-05   -0.26521E-04 36948   0.181E-02    0.106E-01
RMM:  28    -0.231614046906E+04    0.12663E-04   -0.13922E-04 32929   0.166E-02    0.898E-02
RMM:  29    -0.231614045384E+04    0.15220E-04   -0.63340E-05 31435   0.126E-02    0.716E-02
RMM:  30    -0.231614045315E+04    0.69005E-06   -0.66318E-05 38693   0.615E-03    0.631E-02
RMM:  31    -0.231614044017E+04    0.12978E-04   -0.17479E-05 28545   0.502E-03    0.328E-02
RMM:  32    -0.231614043758E+04    0.25869E-05   -0.78012E-06 22765   0.411E-03    0.224E-02
RMM:  33    -0.231614043770E+04   -0.11566E-06   -0.66237E-06 23259   0.381E-03
   5 F= -.23161404E+04 E0= -.23132361E+04  d E =-.111656E+01
