<?xml version="1.0" encoding="ISO-8859-1"?>
<modeling>
 <generator>
  <i name="program" type="string">vasp </i>
  <i name="version" type="string">5.4.4.18Apr17-6-g9f103f2a35  </i>
  <i name="subversion" type="string">(build Sep 27 2018 12:46:37) complex + VL-xray_ parallel </i>
  <i name="platform" type="string">LLNL_Quartz_ifc </i>
  <i name="date" type="string">2021 09 26 </i>
  <i name="time" type="string">17:59:28 </i>
 </generator>
 <incar>
  <i type="int" name="ISTART">     2</i>
  <i type="string" name="PREC">accurate</i>
  <i type="string" name="ALGO"> Fast</i>
  <i type="int" name="ICHARG">     2</i>
  <i type="int" name="INIWAV">     1</i>
  <i type="int" name="NELM">   200</i>
  <i type="int" name="NELMIN">     4</i>
  <i type="int" name="IBRION">     2</i>
  <i name="EDIFF">      0.00000100</i>
  <i type="int" name="NSW">     5</i>
  <i type="int" name="ISIF">     2</i>
  <i type="int" name="ISYM">     2</i>
  <i name="ENCUT">    450.00000000</i>
  <i name="POTIM">      0.25000000</i>
  <i type="string" name="LREAL"> Auto</i>
  <i type="int" name="ISMEAR">     0</i>
  <i name="SIGMA">      0.15000000</i>
  <i type="logical" name="LWAVE"> F  </i>
  <i type="logical" name="LCHARG"> F  </i>
  <i type="int" name="ICORELEVEL">     0</i>
  <i type="int" name="CLNT">     1</i>
  <i type="int" name="CLN">     1</i>
  <i type="int" name="INCAR     ">     0</i>
  <i name="CLZ">      0.00000000</i>
  <v type="int" name="KPOINT_BSE">    -1     0     0     0</v>
  <i type="int" name="NELM">   200</i>
 </incar>
 <structure name="primitive_cell" >
  <crystal>
   <varray name="basis" >
    <v>       9.72667804       0.00000000       0.00000000 </v>
    <v>       0.00000000       8.42355028       0.00000000 </v>
    <v>       0.00000000       0.00000000      45.00000000 </v>
   </varray>
   <i name="volume">   3686.99226691 </i>
   <varray name="rec_basis" >
    <v>       0.10281002       0.00000000       0.00000000 </v>
    <v>       0.00000000       0.11871479       0.00000000 </v>
    <v>       0.00000000       0.00000000       0.02222222 </v>
   </varray>
  </crystal>
  <varray name="positions" >
   <v>       0.05386428      -0.29888145       0.21133071 </v>
   <v>      -0.05910734      -0.21251804       0.25538448 </v>
   <v>       0.06546020      -0.46186558       0.25522568 </v>
   <v>      -0.05883220      -0.38816814       0.16659571 </v>
   <v>       0.06689727      -0.13748028       0.16671925 </v>
   <v>      -0.07125830       0.45154923       0.21138117 </v>
   <v>       0.30360567      -0.29939527       0.21134895 </v>
   <v>      -0.07094341      -0.04871129       0.21133742 </v>
   <v>       0.17914949       0.45123049       0.21133621 </v>
   <v>       0.17831898      -0.04830450       0.21144453 </v>
   <v>      -0.19667338      -0.29950936       0.21142212 </v>
   <v>       0.19095367      -0.21242219       0.25545630 </v>
   <v>       0.19224463      -0.38749380       0.16661818 </v>
   <v>      -0.18270485      -0.13785993       0.16664519 </v>
   <v>      -0.18424161      -0.46148523       0.25545453 </v>
   <v>       0.06533356       0.03786113       0.25534585 </v>
   <v>       0.06674983       0.36254353       0.16679714 </v>
   <v>       0.31513397      -0.46179730       0.25543396 </v>
   <v>       0.31779694      -0.13759322       0.16597672 </v>
   <v>      -0.30880518      -0.21256120       0.25550014 </v>
   <v>      -0.30839071      -0.38748627       0.16667364 </v>
   <v>      -0.06448818      -0.21749032       0.12430643 </v>
   <v>      -0.05834018       0.11222034       0.16677581 </v>
   <v>      -0.05921345       0.28741256       0.25538192 </v>
   <v>      -0.18497193       0.03766489       0.25519430 </v>
   <v>       0.18686893      -0.21725129       0.12437489 </v>
   <v>      -0.18357061       0.36272072       0.16679972 </v>
   <v>       0.05704880      -0.47424850       0.12420403 </v>
   <v>       0.17803333      -0.37638126       0.29957544 </v>
   <v>       0.42827656       0.45142717       0.21151851 </v>
   <v>       0.05383945       0.20078012       0.21133530 </v>
   <v>      -0.07224993      -0.37657695       0.29965080 </v>
   <v>      -0.32122260       0.45145316       0.21136730 </v>
   <v>      -0.32129204      -0.04833817       0.21136492 </v>
   <v>       0.42917686      -0.04832917       0.21165635 </v>
   <v>       0.19125720       0.11148597       0.16661031 </v>
   <v>       0.19022893       0.28687684       0.25538218 </v>
   <v>       0.05285276      -0.12621669       0.29964933 </v>
   <v>       0.31505881       0.03789585       0.25537398 </v>
   <v>       0.44085509      -0.21241151       0.25546376 </v>
   <v>       0.31669881       0.36229376       0.16678642 </v>
   <v>       0.44125649      -0.38777414       0.16672285 </v>
   <v>       0.05752099       0.02722693       0.12417689 </v>
   <v>      -0.19234458      -0.47319783       0.12407302 </v>
   <v>       0.05273078       0.37366825       0.29962551 </v>
   <v>       0.30424697       0.20056353       0.21123970 </v>
   <v>      -0.19603626       0.20134806       0.21127144 </v>
   <v>      -0.44630620      -0.29915627       0.21124895 </v>
   <v>       0.30717762      -0.47282598       0.12401768 </v>
   <v>      -0.19687833      -0.12673861       0.29952410 </v>
   <v>       0.30290485      -0.12580456       0.29973106 </v>
   <v>      -0.43403133      -0.46232506       0.25526724 </v>
   <v>      -0.43345118      -0.13747306       0.16671067 </v>
   <v>      -0.30836970       0.11256895       0.16676443 </v>
   <v>      -0.31275797      -0.21753830       0.12435621 </v>
   <v>      -0.30894744       0.28738149       0.25537505 </v>
   <v>      -0.19150611       0.02743275       0.12414490 </v>
   <v>       0.30898984       0.02616794       0.12420522 </v>
   <v>      -0.06468641       0.28195463       0.12428885 </v>
   <v>       0.30278345       0.37405297       0.29966245 </v>
   <v>       0.18531093       0.28330286       0.12438968 </v>
   <v>      -0.19702234       0.37343838       0.29962619 </v>
   <v>       0.42803305      -0.37638523       0.29947160 </v>
   <v>      -0.32229610      -0.37628475       0.29963771 </v>
   <v>       0.43630772      -0.21692203       0.12419196 </v>
   <v>       0.17779025       0.12367984       0.29963542 </v>
   <v>      -0.07188917       0.12338789       0.29965487 </v>
   <v>       0.44139934       0.11148706       0.16663691 </v>
   <v>       0.44127254       0.28722633       0.25532112 </v>
   <v>      -0.43486192       0.03794707       0.25515271 </v>
   <v>      -0.43310671       0.36218966       0.16663732 </v>
   <v>       0.06548767      -0.29108888       0.34397084 </v>
   <v>      -0.31404647       0.28266710       0.12423233 </v>
   <v>      -0.44182999      -0.47320289       0.12417270 </v>
   <v>      -0.18480536      -0.29133858       0.34389839 </v>
   <v>      -0.05939261       0.45963512       0.34408669 </v>
   <v>      -0.44591766       0.20063437       0.21120592 </v>
   <v>      -0.44718686      -0.12622035       0.29966947 </v>
   <v>       0.43664795       0.28281973       0.12439683 </v>
   <v>       0.19028512       0.45936548       0.34410840 </v>
   <v>      -0.05968911      -0.04058650       0.34413986 </v>
   <v>       0.42788417       0.12382997       0.29959998 </v>
   <v>      -0.32214714       0.12363347       0.29962204 </v>
   <v>       0.31525154      -0.29062110       0.34397148 </v>
   <v>       0.19040995      -0.04060453       0.34407661 </v>
   <v>      -0.44125103       0.02754590       0.12402287 </v>
   <v>      -0.44704678       0.37374088       0.29962265 </v>
   <v>      -0.30999918       0.45935574       0.34407067 </v>
   <v>       0.06490280       0.20877745       0.34388480 </v>
   <v>      -0.30955536      -0.04066376       0.34407488 </v>
   <v>       0.44008314       0.45893080       0.34400567 </v>
   <v>       0.44034057      -0.04097532       0.34410434 </v>
   <v>      -0.43459951      -0.29111512       0.34396795 </v>
   <v>      -0.18495534       0.20824190       0.34387414 </v>
   <v>       0.31513011       0.20919331       0.34400971 </v>
   <v>       0.06188118      -0.45832042       0.38844202 </v>
   <v>      -0.06377610      -0.20875148       0.38843557 </v>
   <v>       0.18614971      -0.20891673       0.38833295 </v>
   <v>      -0.18845373      -0.45794797       0.38837443 </v>
   <v>       0.31144348      -0.45870245       0.38843611 </v>
   <v>       0.06183023       0.04146147       0.38839454 </v>
   <v>      -0.43476716       0.20918978       0.34395598 </v>
   <v>      -0.06318814       0.29150883       0.38849596 </v>
   <v>      -0.31353965      -0.20876208       0.38837418 </v>
   <v>       0.18610181       0.29093348       0.38833870 </v>
   <v>      -0.18885218       0.04224325       0.38830721 </v>
   <v>       0.43631670      -0.20932792       0.38843153 </v>
   <v>       0.31186764       0.04163580       0.38847415 </v>
   <v>      -0.31315768       0.29154724       0.38844031 </v>
   <v>      -0.43834691      -0.45854634       0.38840455 </v>
   <v>       0.43642889       0.29105088       0.38838384 </v>
   <v>      -0.43826859       0.04180384       0.38841677 </v>
   <v>      -0.06673809      -0.37496144       0.43317621 </v>
   <v>       0.18316237      -0.37507073       0.43301580 </v>
   <v>       0.05883117      -0.12506764       0.43308361 </v>
   <v>       0.05867134       0.37487167       0.43292401 </v>
   <v>      -0.19149404      -0.12506822       0.43307394 </v>
   <v>       0.30880318      -0.12480169       0.43297751 </v>
   <v>      -0.19129221       0.37534069       0.43302373 </v>
   <v>      -0.31812426      -0.37566081       0.43304295 </v>
   <v>       0.30903081       0.37484967       0.43294645 </v>
   <v>       0.43415015      -0.37487280       0.43300868 </v>
   <v>      -0.06629905       0.12500289       0.43313541 </v>
   <v>       0.18349811       0.12509828       0.43306026 </v>
   <v>      -0.44085551      -0.12486930       0.43297166 </v>
   <v>      -0.31612902       0.12480545       0.43287269 </v>
   <v>       0.43376649       0.12478271       0.43288500 </v>
   <v>      -0.44127287       0.37538073       0.43310290 </v>
   <v>       0.06815595      -0.28975410       0.47730537 </v>
   <v>      -0.05772249       0.46047447       0.47719604 </v>
   <v>      -0.18200508      -0.28950696       0.47747012 </v>
   <v>      -0.05738514      -0.03944957       0.47724979 </v>
   <v>       0.19267932       0.46063900       0.47738895 </v>
   <v>       0.31740061      -0.28959226       0.47724124 </v>
   <v>       0.19253447      -0.03926464       0.47735716 </v>
   <v>      -0.30723999       0.46088949       0.47716355 </v>
   <v>      -0.30745364      -0.03959803       0.47728776 </v>
   <v>       0.06774525       0.21028728       0.47732129 </v>
   <v>       0.44283084       0.46073843       0.47742227 </v>
   <v>       0.44265615      -0.03931091       0.47741090 </v>
   <v>      -0.43236740      -0.28949496       0.47730595 </v>
   <v>      -0.18222451       0.21059516       0.47744628 </v>
   <v>       0.31769758       0.21039810       0.47728838 </v>
   <v>      -0.43218655       0.21053668       0.47747221 </v>
   <v>       0.05754492      -0.46186127      -0.47764042 </v>
   <v>      -0.06767153      -0.21192445      -0.47762455 </v>
   <v>       0.18242781      -0.21089835      -0.47759286 </v>
   <v>      -0.19237032      -0.46129153      -0.47754905 </v>
   <v>       0.30757305      -0.46197225      -0.47772506 </v>
   <v>       0.05722287       0.03814221      -0.47766930 </v>
   <v>      -0.31771703      -0.21171018      -0.47775831 </v>
   <v>      -0.06750992       0.28812075      -0.47762960 </v>
   <v>       0.18281902       0.28884697      -0.47773572 </v>
   <v>       0.30740764       0.03806080      -0.47781950 </v>
   <v>       0.43230624      -0.21128680      -0.47778094 </v>
   <v>      -0.19247610       0.03867575      -0.47746535 </v>
   <v>      -0.31752925       0.28809329      -0.47763148 </v>
   <v>      -0.44233186      -0.46143023      -0.47761363 </v>
   <v>       0.43259022       0.28860282      -0.47779942 </v>
   <v>       0.06755382      -0.27661574      -0.12361274 </v>
   <v>      -0.44263736       0.03828158      -0.47762051 </v>
   <v>      -0.18340196      -0.27583415      -0.12351046 </v>
   <v>      -0.06005826       0.46842860      -0.12384195 </v>
   <v>       0.18982990       0.46801052      -0.12389468 </v>
   <v>      -0.06013207      -0.03144539      -0.12381946 </v>
   <v>       0.31801487      -0.27605376      -0.12362384 </v>
   <v>       0.18982721      -0.03197114      -0.12388088 </v>
   <v>       0.06798042       0.22293863      -0.12367631 </v>
   <v>      -0.31014126       0.46792783      -0.12388545 </v>
   <v>      -0.31026322      -0.03130311      -0.12388591 </v>
   <v>       0.43994657       0.46805913      -0.12393457 </v>
   <v>       0.43972223      -0.03182582      -0.12390807 </v>
   <v>      -0.18245690       0.22384167      -0.12369430 </v>
   <v>      -0.43259921      -0.27525180      -0.12362323 </v>
   <v>       0.31773417       0.22352638      -0.12386466 </v>
   <v>      -0.05750852      -0.37498230      -0.43335825 </v>
   <v>       0.06705766      -0.12529867      -0.43330945 </v>
   <v>       0.19238202      -0.37513465      -0.43331067 </v>
   <v>      -0.18294543      -0.12507125      -0.43327544 </v>
   <v>       0.06715169       0.37483769      -0.43325593 </v>
   <v>       0.31729094      -0.12548700      -0.43335005 </v>
   <v>      -0.43181018       0.22382530      -0.12384541 </v>
   <v>      -0.18275755       0.37493416      -0.43329108 </v>
   <v>      -0.30797240      -0.37517510      -0.43325137 </v>
   <v>      -0.05748346       0.12484156      -0.43334096 </v>
   <v>       0.31703889       0.37476991      -0.43327824 </v>
   <v>       0.19233941       0.12487954      -0.43328218 </v>
   <v>       0.44232253      -0.37526077      -0.43329160 </v>
   <v>      -0.43251299      -0.12514256      -0.43333690 </v>
   <v>      -0.30782384       0.12501277      -0.43331954 </v>
   <v>       0.44198871       0.12494799      -0.43322193 </v>
   <v>      -0.43308506       0.37495707      -0.43333020 </v>
   <v>      -0.06630607      -0.36204745      -0.16582846 </v>
   <v>       0.18283252      -0.36221686      -0.16620605 </v>
   <v>       0.05859950      -0.11217940      -0.16648710 </v>
   <v>       0.05864501       0.38868349      -0.16637825 </v>
   <v>      -0.19140849      -0.11232129      -0.16644132 </v>
   <v>       0.30863442      -0.11257337      -0.16651127 </v>
   <v>      -0.19166356       0.38790078      -0.16642918 </v>
   <v>       0.30855086       0.38768432      -0.16651281 </v>
   <v>      -0.31648581      -0.36205975      -0.16645118 </v>
   <v>       0.43359518      -0.36208609      -0.16641395 </v>
   <v>      -0.06625975       0.13810871      -0.16637305 </v>
   <v>       0.18361374       0.13798775      -0.16637706 </v>
   <v>      -0.44150196      -0.11234290      -0.16652404 </v>
   <v>      -0.31639482       0.13778956      -0.16650289 </v>
   <v>       0.43350205       0.13774656      -0.16648761 </v>
   <v>      -0.44121672       0.38773539      -0.16649384 </v>
   <v>       0.06258089      -0.29175694      -0.38862912 </v>
   <v>      -0.06248824       0.45810056      -0.38860797 </v>
   <v>      -0.18731641      -0.29179905      -0.38859406 </v>
   <v>       0.18760776       0.45818073      -0.38873796 </v>
   <v>      -0.06226316      -0.04190954      -0.38869512 </v>
   <v>       0.18755722      -0.04176457      -0.38876190 </v>
   <v>       0.31274458      -0.29174657      -0.38865583 </v>
   <v>      -0.31244770       0.45795583      -0.38870870 </v>
   <v>      -0.31219799      -0.04192351      -0.38873621 </v>
   <v>       0.06282235       0.20778981      -0.38867603 </v>
   <v>       0.43765776       0.45801623      -0.38864178 </v>
   <v>       0.43813490      -0.04160058      -0.38866575 </v>
   <v>      -0.18729213       0.20807373      -0.38861881 </v>
   <v>      -0.43726456      -0.29175007      -0.38861058 </v>
   <v>       0.31273059       0.20817232      -0.38872047 </v>
   <v>      -0.05565082      -0.20025211      -0.21111528 </v>
   <v>       0.07069127      -0.45039283      -0.21121466 </v>
   <v>       0.19432870      -0.20052632      -0.21111915 </v>
   <v>      -0.43737095       0.20800416      -0.38873108 </v>
   <v>      -0.18034250      -0.45039817      -0.21100238 </v>
   <v>       0.31942598      -0.45028277      -0.21100964 </v>
   <v>       0.06925129       0.04942770      -0.21098465 </v>
   <v>      -0.05491971       0.29890430      -0.21125413 </v>
   <v>      -0.30533226      -0.20073858      -0.21111410 </v>
   <v>      -0.18068556       0.04960364      -0.21092371 </v>
   <v>       0.19498755       0.29908717      -0.21120718 </v>
   <v>       0.44456325      -0.20078139      -0.21118328 </v>
   <v>       0.32019116       0.04945329      -0.21117126 </v>
   <v>      -0.43033623      -0.45031473      -0.21092604 </v>
   <v>      -0.30503033       0.29916873      -0.21119162 </v>
   <v>       0.44461152       0.29902983      -0.21119924 </v>
   <v>      -0.43057893       0.04994745      -0.21106768 </v>
   <v>       0.05976395      -0.45903985      -0.34423603 </v>
   <v>      -0.06525668      -0.20918674      -0.34421410 </v>
   <v>       0.18490608      -0.20899750      -0.34424572 </v>
   <v>      -0.19012526      -0.45836658      -0.34431105 </v>
   <v>       0.30975401      -0.45914571      -0.34419393 </v>
   <v>       0.05989691       0.04063225      -0.34409262 </v>
   <v>      -0.06516064       0.29128830      -0.34426377 </v>
   <v>      -0.31527316      -0.20938234      -0.34420715 </v>
   <v>       0.18455598       0.29061462      -0.34420619 </v>
   <v>      -0.19033507       0.04065711      -0.34416152 </v>
   <v>       0.43453133      -0.20931916      -0.34417366 </v>
   <v>       0.30992100       0.04112660      -0.34423050 </v>
   <v>      -0.44024435      -0.45908585      -0.34426215 </v>
   <v>      -0.31520067       0.29066504      -0.34408479 </v>
   <v>       0.43499849       0.29073416      -0.34404755 </v>
   <v>      -0.44008446       0.04133238      -0.34429516 </v>
   <v>       0.05945925      -0.28764812      -0.25506935 </v>
   <v>      -0.06546345       0.46270659      -0.25505887 </v>
   <v>       0.18468955       0.46254998      -0.25510264 </v>
   <v>      -0.18971935      -0.28800016      -0.25524328 </v>
   <v>       0.30983833      -0.28770451      -0.25522775 </v>
   <v>      -0.06635507      -0.03790517      -0.25534176 </v>
   <v>       0.18414669      -0.03740989      -0.25524081 </v>
   <v>      -0.31581903       0.46287623      -0.25507089 </v>
   <v>       0.05971716       0.21270975      -0.25509170 </v>
   <v>       0.43473622       0.46293857      -0.25510002 </v>
   <v>      -0.31523785      -0.03733784      -0.25521165 </v>
   <v>       0.43395784      -0.03747194      -0.25529695 </v>
   <v>      -0.18960144       0.21163022      -0.25532708 </v>
   <v>       0.30974274       0.21219510      -0.25513014 </v>
   <v>      -0.44007925      -0.28793008      -0.25524179 </v>
   <v>      -0.43997814       0.21255667      -0.25519398 </v>
   <v>      -0.05320601      -0.37353744      -0.29959720 </v>
   <v>       0.19684733      -0.37399004      -0.29982939 </v>
   <v>       0.07206024      -0.12345154      -0.29973649 </v>
   <v>      -0.17785163      -0.12362593      -0.29959245 </v>
   <v>       0.07199908       0.37656789      -0.29954289 </v>
   <v>       0.32204714      -0.12355848      -0.29957933 </v>
   <v>      -0.17794223       0.37654452      -0.29985649 </v>
   <v>      -0.30302341      -0.37366705      -0.29959767 </v>
   <v>      -0.05303922       0.12669979      -0.29969057 </v>
   <v>       0.32230019       0.37649127      -0.29964452 </v>
   <v>       0.19692509       0.12608566      -0.29979988 </v>
   <v>       0.44664926      -0.37373462      -0.29970506 </v>
   <v>      -0.42827467      -0.12359141      -0.29954250 </v>
   <v>      -0.30281889       0.12640936      -0.29963254 </v>
   <v>       0.44721659       0.12595578      -0.29975237 </v>
   <v>      -0.42767828       0.37638456      -0.29968861 </v>
  </varray>
 </structure>
 <varray name="primitive_index" >
  <v type="int" >        1 </v>
  <v type="int" >      238 </v>
  <v type="int" >      220 </v>
  <v type="int" >      193 </v>
  <v type="int" >      208 </v>
  <v type="int" >      242 </v>
  <v type="int" >      192 </v>
  <v type="int" >       71 </v>
  <v type="int" >       10 </v>
  <v type="int" >      109 </v>
  <v type="int" >       81 </v>
  <v type="int" >       89 </v>
  <v type="int" >       35 </v>
  <v type="int" >       32 </v>
  <v type="int" >      288 </v>
  <v type="int" >      263 </v>
  <v type="int" >       55 </v>
  <v type="int" >      243 </v>
  <v type="int" >      283 </v>
  <v type="int" >      128 </v>
  <v type="int" >      117 </v>
  <v type="int" >      155 </v>
  <v type="int" >      158 </v>
  <v type="int" >      252 </v>
  <v type="int" >      222 </v>
  <v type="int" >      262 </v>
  <v type="int" >      183 </v>
  <v type="int" >      265 </v>
  <v type="int" >      162 </v>
  <v type="int" >       28 </v>
  <v type="int" >      160 </v>
  <v type="int" >       38 </v>
  <v type="int" >      205 </v>
  <v type="int" >      161 </v>
  <v type="int" >       15 </v>
  <v type="int" >      126 </v>
  <v type="int" >       45 </v>
  <v type="int" >      147 </v>
  <v type="int" >      278 </v>
  <v type="int" >      226 </v>
  <v type="int" >       94 </v>
  <v type="int" >      227 </v>
  <v type="int" >       48 </v>
  <v type="int" >       14 </v>
  <v type="int" >       26 </v>
  <v type="int" >       61 </v>
  <v type="int" >       70 </v>
  <v type="int" >      251 </v>
  <v type="int" >      197 </v>
  <v type="int" >      277 </v>
  <v type="int" >      108 </v>
  <v type="int" >       33 </v>
  <v type="int" >      191 </v>
  <v type="int" >       90 </v>
  <v type="int" >       25 </v>
  <v type="int" >      203 </v>
  <v type="int" >       99 </v>
  <v type="int" >       23 </v>
  <v type="int" >      133 </v>
  <v type="int" >       52 </v>
  <v type="int" >      189 </v>
  <v type="int" >      104 </v>
  <v type="int" >      100 </v>
  <v type="int" >      144 </v>
  <v type="int" >       83 </v>
  <v type="int" >      142 </v>
  <v type="int" >      145 </v>
  <v type="int" >      143 </v>
  <v type="int" >        5 </v>
  <v type="int" >      261 </v>
  <v type="int" >      122 </v>
  <v type="int" >      112 </v>
  <v type="int" >      267 </v>
  <v type="int" >       43 </v>
  <v type="int" >      118 </v>
  <v type="int" >      190 </v>
  <v type="int" >       63 </v>
  <v type="int" >      255 </v>
  <v type="int" >      279 </v>
  <v type="int" >      120 </v>
  <v type="int" >       92 </v>
  <v type="int" >      169 </v>
  <v type="int" >      170 </v>
  <v type="int" >      257 </v>
  <v type="int" >      254 </v>
  <v type="int" >      214 </v>
  <v type="int" >      124 </v>
  <v type="int" >       34 </v>
  <v type="int" >      153 </v>
  <v type="int" >       24 </v>
  <v type="int" >       95 </v>
  <v type="int" >      236 </v>
  <v type="int" >      123 </v>
  <v type="int" >      172 </v>
  <v type="int" >      258 </v>
  <v type="int" >      247 </v>
  <v type="int" >      198 </v>
  <v type="int" >      229 </v>
  <v type="int" >       86 </v>
  <v type="int" >       57 </v>
  <v type="int" >      246 </v>
  <v type="int" >       50 </v>
  <v type="int" >      273 </v>
  <v type="int" >      156 </v>
  <v type="int" >      105 </v>
  <v type="int" >       17 </v>
  <v type="int" >       79 </v>
  <v type="int" >      134 </v>
  <v type="int" >      232 </v>
  <v type="int" >      171 </v>
  <v type="int" >      248 </v>
  <v type="int" >      244 </v>
  <v type="int" >      282 </v>
  <v type="int" >      168 </v>
  <v type="int" >      211 </v>
  <v type="int" >      256 </v>
  <v type="int" >       46 </v>
  <v type="int" >      240 </v>
  <v type="int" >       29 </v>
  <v type="int" >      286 </v>
  <v type="int" >      215 </v>
  <v type="int" >      281 </v>
  <v type="int" >      285 </v>
  <v type="int" >      223 </v>
  <v type="int" >      239 </v>
  <v type="int" >      115 </v>
  <v type="int" >      184 </v>
  <v type="int" >      136 </v>
  <v type="int" >       62 </v>
  <v type="int" >      166 </v>
  <v type="int" >      268 </v>
  <v type="int" >      179 </v>
  <v type="int" >      132 </v>
  <v type="int" >      217 </v>
  <v type="int" >      176 </v>
  <v type="int" >      249 </v>
  <v type="int" >       91 </v>
  <v type="int" >      185 </v>
  <v type="int" >       19 </v>
  <v type="int" >      130 </v>
  <v type="int" >      207 </v>
  <v type="int" >      206 </v>
  <v type="int" >      175 </v>
  <v type="int" >       11 </v>
  <v type="int" >      178 </v>
  <v type="int" >      116 </v>
  <v type="int" >      107 </v>
  <v type="int" >      241 </v>
  <v type="int" >      230 </v>
  <v type="int" >      218 </v>
  <v type="int" >       18 </v>
  <v type="int" >      209 </v>
  <v type="int" >      225 </v>
  <v type="int" >      266 </v>
  <v type="int" >      187 </v>
  <v type="int" >       93 </v>
  <v type="int" >       87 </v>
  <v type="int" >      141 </v>
  <v type="int" >      111 </v>
  <v type="int" >       58 </v>
  <v type="int" >      181 </v>
  <v type="int" >      101 </v>
  <v type="int" >      151 </v>
  <v type="int" >      125 </v>
  <v type="int" >      274 </v>
  <v type="int" >        2 </v>
  <v type="int" >      154 </v>
  <v type="int" >      212 </v>
  <v type="int" >       27 </v>
  <v type="int" >      234 </v>
  <v type="int" >      173 </v>
  <v type="int" >       97 </v>
  <v type="int" >       41 </v>
  <v type="int" >      131 </v>
  <v type="int" >       39 </v>
  <v type="int" >       72 </v>
  <v type="int" >       12 </v>
  <v type="int" >      148 </v>
  <v type="int" >      276 </v>
  <v type="int" >      250 </v>
  <v type="int" >       40 </v>
  <v type="int" >       13 </v>
  <v type="int" >      146 </v>
  <v type="int" >      264 </v>
  <v type="int" >      259 </v>
  <v type="int" >      216 </v>
  <v type="int" >      233 </v>
  <v type="int" >       21 </v>
  <v type="int" >       98 </v>
  <v type="int" >      235 </v>
  <v type="int" >       68 </v>
  <v type="int" >       16 </v>
  <v type="int" >       59 </v>
  <v type="int" >       66 </v>
  <v type="int" >      177 </v>
  <v type="int" >        6 </v>
  <v type="int" >       75 </v>
  <v type="int" >        7 </v>
  <v type="int" >       73 </v>
  <v type="int" >      150 </v>
  <v type="int" >      271 </v>
  <v type="int" >      152 </v>
  <v type="int" >      129 </v>
  <v type="int" >      188 </v>
  <v type="int" >      174 </v>
  <v type="int" >      221 </v>
  <v type="int" >      269 </v>
  <v type="int" >      103 </v>
  <v type="int" >      180 </v>
  <v type="int" >      245 </v>
  <v type="int" >       82 </v>
  <v type="int" >      194 </v>
  <v type="int" >      201 </v>
  <v type="int" >       51 </v>
  <v type="int" >      280 </v>
  <v type="int" >      102 </v>
  <v type="int" >        3 </v>
  <v type="int" >      228 </v>
  <v type="int" >        4 </v>
  <v type="int" >      260 </v>
  <v type="int" >      167 </v>
  <v type="int" >       30 </v>
  <v type="int" >       77 </v>
  <v type="int" >      149 </v>
  <v type="int" >      284 </v>
  <v type="int" >       36 </v>
  <v type="int" >      275 </v>
  <v type="int" >      106 </v>
  <v type="int" >       60 </v>
  <v type="int" >       67 </v>
  <v type="int" >      199 </v>
  <v type="int" >       88 </v>
  <v type="int" >      253 </v>
  <v type="int" >       54 </v>
  <v type="int" >      114 </v>
  <v type="int" >       85 </v>
  <v type="int" >      121 </v>
  <v type="int" >      182 </v>
  <v type="int" >      127 </v>
  <v type="int" >       44 </v>
  <v type="int" >      196 </v>
  <v type="int" >      157 </v>
  <v type="int" >      113 </v>
  <v type="int" >       42 </v>
  <v type="int" >       49 </v>
  <v type="int" >      135 </v>
  <v type="int" >       69 </v>
  <v type="int" >      210 </v>
  <v type="int" >      200 </v>
  <v type="int" >      213 </v>
  <v type="int" >       53 </v>
  <v type="int" >      186 </v>
  <v type="int" >       31 </v>
  <v type="int" >       76 </v>
  <v type="int" >      159 </v>
  <v type="int" >      140 </v>
  <v type="int" >      204 </v>
  <v type="int" >      119 </v>
  <v type="int" >      110 </v>
  <v type="int" >      202 </v>
  <v type="int" >       84 </v>
  <v type="int" >      287 </v>
  <v type="int" >      237 </v>
  <v type="int" >      137 </v>
  <v type="int" >        9 </v>
  <v type="int" >       78 </v>
  <v type="int" >       80 </v>
  <v type="int" >       20 </v>
  <v type="int" >       96 </v>
  <v type="int" >       64 </v>
  <v type="int" >      272 </v>
  <v type="int" >      138 </v>
  <v type="int" >      164 </v>
  <v type="int" >       74 </v>
  <v type="int" >      195 </v>
  <v type="int" >      163 </v>
  <v type="int" >       65 </v>
  <v type="int" >      219 </v>
  <v type="int" >      231 </v>
  <v type="int" >       56 </v>
  <v type="int" >      139 </v>
  <v type="int" >      270 </v>
  <v type="int" >      165 </v>
  <v type="int" >        8 </v>
  <v type="int" >       22 </v>
  <v type="int" >      224 </v>
  <v type="int" >       37 </v>
  <v type="int" >       47 </v>
 </varray>
 <kpoints>
  <generation param="Gamma">
   <v type="int" name="divisions">       4        4        1 </v>
   <v name="usershift">      0.00000000       0.00000000       0.00000000 </v>
   <v name="genvec1">      0.25000000       0.00000000       0.00000000 </v>
   <v name="genvec2">      0.00000000       0.25000000       0.00000000 </v>
   <v name="genvec3">      0.00000000       0.00000000       1.00000000 </v>
   <v name="shift">      0.00000000       0.00000000       0.00000000 </v>
  </generation>
  <varray name="kpointlist" >
   <v>       0.00000000       0.00000000       0.00000000 </v>
   <v>       0.25000000       0.00000000       0.00000000 </v>
   <v>       0.50000000       0.00000000       0.00000000 </v>
   <v>       0.00000000       0.25000000       0.00000000 </v>
   <v>       0.25000000       0.25000000       0.00000000 </v>
   <v>       0.50000000       0.25000000       0.00000000 </v>
   <v>      -0.25000000       0.25000000       0.00000000 </v>
   <v>       0.00000000       0.50000000       0.00000000 </v>
   <v>       0.25000000       0.50000000       0.00000000 </v>
   <v>       0.50000000       0.50000000       0.00000000 </v>
  </varray>
  <varray name="weights" >
   <v>       0.06250000 </v>
   <v>       0.12500000 </v>
   <v>       0.06250000 </v>
   <v>       0.12500000 </v>
   <v>       0.12500000 </v>
   <v>       0.12500000 </v>
   <v>       0.12500000 </v>
   <v>       0.06250000 </v>
   <v>       0.12500000 </v>
   <v>       0.06250000 </v>
  </varray>
 </kpoints>
 <parameters>
  <separator name="general" >
   <i type="string" name="SYSTEM">unknown system</i>
   <i type="logical" name="LCOMPAT"> F  </i>
  </separator>
  <separator name="electronic" >
   <i type="string" name="PREC">accura</i>
   <i name="ENMAX">    450.00000000</i>
   <i name="ENAUG">    838.43500000</i>
   <i name="EDIFF">      0.00000100</i>
   <i type="int" name="IALGO">    68</i>
   <i type="int" name="IWAVPR">    11</i>
   <i type="int" name="NBANDS">  1386</i>
   <i name="NELECT">   2297.00000000</i>
   <i type="int" name="TURBO">     0</i>
   <i type="int" name="IRESTART">     0</i>
   <i type="int" name="NREBOOT">     0</i>
   <i type="int" name="NMIN">     0</i>
   <i name="EREF">      0.00000000</i>
   <separator name="electronic smearing" >
    <i type="int" name="ISMEAR">     0</i>
    <i name="SIGMA">      0.15000000</i>
    <i name="KSPACING">      0.50000000</i>
    <i type="logical" name="KGAMMA"> T  </i>
   </separator>
   <separator name="electronic projectors" >
    <i type="logical" name="LREAL"> T  </i>
    <v name="ROPT">     -0.00025000     -0.00025000</v>
    <i type="int" name="LMAXPAW">  -100</i>
    <i type="int" name="LMAXMIX">     2</i>
    <i type="logical" name="NLSPLINE"> F  </i>
   </separator>
   <separator name="electronic startup" >
    <i type="int" name="ISTART">     0</i>
    <i type="int" name="ICHARG">     2</i>
    <i type="int" name="INIWAV">     1</i>
   </separator>
   <separator name="electronic spin" >
    <i type="int" name="ISPIN">     1</i>
    <i type="logical" name="LNONCOLLINEAR"> F  </i>
    <v name="MAGMOM">      1.00000000      1.00000000      1.00000000      1.00000000      1.00000000      1.00000000      1.00000000      1.00000000      1.00000000      1.00000000      1.00000000      1.00000000      1.00000000      1.00000000      1.00000000      1.00000000      1.00000000      1.00000000      1.00000000      1.00000000
      1.00000000      1.00000000      1.00000000      1.00000000      1.00000000      1.00000000      1.00000000      1.00000000      1.00000000      1.00000000      1.00000000      1.00000000      1.00000000      1.00000000      1.00000000      1.00000000      1.00000000      1.00000000      1.00000000      1.00000000
      1.00000000      1.00000000      1.00000000      1.00000000      1.00000000      1.00000000      1.00000000      1.00000000      1.00000000      1.00000000      1.00000000      1.00000000      1.00000000      1.00000000      1.00000000      1.00000000      1.00000000      1.00000000      1.00000000      1.00000000
      1.00000000      1.00000000      1.00000000      1.00000000      1.00000000      1.00000000      1.00000000      1.00000000      1.00000000      1.00000000      1.00000000      1.00000000      1.00000000      1.00000000      1.00000000      1.00000000      1.00000000      1.00000000      1.00000000      1.00000000
      1.00000000      1.00000000      1.00000000      1.00000000      1.00000000      1.00000000      1.00000000      1.00000000      1.00000000      1.00000000      1.00000000      1.00000000      1.00000000      1.00000000      1.00000000      1.00000000      1.00000000      1.00000000      1.00000000      1.00000000
      1.00000000      1.00000000      1.00000000      1.00000000      1.00000000      1.00000000      1.00000000      1.00000000      1.00000000      1.00000000      1.00000000      1.00000000      1.00000000      1.00000000      1.00000000      1.00000000      1.00000000      1.00000000      1.00000000      1.00000000
      1.00000000      1.00000000      1.00000000      1.00000000      1.00000000      1.00000000      1.00000000      1.00000000      1.00000000      1.00000000      1.00000000      1.00000000      1.00000000      1.00000000      1.00000000      1.00000000      1.00000000      1.00000000      1.00000000      1.00000000
      1.00000000      1.00000000      1.00000000      1.00000000      1.00000000      1.00000000      1.00000000      1.00000000      1.00000000      1.00000000      1.00000000      1.00000000      1.00000000      1.00000000      1.00000000      1.00000000      1.00000000      1.00000000      1.00000000      1.00000000
      1.00000000      1.00000000      1.00000000      1.00000000      1.00000000      1.00000000      1.00000000      1.00000000      1.00000000      1.00000000      1.00000000      1.00000000      1.00000000      1.00000000      1.00000000      1.00000000      1.00000000      1.00000000      1.00000000      1.00000000
      1.00000000      1.00000000      1.00000000      1.00000000      1.00000000      1.00000000      1.00000000      1.00000000      1.00000000      1.00000000      1.00000000      1.00000000      1.00000000      1.00000000      1.00000000      1.00000000      1.00000000      1.00000000      1.00000000      1.00000000
      1.00000000      1.00000000      1.00000000      1.00000000      1.00000000      1.00000000      1.00000000      1.00000000      1.00000000      1.00000000      1.00000000      1.00000000      1.00000000      1.00000000      1.00000000      1.00000000      1.00000000      1.00000000      1.00000000      1.00000000
      1.00000000      1.00000000      1.00000000      1.00000000      1.00000000      1.00000000      1.00000000      1.00000000      1.00000000      1.00000000      1.00000000      1.00000000      1.00000000      1.00000000      1.00000000      1.00000000      1.00000000      1.00000000      1.00000000      1.00000000
      1.00000000      1.00000000      1.00000000      1.00000000      1.00000000      1.00000000      1.00000000      1.00000000      1.00000000      1.00000000      1.00000000      1.00000000      1.00000000      1.00000000      1.00000000      1.00000000      1.00000000      1.00000000      1.00000000      1.00000000
      1.00000000      1.00000000      1.00000000      1.00000000      1.00000000      1.00000000      1.00000000      1.00000000      1.00000000      1.00000000      1.00000000      1.00000000      1.00000000      1.00000000      1.00000000      1.00000000      1.00000000      1.00000000      1.00000000      1.00000000
      1.00000000      1.00000000      1.00000000      1.00000000      1.00000000      1.00000000      1.00000000      1.00000000</v>
    <i name="NUPDOWN">     -1.00000000</i>
    <i type="logical" name="LSORBIT"> F  </i>
    <v name="SAXIS">      0.00000000      0.00000000      1.00000000</v>
    <i type="logical" name="LSPIRAL"> F  </i>
    <v name="QSPIRAL">      0.00000000      0.00000000      0.00000000</v>
    <i type="logical" name="LZEROZ"> F  </i>
   </separator>
   <separator name="electronic exchange-correlation" >
    <i type="logical" name="LASPH"> F  </i>
    <i type="logical" name="LMETAGGA"> F  </i>
   </separator>
   <separator name="electronic convergence" >
    <i type="int" name="NELM">   200</i>
    <i type="int" name="NELMDL">     0</i>
    <i type="int" name="NELMIN">     4</i>
    <i name="ENINI">    450.00000000</i>
    <separator name="electronic convergence detail" >
     <i type="logical" name="LDIAG"> T  </i>
     <i type="logical" name="LSUBROT"> F  </i>
     <i name="WEIMIN">      0.00100000</i>
     <i name="EBREAK">      0.00000000</i>
     <i name="DEPER">      0.30000000</i>
     <i type="int" name="NRMM">     4</i>
     <i name="TIME">      0.40000000</i>
    </separator>
   </separator>
   <separator name="electronic mixer" >
    <i name="AMIX">      0.40000000</i>
    <i name="BMIX">      1.00000000</i>
    <i name="AMIN">      0.10000000</i>
    <i name="AMIX_MAG">      1.60000000</i>
    <i name="BMIX_MAG">      1.00000000</i>
    <separator name="electronic mixer details" >
     <i type="int" name="IMIX">     4</i>
     <i type="logical" name="MIXFIRST"> F  </i>
     <i type="int" name="MAXMIX">   -45</i>
     <i name="WC">    100.00000000</i>
     <i type="int" name="INIMIX">     1</i>
     <i type="int" name="MIXPRE">     1</i>
     <i type="int" name="MREMOVE">     5</i>
    </separator>
   </separator>
   <separator name="electronic dipolcorrection" >
    <i type="logical" name="LDIPOL"> F  </i>
    <i type="logical" name="LMONO"> F  </i>
    <i type="int" name="IDIPOL">     0</i>
    <i name="EPSILON">      1.00000000</i>
    <v name="DIPOL">   -100.00000000   -100.00000000   -100.00000000</v>
    <i name="EFIELD">      0.00000000</i>
   </separator>
  </separator>
  <separator name="grids" >
   <i type="int" name="NGX">    70</i>
   <i type="int" name="NGY">    60</i>
   <i type="int" name="NGZ">   320</i>
   <i type="int" name="NGXF">   140</i>
   <i type="int" name="NGYF">   120</i>
   <i type="int" name="NGZF">   640</i>
   <i type="logical" name="ADDGRID"> F  </i>
  </separator>
  <separator name="ionic" >
   <i type="int" name="NSW">     5</i>
   <i type="int" name="IBRION">     2</i>
   <i type="int" name="MDALGO">     0</i>
   <i type="int" name="ISIF">     2</i>
   <i name="PSTRESS">      0.00000000</i>
   <i name="EDIFFG">      0.00001000</i>
   <i type="int" name="NFREE">     1</i>
   <i name="POTIM">      0.25000000</i>
   <i name="SMASS">     -3.00000000</i>
   <i name="SCALEE">      1.00000000</i>
  </separator>
  <separator name="ionic md" >
   <i name="TEBEG">      0.00010000</i>
   <i name="TEEND">      0.00010000</i>
   <i type="int" name="NBLOCK">     1</i>
   <i type="int" name="KBLOCK">     5</i>
   <i type="int" name="NPACO">   256</i>
   <i name="APACO">     16.00000000</i>
  </separator>
  <separator name="symmetry" >
   <i type="int" name="ISYM">     2</i>
   <i name="SYMPREC">      0.00001000</i>
  </separator>
  <separator name="dos" >
   <i type="int" name="LORBIT">     0</i>
   <v name="RWIGS">     -1.00000000     -1.00000000</v>
   <i type="int" name="NEDOS">   301</i>
   <i name="EMIN">     10.00000000</i>
   <i name="EMAX">    -10.00000000</i>
   <i name="EFERMI">      0.00000000</i>
  </separator>
  <separator name="writing" >
   <i type="int" name="NWRITE">     2</i>
   <i type="logical" name="LWAVE"> F  </i>
   <i type="logical" name="LDOWNSAMPLE"> F  </i>
   <i type="logical" name="LCHARG"> F  </i>
   <i type="logical" name="LPARD"> F  </i>
   <i type="logical" name="LVTOT"> F  </i>
   <i type="logical" name="LVHAR"> F  </i>
   <i type="logical" name="LELF"> F  </i>
   <i type="logical" name="LOPTICS"> F  </i>
   <v name="STM">      0.00000000      0.00000000      0.00000000      0.00000000      0.00000000      0.00000000      0.00000000</v>
  </separator>
  <separator name="performance" >
   <i type="int" name="NPAR">    14</i>
   <i type="int" name="NSIM">     4</i>
   <i type="int" name="NBLK">    -1</i>
   <i type="logical" name="LPLANE"> T  </i>
   <i type="logical" name="LSCALAPACK"> T  </i>
   <i type="logical" name="LSCAAWARE"> T  </i>
   <i type="logical" name="LSCALU"> F  </i>
   <i type="logical" name="LASYNC"> F  </i>
   <i type="logical" name="LORBITALREAL"> F  </i>
  </separator>
  <separator name="miscellaneous" >
   <i type="int" name="IDIOT">     3</i>
   <i type="int" name="ISPECIAL">     0</i>
   <i type="logical" name="LMUSIC"> F  </i>
   <v name="POMASS">     55.84700000     54.93800000</v>
   <v name="DARWINR">      0.00000000      0.00000000</v>
   <v name="DARWINV">      1.00000000      1.00000000</v>
   <i type="logical" name="LCORR"> T  </i>
  </separator>
  <i type="logical" name="GGA_COMPAT"> T  </i>
  <i type="logical" name="LBERRY"> F  </i>
  <i type="int" name="ICORELEVEL">     0</i>
  <i type="logical" name="LDAU"> F  </i>
  <i type="int" name="I_CONSTRAINED_M">     0</i>
  <separator name="electronic exchange-correlation" >
   <i type="string" name="GGA">--</i>
   <i type="int" name="VOSKOWN">     0</i>
   <i type="logical" name="LHFCALC"> F  </i>
   <i type="string" name="PRECFOCK"></i>
   <i type="logical" name="LSYMGRAD"> F  </i>
   <i type="logical" name="LHFONE"> F  </i>
   <i type="logical" name="LRHFCALC"> F  </i>
   <i type="logical" name="LTHOMAS"> F  </i>
   <i type="logical" name="LMODELHF"> F  </i>
   <i name="ENCUT4O">     -1.00000000</i>
   <i type="int" name="EXXOEP">     0</i>
   <i type="int" name="FOURORBIT">     0</i>
   <i name="AEXX">      0.00000000</i>
   <i name="HFALPHA">      0.00000000</i>
   <i name="MCALPHA">      0.00000000</i>
   <i name="ALDAX">      1.00000000</i>
   <i name="AGGAX">      1.00000000</i>
   <i name="ALDAC">      1.00000000</i>
   <i name="AGGAC">      1.00000000</i>
   <i type="int" name="NKREDX">     1</i>
   <i type="int" name="NKREDY">     1</i>
   <i type="int" name="NKREDZ">     1</i>
   <i type="logical" name="SHIFTRED"> F  </i>
   <i type="logical" name="ODDONLY"> F  </i>
   <i type="logical" name="EVENONLY"> F  </i>
   <i type="int" name="LMAXFOCK">     0</i>
   <i type="int" name="NMAXFOCKAE">     0</i>
   <i type="logical" name="LFOCKAEDFT"> F  </i>
   <i name="HFSCREEN">      0.00000000</i>
   <i name="HFSCREENC">      0.00000000</i>
   <i type="int" name="NBANDSGWLOW">     0</i>
  </separator>
  <separator name="vdW DFT" >
   <i type="logical" name="LUSE_VDW"> F  </i>
   <i name="Zab_VDW">     -0.84910000</i>
   <i name="PARAM1">      0.12340000</i>
   <i name="PARAM2">      1.00000000</i>
   <i name="PARAM3">      0.00000000</i>
  </separator>
  <separator name="model GW" >
   <i type="int" name="MODEL_GW">     0</i>
   <i name="MODEL_EPS0">      7.68123389</i>
   <i name="MODEL_ALPHA">      1.00000000</i>
  </separator>
  <separator name="linear response parameters" >
   <i type="logical" name="LEPSILON"> F  </i>
   <i type="logical" name="LRPA"> F  </i>
   <i type="logical" name="LNABLA"> F  </i>
   <i type="logical" name="LVEL"> F  </i>
   <i type="int" name="KINTER">     0</i>
   <i name="CSHIFT">      0.10000000</i>
   <i name="OMEGAMAX">     -1.00000000</i>
   <i name="DEG_THRESHOLD">      0.00200000</i>
   <i name="RTIME">     -0.10000000</i>
   <i name="WPLASMAI">      0.00000000</i>
   <v name="DFIELD">      0.00000000      0.00000000      0.00000000</v>
   <v name="WPLASMA">      0.00000000      0.00000000      0.00000000      0.00000000      0.00000000      0.00000000      0.00000000      0.00000000      0.00000000</v>
  </separator>
  <separator name="orbital magnetization" >
   <i type="logical" name="NUCIND"> F  </i>
   <v name="MAGPOS">      0.00000000      0.00000000      0.00000000</v>
   <i type="logical" name="LNICSALL"> T  </i>
   <i type="logical" name="ORBITALMAG"> F  </i>
   <i type="logical" name="LMAGBLOCH"> F  </i>
   <i type="logical" name="LCHIMAG"> F  </i>
   <i type="logical" name="LGAUGE"> T  </i>
   <i type="int" name="MAGATOM">     0</i>
   <v name="MAGDIPOL">      0.00000000      0.00000000      0.00000000</v>
   <v name="AVECCONST">      0.00000000      0.00000000      0.00000000</v>
  </separator>
  <separator name="response functions" >
   <i type="logical" name="LADDER"> F  </i>
   <i type="logical" name="LRPAFORCE"> F  </i>
   <i type="logical" name="LFXC"> F  </i>
   <i type="logical" name="LHARTREE"> T  </i>
   <i type="int" name="IBSE">     0</i>
   <v type="int" name="KPOINT">    -1     0     0     0</v>
   <i type="logical" name="LTCTE"> F  </i>
   <i type="logical" name="LTETE"> F  </i>
   <i type="logical" name="LTRIPLET"> F  </i>
   <i type="logical" name="LFXCEPS"> F  </i>
   <i type="logical" name="LFXHEG"> F  </i>
   <i type="int" name="NATURALO">     2</i>
   <i type="logical" name="L2ORDER"> F  </i>
   <i type="logical" name="LMP2LT"> F  </i>
   <i type="logical" name="LUSEW"> F  </i>
   <i name="ENCUTGW">     -2.00000000</i>
   <i name="ENCUTGWSOFT">     -2.00000000</i>
   <i name="ENCUTLF">     -1.00000000</i>
   <i type="int" name="LMAXMP2">    -1</i>
   <i name="SCISSOR">      0.00000000</i>
   <i type="int" name="NOMEGA">     0</i>
   <i type="int" name="NOMEGAR">     0</i>
   <i type="int" name="NBANDSGW">    -1</i>
   <i type="int" name="NBANDSO">    -1</i>
   <i type="int" name="NBANDSV">    -1</i>
   <i type="int" name="NELM">   200</i>
   <i type="int" name="NELMHF">     1</i>
   <i type="int" name="DIM">     3</i>
   <i type="int" name="ANTIRES">     0</i>
   <i name="OMEGAMAX">    -30.00000000</i>
   <i name="OMEGAMIN">    -30.00000000</i>
   <i name="OMEGATL">   -200.00000000</i>
   <i type="int" name="OMEGAGRID">   140</i>
   <i name="CSHIFT">     -0.10000000</i>
   <i type="logical" name="SELFENERGY"> F  </i>
   <i type="logical" name="LSPECTRAL"> F  </i>
   <i type="logical" name="LSPECTRALGW"> F  </i>
   <i type="logical" name="LSINGLES"> F  </i>
   <i type="logical" name="LFERMIGW"> F  </i>
   <i type="logical" name="ODDONLYGW"> F  </i>
   <i type="logical" name="EVENONLYGW"> F  </i>
   <i type="int" name="NKREDLFX">     1</i>
   <i type="int" name="NKREDLFY">     1</i>
   <i type="int" name="NKREDLFZ">     1</i>
   <i type="int" name="MAXMEM">  2800</i>
   <i type="int" name="TELESCOPE">     0</i>
   <i type="int" name="TAUPAR">     1</i>
   <i type="int" name="OMEGAPAR">    -1</i>
   <i name="LAMBDA">      1.00000000</i>
  </separator>
  <separator name="External order field" >
   <i name="OFIELD_KAPPA">      0.00000000</i>
   <v name="OFIELD_K">      0.00000000      0.00000000      0.00000000</v>
   <i name="OFIELD_Q6_NEAR">      0.00000000</i>
   <i name="OFIELD_Q6_FAR">      0.00000000</i>
   <i name="OFIELD_A">      0.00000000</i>
  </separator>
 </parameters>
 <atominfo>
  <atoms>     288 </atoms>
  <types>       2 </types>
  <array name="atoms" >
   <dimension dim="1">ion</dimension>
   <field type="string">element</field>
   <field type="int">atomtype</field>
   <set>
    <rc><c>Fe</c><c>   1</c></rc>
    <rc><c>Fe</c><c>   1</c></rc>
    <rc><c>Fe</c><c>   1</c></rc>
    <rc><c>Fe</c><c>   1</c></rc>
    <rc><c>Fe</c><c>   1</c></rc>
    <rc><c>Fe</c><c>   1</c></rc>
    <rc><c>Fe</c><c>   1</c></rc>
    <rc><c>Fe</c><c>   1</c></rc>
    <rc><c>Fe</c><c>   1</c></rc>
    <rc><c>Fe</c><c>   1</c></rc>
    <rc><c>Fe</c><c>   1</c></rc>
    <rc><c>Fe</c><c>   1</c></rc>
    <rc><c>Fe</c><c>   1</c></rc>
    <rc><c>Fe</c><c>   1</c></rc>
    <rc><c>Fe</c><c>   1</c></rc>
    <rc><c>Fe</c><c>   1</c></rc>
    <rc><c>Fe</c><c>   1</c></rc>
    <rc><c>Fe</c><c>   1</c></rc>
    <rc><c>Fe</c><c>   1</c></rc>
    <rc><c>Fe</c><c>   1</c></rc>
    <rc><c>Fe</c><c>   1</c></rc>
    <rc><c>Fe</c><c>   1</c></rc>
    <rc><c>Fe</c><c>   1</c></rc>
    <rc><c>Fe</c><c>   1</c></rc>
    <rc><c>Fe</c><c>   1</c></rc>
    <rc><c>Fe</c><c>   1</c></rc>
    <rc><c>Fe</c><c>   1</c></rc>
    <rc><c>Fe</c><c>   1</c></rc>
    <rc><c>Fe</c><c>   1</c></rc>
    <rc><c>Fe</c><c>   1</c></rc>
    <rc><c>Fe</c><c>   1</c></rc>
    <rc><c>Fe</c><c>   1</c></rc>
    <rc><c>Fe</c><c>   1</c></rc>
    <rc><c>Fe</c><c>   1</c></rc>
    <rc><c>Fe</c><c>   1</c></rc>
    <rc><c>Fe</c><c>   1</c></rc>
    <rc><c>Fe</c><c>   1</c></rc>
    <rc><c>Fe</c><c>   1</c></rc>
    <rc><c>Fe</c><c>   1</c></rc>
    <rc><c>Fe</c><c>   1</c></rc>
    <rc><c>Fe</c><c>   1</c></rc>
    <rc><c>Fe</c><c>   1</c></rc>
    <rc><c>Fe</c><c>   1</c></rc>
    <rc><c>Fe</c><c>   1</c></rc>
    <rc><c>Fe</c><c>   1</c></rc>
    <rc><c>Fe</c><c>   1</c></rc>
    <rc><c>Fe</c><c>   1</c></rc>
    <rc><c>Fe</c><c>   1</c></rc>
    <rc><c>Fe</c><c>   1</c></rc>
    <rc><c>Fe</c><c>   1</c></rc>
    <rc><c>Fe</c><c>   1</c></rc>
    <rc><c>Fe</c><c>   1</c></rc>
    <rc><c>Fe</c><c>   1</c></rc>
    <rc><c>Fe</c><c>   1</c></rc>
    <rc><c>Fe</c><c>   1</c></rc>
    <rc><c>Fe</c><c>   1</c></rc>
    <rc><c>Fe</c><c>   1</c></rc>
    <rc><c>Fe</c><c>   1</c></rc>
    <rc><c>Fe</c><c>   1</c></rc>
    <rc><c>Fe</c><c>   1</c></rc>
    <rc><c>Fe</c><c>   1</c></rc>
    <rc><c>Fe</c><c>   1</c></rc>
    <rc><c>Fe</c><c>   1</c></rc>
    <rc><c>Fe</c><c>   1</c></rc>
    <rc><c>Fe</c><c>   1</c></rc>
    <rc><c>Fe</c><c>   1</c></rc>
    <rc><c>Fe</c><c>   1</c></rc>
    <rc><c>Fe</c><c>   1</c></rc>
    <rc><c>Fe</c><c>   1</c></rc>
    <rc><c>Fe</c><c>   1</c></rc>
    <rc><c>Fe</c><c>   1</c></rc>
    <rc><c>Fe</c><c>   1</c></rc>
    <rc><c>Fe</c><c>   1</c></rc>
    <rc><c>Fe</c><c>   1</c></rc>
    <rc><c>Fe</c><c>   1</c></rc>
    <rc><c>Fe</c><c>   1</c></rc>
    <rc><c>Fe</c><c>   1</c></rc>
    <rc><c>Fe</c><c>   1</c></rc>
    <rc><c>Fe</c><c>   1</c></rc>
    <rc><c>Fe</c><c>   1</c></rc>
    <rc><c>Fe</c><c>   1</c></rc>
    <rc><c>Fe</c><c>   1</c></rc>
    <rc><c>Fe</c><c>   1</c></rc>
    <rc><c>Fe</c><c>   1</c></rc>
    <rc><c>Fe</c><c>   1</c></rc>
    <rc><c>Fe</c><c>   1</c></rc>
    <rc><c>Fe</c><c>   1</c></rc>
    <rc><c>Fe</c><c>   1</c></rc>
    <rc><c>Fe</c><c>   1</c></rc>
    <rc><c>Fe</c><c>   1</c></rc>
    <rc><c>Fe</c><c>   1</c></rc>
    <rc><c>Fe</c><c>   1</c></rc>
    <rc><c>Fe</c><c>   1</c></rc>
    <rc><c>Fe</c><c>   1</c></rc>
    <rc><c>Fe</c><c>   1</c></rc>
    <rc><c>Fe</c><c>   1</c></rc>
    <rc><c>Fe</c><c>   1</c></rc>
    <rc><c>Fe</c><c>   1</c></rc>
    <rc><c>Fe</c><c>   1</c></rc>
    <rc><c>Fe</c><c>   1</c></rc>
    <rc><c>Fe</c><c>   1</c></rc>
    <rc><c>Fe</c><c>   1</c></rc>
    <rc><c>Fe</c><c>   1</c></rc>
    <rc><c>Fe</c><c>   1</c></rc>
    <rc><c>Fe</c><c>   1</c></rc>
    <rc><c>Fe</c><c>   1</c></rc>
    <rc><c>Fe</c><c>   1</c></rc>
    <rc><c>Fe</c><c>   1</c></rc>
    <rc><c>Fe</c><c>   1</c></rc>
    <rc><c>Fe</c><c>   1</c></rc>
    <rc><c>Fe</c><c>   1</c></rc>
    <rc><c>Fe</c><c>   1</c></rc>
    <rc><c>Fe</c><c>   1</c></rc>
    <rc><c>Fe</c><c>   1</c></rc>
    <rc><c>Fe</c><c>   1</c></rc>
    <rc><c>Fe</c><c>   1</c></rc>
    <rc><c>Fe</c><c>   1</c></rc>
    <rc><c>Fe</c><c>   1</c></rc>
    <rc><c>Fe</c><c>   1</c></rc>
    <rc><c>Fe</c><c>   1</c></rc>
    <rc><c>Fe</c><c>   1</c></rc>
    <rc><c>Fe</c><c>   1</c></rc>
    <rc><c>Fe</c><c>   1</c></rc>
    <rc><c>Fe</c><c>   1</c></rc>
    <rc><c>Fe</c><c>   1</c></rc>
    <rc><c>Fe</c><c>   1</c></rc>
    <rc><c>Fe</c><c>   1</c></rc>
    <rc><c>Fe</c><c>   1</c></rc>
    <rc><c>Fe</c><c>   1</c></rc>
    <rc><c>Fe</c><c>   1</c></rc>
    <rc><c>Fe</c><c>   1</c></rc>
    <rc><c>Fe</c><c>   1</c></rc>
    <rc><c>Fe</c><c>   1</c></rc>
    <rc><c>Fe</c><c>   1</c></rc>
    <rc><c>Fe</c><c>   1</c></rc>
    <rc><c>Fe</c><c>   1</c></rc>
    <rc><c>Fe</c><c>   1</c></rc>
    <rc><c>Fe</c><c>   1</c></rc>
    <rc><c>Fe</c><c>   1</c></rc>
    <rc><c>Fe</c><c>   1</c></rc>
    <rc><c>Fe</c><c>   1</c></rc>
    <rc><c>Fe</c><c>   1</c></rc>
    <rc><c>Fe</c><c>   1</c></rc>
    <rc><c>Fe</c><c>   1</c></rc>
    <rc><c>Fe</c><c>   1</c></rc>
    <rc><c>Fe</c><c>   1</c></rc>
    <rc><c>Fe</c><c>   1</c></rc>
    <rc><c>Fe</c><c>   1</c></rc>
    <rc><c>Fe</c><c>   1</c></rc>
    <rc><c>Fe</c><c>   1</c></rc>
    <rc><c>Fe</c><c>   1</c></rc>
    <rc><c>Fe</c><c>   1</c></rc>
    <rc><c>Fe</c><c>   1</c></rc>
    <rc><c>Fe</c><c>   1</c></rc>
    <rc><c>Fe</c><c>   1</c></rc>
    <rc><c>Fe</c><c>   1</c></rc>
    <rc><c>Fe</c><c>   1</c></rc>
    <rc><c>Fe</c><c>   1</c></rc>
    <rc><c>Fe</c><c>   1</c></rc>
    <rc><c>Fe</c><c>   1</c></rc>
    <rc><c>Fe</c><c>   1</c></rc>
    <rc><c>Fe</c><c>   1</c></rc>
    <rc><c>Fe</c><c>   1</c></rc>
    <rc><c>Fe</c><c>   1</c></rc>
    <rc><c>Fe</c><c>   1</c></rc>
    <rc><c>Fe</c><c>   1</c></rc>
    <rc><c>Fe</c><c>   1</c></rc>
    <rc><c>Fe</c><c>   1</c></rc>
    <rc><c>Fe</c><c>   1</c></rc>
    <rc><c>Fe</c><c>   1</c></rc>
    <rc><c>Fe</c><c>   1</c></rc>
    <rc><c>Fe</c><c>   1</c></rc>
    <rc><c>Fe</c><c>   1</c></rc>
    <rc><c>Fe</c><c>   1</c></rc>
    <rc><c>Fe</c><c>   1</c></rc>
    <rc><c>Fe</c><c>   1</c></rc>
    <rc><c>Fe</c><c>   1</c></rc>
    <rc><c>Fe</c><c>   1</c></rc>
    <rc><c>Fe</c><c>   1</c></rc>
    <rc><c>Fe</c><c>   1</c></rc>
    <rc><c>Fe</c><c>   1</c></rc>
    <rc><c>Fe</c><c>   1</c></rc>
    <rc><c>Fe</c><c>   1</c></rc>
    <rc><c>Fe</c><c>   1</c></rc>
    <rc><c>Fe</c><c>   1</c></rc>
    <rc><c>Fe</c><c>   1</c></rc>
    <rc><c>Fe</c><c>   1</c></rc>
    <rc><c>Fe</c><c>   1</c></rc>
    <rc><c>Fe</c><c>   1</c></rc>
    <rc><c>Fe</c><c>   1</c></rc>
    <rc><c>Fe</c><c>   1</c></rc>
    <rc><c>Fe</c><c>   1</c></rc>
    <rc><c>Fe</c><c>   1</c></rc>
    <rc><c>Fe</c><c>   1</c></rc>
    <rc><c>Fe</c><c>   1</c></rc>
    <rc><c>Fe</c><c>   1</c></rc>
    <rc><c>Fe</c><c>   1</c></rc>
    <rc><c>Fe</c><c>   1</c></rc>
    <rc><c>Fe</c><c>   1</c></rc>
    <rc><c>Fe</c><c>   1</c></rc>
    <rc><c>Fe</c><c>   1</c></rc>
    <rc><c>Fe</c><c>   1</c></rc>
    <rc><c>Fe</c><c>   1</c></rc>
    <rc><c>Fe</c><c>   1</c></rc>
    <rc><c>Fe</c><c>   1</c></rc>
    <rc><c>Fe</c><c>   1</c></rc>
    <rc><c>Fe</c><c>   1</c></rc>
    <rc><c>Fe</c><c>   1</c></rc>
    <rc><c>Fe</c><c>   1</c></rc>
    <rc><c>Fe</c><c>   1</c></rc>
    <rc><c>Fe</c><c>   1</c></rc>
    <rc><c>Fe</c><c>   1</c></rc>
    <rc><c>Fe</c><c>   1</c></rc>
    <rc><c>Fe</c><c>   1</c></rc>
    <rc><c>Fe</c><c>   1</c></rc>
    <rc><c>Fe</c><c>   1</c></rc>
    <rc><c>Fe</c><c>   1</c></rc>
    <rc><c>Fe</c><c>   1</c></rc>
    <rc><c>Fe</c><c>   1</c></rc>
    <rc><c>Fe</c><c>   1</c></rc>
    <rc><c>Fe</c><c>   1</c></rc>
    <rc><c>Fe</c><c>   1</c></rc>
    <rc><c>Fe</c><c>   1</c></rc>
    <rc><c>Fe</c><c>   1</c></rc>
    <rc><c>Fe</c><c>   1</c></rc>
    <rc><c>Fe</c><c>   1</c></rc>
    <rc><c>Fe</c><c>   1</c></rc>
    <rc><c>Fe</c><c>   1</c></rc>
    <rc><c>Fe</c><c>   1</c></rc>
    <rc><c>Fe</c><c>   1</c></rc>
    <rc><c>Fe</c><c>   1</c></rc>
    <rc><c>Fe</c><c>   1</c></rc>
    <rc><c>Fe</c><c>   1</c></rc>
    <rc><c>Fe</c><c>   1</c></rc>
    <rc><c>Fe</c><c>   1</c></rc>
    <rc><c>Fe</c><c>   1</c></rc>
    <rc><c>Fe</c><c>   1</c></rc>
    <rc><c>Fe</c><c>   1</c></rc>
    <rc><c>Fe</c><c>   1</c></rc>
    <rc><c>Fe</c><c>   1</c></rc>
    <rc><c>Fe</c><c>   1</c></rc>
    <rc><c>Fe</c><c>   1</c></rc>
    <rc><c>Fe</c><c>   1</c></rc>
    <rc><c>Fe</c><c>   1</c></rc>
    <rc><c>Fe</c><c>   1</c></rc>
    <rc><c>Fe</c><c>   1</c></rc>
    <rc><c>Fe</c><c>   1</c></rc>
    <rc><c>Fe</c><c>   1</c></rc>
    <rc><c>Fe</c><c>   1</c></rc>
    <rc><c>Fe</c><c>   1</c></rc>
    <rc><c>Fe</c><c>   1</c></rc>
    <rc><c>Fe</c><c>   1</c></rc>
    <rc><c>Fe</c><c>   1</c></rc>
    <rc><c>Fe</c><c>   1</c></rc>
    <rc><c>Fe</c><c>   1</c></rc>
    <rc><c>Fe</c><c>   1</c></rc>
    <rc><c>Fe</c><c>   1</c></rc>
    <rc><c>Fe</c><c>   1</c></rc>
    <rc><c>Fe</c><c>   1</c></rc>
    <rc><c>Fe</c><c>   1</c></rc>
    <rc><c>Fe</c><c>   1</c></rc>
    <rc><c>Fe</c><c>   1</c></rc>
    <rc><c>Fe</c><c>   1</c></rc>
    <rc><c>Fe</c><c>   1</c></rc>
    <rc><c>Fe</c><c>   1</c></rc>
    <rc><c>Fe</c><c>   1</c></rc>
    <rc><c>Fe</c><c>   1</c></rc>
    <rc><c>Fe</c><c>   1</c></rc>
    <rc><c>Fe</c><c>   1</c></rc>
    <rc><c>Fe</c><c>   1</c></rc>
    <rc><c>Fe</c><c>   1</c></rc>
    <rc><c>Fe</c><c>   1</c></rc>
    <rc><c>Fe</c><c>   1</c></rc>
    <rc><c>Fe</c><c>   1</c></rc>
    <rc><c>Fe</c><c>   1</c></rc>
    <rc><c>Fe</c><c>   1</c></rc>
    <rc><c>Fe</c><c>   1</c></rc>
    <rc><c>Fe</c><c>   1</c></rc>
    <rc><c>Fe</c><c>   1</c></rc>
    <rc><c>Fe</c><c>   1</c></rc>
    <rc><c>Fe</c><c>   1</c></rc>
    <rc><c>Mn</c><c>   2</c></rc>
    <rc><c>Mn</c><c>   2</c></rc>
    <rc><c>Mn</c><c>   2</c></rc>
    <rc><c>Mn</c><c>   2</c></rc>
    <rc><c>Mn</c><c>   2</c></rc>
    <rc><c>Mn</c><c>   2</c></rc>
    <rc><c>Mn</c><c>   2</c></rc>
   </set>
  </array>
  <array name="atomtypes" >
   <dimension dim="1">type</dimension>
   <field type="int">atomspertype</field>
   <field type="string">element</field>
   <field>mass</field>
   <field>valence</field>
   <field type="string">pseudopotential</field>
   <set>
    <rc><c> 281</c><c>Fe</c><c>     55.84700000</c><c>      8.00000000</c><c>  PAW_PBE Fe_GW 31Mar2010               </c></rc>
    <rc><c>   7</c><c>Mn</c><c>     54.93800000</c><c>      7.00000000</c><c>  PAW_PBE Mn_GW 31Mar2010               </c></rc>
   </set>
  </array>
 </atominfo>
 <structure name="initialpos" >
  <crystal>
   <varray name="basis" >
    <v>       9.72667804       0.00000000       0.00000000 </v>
    <v>       0.00000000       8.42355028       0.00000000 </v>
    <v>       0.00000000       0.00000000      45.00000000 </v>
   </varray>
   <i name="volume">   3686.99226691 </i>
   <varray name="rec_basis" >
    <v>       0.10281002       0.00000000       0.00000000 </v>
    <v>       0.00000000       0.11871479       0.00000000 </v>
    <v>       0.00000000       0.00000000       0.02222222 </v>
   </varray>
  </crystal>
  <varray name="positions" >
   <v>       0.05386428       0.70111855       0.21133071 </v>
   <v>       0.31801487       0.72394624       0.87637616 </v>
   <v>       0.68780201       0.95807649       0.61126379 </v>
   <v>       0.43765776       0.45801623       0.61135822 </v>
   <v>       0.44127254       0.28722633       0.25532112 </v>
   <v>       0.05864501       0.38868349       0.83362175 </v>
   <v>       0.30863442       0.88742663       0.83348873 </v>
   <v>       0.44664926       0.62626538       0.70029494 </v>
   <v>       0.05971716       0.21270975       0.74490830 </v>
   <v>       0.17914949       0.45123049       0.21133621 </v>
   <v>       0.56781345       0.21053668       0.47747221 </v>
   <v>       0.06705766       0.87470133       0.56669055 </v>
   <v>       0.56818982       0.22382530       0.87615459 </v>
   <v>       0.80765542       0.52680217       0.12407302 </v>
   <v>       0.42917686       0.95167083       0.21165635 </v>
   <v>       0.56691494       0.37495707       0.56666980 </v>
   <v>       0.81114782       0.04224325       0.38830721 </v>
   <v>       0.68228297       0.78828982       0.52224169 </v>
   <v>       0.44283084       0.46073843       0.47742227 </v>
   <v>       0.43395784       0.96252806       0.74470305 </v>
   <v>       0.44232253       0.62473923       0.56670840 </v>
   <v>       0.57172533       0.87640859       0.70045750 </v>
   <v>       0.30898984       0.02616794       0.12420522 </v>
   <v>       0.69044464       0.95933624       0.34407488 </v>
   <v>       0.68724203       0.78246170       0.12435621 </v>
   <v>       0.05273078       0.37366825       0.29962551 </v>
   <v>       0.68985874       0.46792783       0.87611455 </v>
   <v>       0.42827656       0.45142717       0.21151851 </v>
   <v>       0.80870779       0.37534069       0.43302373 </v>
   <v>       0.56273544       0.70824993       0.61138942 </v>
   <v>       0.55975565       0.54091415       0.65573785 </v>
   <v>       0.81729515       0.86214007       0.16664519 </v>
   <v>       0.56596867       0.53767494       0.25526724 </v>
   <v>       0.69000082       0.45935574       0.34407067 </v>
   <v>       0.19224463       0.61250620       0.16661818 </v>
   <v>       0.19432870       0.79947368       0.78888085 </v>
   <v>       0.44721659       0.12595578       0.70024763 </v>
   <v>       0.92775007       0.62342305       0.29965080 </v>
   <v>       0.31773417       0.22352638       0.87613534 </v>
   <v>       0.31729094       0.87451300       0.56664995 </v>
   <v>       0.81754310       0.22384167       0.87630570 </v>
   <v>       0.80987474       0.54163342       0.65568895 </v>
   <v>       0.55817001       0.52679711       0.12417270 </v>
   <v>       0.56942107       0.04994745       0.78893232 </v>
   <v>       0.19022893       0.28687684       0.25538218 </v>
   <v>       0.80850596       0.87493178       0.43307394 </v>
   <v>       0.57232172       0.37638456       0.70031139 </v>
   <v>       0.05752099       0.02722693       0.12417689 </v>
   <v>       0.30975401       0.54085429       0.65580607 </v>
   <v>       0.56523284       0.20918978       0.34395598 </v>
   <v>       0.18755722       0.95823543       0.61123810 </v>
   <v>       0.30278345       0.37405297       0.29966245 </v>
   <v>       0.43453133       0.79068084       0.65582634 </v>
   <v>       0.19498755       0.29908717       0.78879282 </v>
   <v>       0.06674983       0.36254353       0.16679714 </v>
   <v>       0.69697659       0.62633295       0.70040233 </v>
   <v>       0.31144348       0.54129755       0.38843611 </v>
   <v>       0.06755382       0.72338426       0.87638726 </v>
   <v>       0.93369393       0.63795255       0.83417154 </v>
   <v>       0.31942598       0.54971723       0.78899036 </v>
   <v>       0.30424697       0.20056353       0.21123970 </v>
   <v>       0.06815595       0.71024590       0.47730537 </v>
   <v>       0.55408234       0.20063437       0.21120592 </v>
   <v>       0.30974274       0.21219510       0.74486986 </v>
   <v>       0.07199908       0.37656789       0.70045711 </v>
   <v>       0.18283252       0.63778314       0.83379395 </v>
   <v>       0.06925129       0.04942770       0.78901535 </v>
   <v>       0.44198871       0.12494799       0.56677807 </v>
   <v>       0.93483936       0.29128830       0.65573623 </v>
   <v>       0.80396374       0.20134806       0.21127144 </v>
   <v>       0.92905659       0.95128871       0.21133742 </v>
   <v>       0.94249148       0.62501770       0.56664175 </v>
   <v>       0.80833644       0.38790078       0.83357082 </v>
   <v>       0.19684733       0.62600996       0.70017061 </v>
   <v>       0.80859151       0.88767871       0.83355868 </v>
   <v>       0.68479933       0.29066504       0.65591521 </v>
   <v>       0.31273059       0.20817232       0.61127953 </v>
   <v>       0.43473622       0.46293857       0.74489998 </v>
   <v>       0.43631670       0.79067208       0.38843153 </v>
   <v>       0.68476215       0.96266216       0.74478835 </v>
   <v>       0.80332662       0.70049064       0.21142212 </v>
   <v>       0.81268359       0.70820095       0.61140594 </v>
   <v>       0.43630772       0.78307797       0.12419196 </v>
   <v>       0.30983833       0.71229549       0.74477225 </v>
   <v>       0.32019116       0.04945329       0.78882874 </v>
   <v>       0.81154627       0.54205203       0.38837443 </v>
   <v>       0.68247075       0.28809329       0.52236852 </v>
   <v>       0.69466774       0.79926142       0.78888590 </v>
   <v>       0.19095367       0.78757781       0.25545630 </v>
   <v>       0.69163030       0.11256895       0.16676443 </v>
   <v>       0.69254636       0.96040197       0.47728776 </v>
   <v>       0.94031089       0.95941350       0.34413986 </v>
   <v>       0.80752390       0.03867575       0.52253465 </v>
   <v>       0.31669881       0.36229376       0.16678642 </v>
   <v>       0.44008314       0.45893080       0.34400567 </v>
   <v>       0.81039856       0.21163022       0.74467292 </v>
   <v>       0.43972223       0.96817418       0.87609193 </v>
   <v>       0.56748701       0.87485744       0.56666310 </v>
   <v>       0.80849389       0.02743275       0.12414490 </v>
   <v>       0.42803305       0.62361477       0.29947160 </v>
   <v>       0.81659804       0.72416585       0.87648954 </v>
   <v>       0.68755230       0.45795583       0.61129130 </v>
   <v>       0.55878328       0.38773539       0.83350616 </v>
   <v>       0.80297766       0.37343838       0.29962619 </v>
   <v>       0.18610181       0.29093348       0.38833870 </v>
   <v>       0.81965750       0.54960183       0.78899762 </v>
   <v>       0.18242781       0.78910165       0.52240714 </v>
   <v>       0.30290485       0.87419544       0.29973106 </v>
   <v>       0.17831898       0.95169550       0.21144453 </v>
   <v>       0.18468955       0.46254998       0.74489736 </v>
   <v>       0.43259022       0.28860282       0.52220058 </v>
   <v>       0.06548767       0.70891112       0.34397084 </v>
   <v>       0.18490608       0.79100250       0.65575428 </v>
   <v>       0.44456325       0.79921861       0.78881672 </v>
   <v>       0.68387098       0.12480545       0.43287269 </v>
   <v>       0.93232847       0.78807555       0.52237545 </v>
   <v>       0.69160929       0.61251373       0.16667364 </v>
   <v>       0.81519464       0.70866142       0.34389839 </v>
   <v>       0.93453655       0.46270659       0.74494113 </v>
   <v>       0.19028512       0.45936548       0.34410840 </v>
   <v>       0.56966377       0.54968527       0.78907396 </v>
   <v>       0.56689329       0.36218966       0.16663732 </v>
   <v>       0.56540049       0.70888488       0.34396795 </v>
   <v>       0.55295322       0.37374088       0.29962265 </v>
   <v>       0.18982990       0.46801052       0.87610532 </v>
   <v>       0.19125720       0.11148597       0.16661031 </v>
   <v>       0.44461152       0.29902983       0.78880076 </v>
   <v>       0.69119482       0.78743880       0.25550014 </v>
   <v>       0.93374025       0.13810871       0.83362695 </v>
   <v>       0.44265615       0.96068909       0.47741090 </v>
   <v>       0.56740079       0.72474820       0.87637677 </v>
   <v>       0.19267932       0.46063900       0.47738895 </v>
   <v>       0.93531359       0.28195463       0.12428885 </v>
   <v>       0.31186764       0.04163580       0.38847415 </v>
   <v>       0.05989691       0.04063225       0.65590738 </v>
   <v>       0.55872713       0.37538073       0.43310290 </v>
   <v>       0.68418097       0.46287623       0.74492911 </v>
   <v>       0.56002186       0.21255667       0.74480602 </v>
   <v>       0.94696078       0.12669979       0.70030943 </v>
   <v>       0.55991554       0.04133238       0.65570484 </v>
   <v>       0.55766814       0.53856977       0.52238637 </v>
   <v>       0.17779025       0.12367984       0.29963542 </v>
   <v>       0.44139934       0.11148706       0.16663691 </v>
   <v>       0.67770390       0.62371525       0.29963771 </v>
   <v>       0.92811083       0.12338789       0.29965487 </v>
   <v>       0.81724245       0.37493416       0.56670892 </v>
   <v>       0.05285276       0.87378331       0.29964933 </v>
   <v>       0.19238202       0.62486535       0.56668933 </v>
   <v>       0.94434918       0.79974789       0.78888472 </v>
   <v>       0.30855086       0.38768432       0.83348719 </v>
   <v>       0.93994174       0.46842860       0.87615805 </v>
   <v>       0.43359518       0.63791391       0.83358605 </v>
   <v>       0.06490280       0.20877745       0.34388480 </v>
   <v>       0.18982721       0.96802886       0.87611912 </v>
   <v>       0.93551182       0.78250968       0.12430643 </v>
   <v>       0.68646035       0.79123792       0.38837418 </v>
   <v>       0.93474332       0.79081326       0.65578590 </v>
   <v>       0.94165982       0.11222034       0.16677581 </v>
   <v>       0.43499849       0.29073416       0.65595245 </v>
   <v>       0.05383945       0.20078012       0.21133530 </v>
   <v>       0.67870796       0.95166183       0.21136492 </v>
   <v>       0.17803333       0.62361874       0.29957544 </v>
   <v>       0.82214837       0.87637407       0.70040755 </v>
   <v>       0.94679399       0.62646256       0.70040280 </v>
   <v>       0.19692509       0.12608566       0.70020012 </v>
   <v>       0.94227751       0.46047447       0.47719604 </v>
   <v>       0.81270787       0.20807373       0.61138119 </v>
   <v>       0.18316237       0.62492927       0.43301580 </v>
   <v>       0.42788417       0.12382997       0.29959998 </v>
   <v>       0.67785286       0.12363347       0.29962204 </v>
   <v>       0.56165309       0.54145366       0.38840455 </v>
   <v>       0.81504466       0.20824190       0.34387414 </v>
   <v>       0.43994657       0.46805913       0.87606543 </v>
   <v>       0.55849804       0.88765710       0.83347596 </v>
   <v>       0.31769758       0.21039810       0.47728838 </v>
   <v>       0.19253447       0.96073536       0.47735716 </v>
   <v>       0.05859950       0.88782060       0.83351290 </v>
   <v>       0.05754492       0.53813873       0.52235958 </v>
   <v>       0.94261486       0.96055043       0.47724979 </v>
   <v>       0.06258089       0.70824306       0.61137088 </v>
   <v>       0.55736264       0.03828158       0.52237949 </v>
   <v>       0.69496967       0.29916873       0.78880838 </v>
   <v>       0.81642939       0.36272072       0.16679972 </v>
   <v>       0.43376649       0.12478271       0.43288500 </v>
   <v>       0.06774525       0.21028728       0.47732129 </v>
   <v>       0.30992100       0.04112660       0.65576950 </v>
   <v>       0.43230624       0.78871320       0.52221906 </v>
   <v>       0.18361374       0.13798775       0.83362294 </v>
   <v>       0.18531093       0.28330286       0.12438968 </v>
   <v>       0.94060739       0.45963512       0.34408669 </v>
   <v>       0.56654882       0.86252694       0.16671067 </v>
   <v>       0.30360567       0.70060473       0.21134895 </v>
   <v>       0.94116780       0.61183186       0.16659571 </v>
   <v>       0.18760776       0.45818073       0.61126204 </v>
   <v>       0.07206024       0.87654846       0.70026351 </v>
   <v>       0.05976395       0.54096015       0.65576397 </v>
   <v>       0.30717762       0.52717402       0.12401768 </v>
   <v>       0.93622390       0.79124852       0.38843557 </v>
   <v>       0.94508029       0.29890430       0.78874587 </v>
   <v>       0.18455598       0.29061462       0.65579381 </v>
   <v>       0.93773684       0.95809046       0.61130488 </v>
   <v>       0.81028065       0.71199984       0.74475672 </v>
   <v>       0.69105256       0.28738149       0.25537505 </v>
   <v>       0.05945925       0.71235188       0.74493065 </v>
   <v>       0.67877740       0.45145316       0.21136730 </v>
   <v>       0.81777549       0.21059516       0.47744628 </v>
   <v>       0.56763260       0.71050504       0.47730595 </v>
   <v>       0.06689727       0.86251972       0.16671925 </v>
   <v>       0.93249008       0.28812075       0.52237040 </v>
   <v>       0.68472684       0.79061766       0.65579285 </v>
   <v>       0.05883117       0.87493236       0.43308361 </v>
   <v>       0.06798042       0.22293863       0.87632369 </v>
   <v>       0.80966493       0.04065711       0.65583848 </v>
   <v>       0.55874897       0.02754590       0.12402287 </v>
   <v>       0.30903081       0.37484967       0.43294645 </v>
   <v>       0.31703889       0.37476991       0.56672176 </v>
   <v>       0.31740061       0.71040774       0.47724124 </v>
   <v>       0.05722287       0.03814221       0.52233070 </v>
   <v>       0.32204714       0.87644152       0.70042067 </v>
   <v>       0.06546020       0.53813442       0.25522568 </v>
   <v>       0.68360518       0.13778956       0.83349711 </v>
   <v>       0.81502807       0.03766489       0.25519430 </v>
   <v>       0.18349811       0.12509828       0.43306026 </v>
   <v>       0.69718111       0.12640936       0.70036746 </v>
   <v>       0.18281902       0.28884697       0.52226428 </v>
   <v>       0.44085509       0.78758849       0.25546376 </v>
   <v>       0.44125649       0.61222586       0.16672285 </v>
   <v>       0.06282235       0.20778981       0.61132397 </v>
   <v>       0.18614971       0.79108327       0.38833295 </v>
   <v>       0.30757305       0.53802775       0.52227494 </v>
   <v>       0.82205777       0.37654452       0.70014351 </v>
   <v>       0.68684232       0.29154724       0.38844031 </v>
   <v>       0.19233941       0.12487954       0.56671782 </v>
   <v>       0.68973678       0.96869689       0.87611409 </v>
   <v>       0.69217616       0.12501277       0.56668046 </v>
   <v>       0.44034057       0.95902468       0.34410434 </v>
   <v>       0.18414669       0.96259011       0.74475919 </v>
   <v>       0.94089266       0.78748196       0.25538448 </v>
   <v>       0.55914449       0.87513070       0.43297166 </v>
   <v>       0.30880318       0.87519831       0.43297751 </v>
   <v>       0.80762968       0.53870847       0.52245095 </v>
   <v>       0.92874170       0.45154923       0.21138117 </v>
   <v>       0.31513397       0.53820270       0.25543396 </v>
   <v>       0.56173141       0.04180384       0.38841677 </v>
   <v>       0.93751176       0.45810056       0.61139203 </v>
   <v>       0.06183023       0.04146147       0.38839454 </v>
   <v>       0.06188118       0.54167958       0.38844202 </v>
   <v>       0.43642889       0.29105088       0.38838384 </v>
   <v>       0.69276001       0.46088949       0.47716355 </v>
   <v>       0.06715169       0.37483769       0.56674407 </v>
   <v>       0.55369380       0.70084373       0.21124895 </v>
   <v>       0.94078655       0.28741256       0.25538192 </v>
   <v>       0.81931444       0.04960364       0.78907629 </v>
   <v>       0.19040995       0.95939547       0.34407661 </v>
   <v>       0.55281314       0.87377965       0.29966947 </v>
   <v>       0.05867134       0.37487167       0.43292401 </v>
   <v>       0.31525154       0.70937890       0.34397148 </v>
   <v>       0.31513011       0.20919331       0.34400971 </v>
   <v>       0.94251654       0.12484156       0.56665904 </v>
   <v>       0.43813490       0.95839942       0.61133425 </v>
   <v>       0.56513808       0.03794707       0.25515271 </v>
   <v>       0.18686893       0.78274871       0.12437489 </v>
   <v>       0.06533356       0.03786113       0.25534585 </v>
   <v>       0.69202760       0.62482490       0.56674863 </v>
   <v>       0.05704880       0.52575150       0.12420403 </v>
   <v>       0.30740764       0.03806080       0.52218050 </v>
   <v>       0.68595353       0.28266710       0.12423233 </v>
   <v>       0.81799492       0.71049304       0.47747012 </v>
   <v>       0.43350205       0.13774656       0.83351239 </v>
   <v>       0.32230019       0.37649127       0.70035548 </v>
   <v>       0.68351419       0.63794025       0.83354882 </v>
   <v>       0.55992075       0.71206992       0.74475821 </v>
   <v>       0.93681186       0.29150883       0.38849596 </v>
   <v>       0.93986793       0.96855461       0.87618054 </v>
   <v>       0.56262905       0.20800416       0.61126892 </v>
   <v>       0.81705457       0.87492875       0.56672456 </v>
   <v>       0.80312167       0.87326139       0.29952410 </v>
   <v>       0.31505881       0.03789585       0.25537398 </v>
   <v>       0.43664795       0.28281973       0.12439683 </v>
   <v>       0.31274458       0.70825343       0.61134417 </v>
   <v>       0.43415015       0.62512720       0.43300868 </v>
   <v>       0.93326191       0.62503856       0.43317621 </v>
   <v>       0.31779694       0.86240678       0.16597672 </v>
   <v>       0.07069127       0.54960717       0.78878534 </v>
   <v>       0.93370095       0.12500289       0.43313541 </v>
   <v>       0.68187574       0.62433919       0.43304295 </v>
   <v>       0.93364493       0.96209483       0.74465824 </v>
   <v>       0.81575839       0.53851477       0.25545453 </v>
  </varray>
 </structure>
 <calculation>
  <scstep>
   <time name="dav">   54.40   54.41</time>
   <time name="total">   54.55   54.61</time>
   <energy>
    <i name="alphaZ">  16403.00255340 </i>
    <i name="ewald"> 714223.30587828 </i>
    <i name="hartreedc">-905891.84081637 </i>
    <i name="XCdc">  -6389.63530843 </i>
    <i name="pawpsdc"> 163151.95320885 </i>
    <i name="pawaedc">-160818.84594568 </i>
    <i name="eentropy">     -1.04901805 </i>
    <i name="bandstr">  38622.09136529 </i>
    <i name="atom"> 169914.59583762 </i>
    <i name="e_fr_energy">  29213.57775491 </i>
    <i name="e_wo_entrp">  29214.62677296 </i>
    <i name="e_0_energy">  29214.10226394 </i>
   </energy>
  </scstep>
  <scstep>
   <time name="dav">   53.69   53.72</time>
   <time name="total">   53.70   53.72</time>
   <energy>
    <i name="e_fr_energy">   1192.36461045 </i>
    <i name="e_wo_entrp">   1193.83761709 </i>
    <i name="e_0_energy">   1193.10111377 </i>
   </energy>
  </scstep>
  <scstep>
   <time name="dav">   70.70   70.74</time>
   <time name="total">   70.70   70.75</time>
   <energy>
    <i name="e_fr_energy">  -1940.40111965 </i>
    <i name="e_wo_entrp">  -1936.83000649 </i>
    <i name="e_0_energy">  -1938.61556307 </i>
   </energy>
  </scstep>
  <scstep>
   <time name="dav">   88.44   88.48</time>
   <time name="total">   88.45   88.49</time>
   <energy>
    <i name="e_fr_energy">  -2607.15028022 </i>
    <i name="e_wo_entrp">  -2603.52666972 </i>
    <i name="e_0_energy">  -2605.33847497 </i>
   </energy>
  </scstep>
  <scstep>
   <time name="dav">   84.78   84.83</time>
   <time name="total">   86.86   86.91</time>
   <energy>
    <i name="e_fr_energy">  -2727.14168852 </i>
    <i name="e_wo_entrp">  -2723.34300603 </i>
    <i name="e_0_energy">  -2725.24234727 </i>
   </energy>
  </scstep>
  <scstep>
   <time name="diag">    8.28    8.28</time>
   <time name="diis">   37.98   37.99</time>
   <time name="orth">    2.31    2.31</time>
   <time name="total">   50.78   50.82</time>
   <energy>
    <i name="e_fr_energy">  -6165.28259111 </i>
    <i name="e_wo_entrp">  -6161.68024456 </i>
    <i name="e_0_energy">  -6163.48141784 </i>
   </energy>
  </scstep>
  <scstep>
   <time name="diag">    8.28    8.28</time>
   <time name="diis">   38.28   38.28</time>
   <time name="orth">    2.31    2.31</time>
   <time name="total">   51.03   51.08</time>
[...]
       <r>     5.8793     0.0000  2772.0000 </r>
       <r>     5.9221     0.0000  2772.0000 </r>
       <r>     5.9649     0.0000  2772.0000 </r>
       <r>     6.0077     0.0000  2772.0000 </r>
       <r>     6.0505     0.0000  2772.0000 </r>
       <r>     6.0933     0.0000  2772.0000 </r>
       <r>     6.1361     0.0000  2772.0000 </r>
       <r>     6.1789     0.0000  2772.0000 </r>
       <r>     6.2217     0.0000  2772.0000 </r>
       <r>     6.2645     0.0000  2772.0000 </r>
       <r>     6.3073     0.0000  2772.0000 </r>
       <r>     6.3501     0.0000  2772.0000 </r>
       <r>     6.3929     0.0000  2772.0000 </r>
       <r>     6.4357     0.0000  2772.0000 </r>
       <r>     6.4785     0.0000  2772.0000 </r>
       <r>     6.5212     0.0000  2772.0000 </r>
       <r>     6.5640     0.0000  2772.0000 </r>
       <r>     6.6068     0.0000  2772.0000 </r>
       <r>     6.6496     0.0000  2772.0000 </r>
       <r>     6.6924     0.0000  2772.0000 </r>
       <r>     6.7352     0.0000  2772.0000 </r>
       <r>     6.7780     0.0000  2772.0000 </r>
       <r>     6.8208     0.0000  2772.0000 </r>
      </set>
     </set>
    </array>
   </total>
  </dos>
 </calculation>
 <structure name="finalpos" >
  <crystal>
   <varray name="basis" >
    <v>       9.72667804       0.00000000       0.00000000 </v>
    <v>       0.00000000       8.42355028       0.00000000 </v>
    <v>       0.00000000       0.00000000      45.00000000 </v>
   </varray>
   <i name="volume">   3686.99226691 </i>
   <varray name="rec_basis" >
    <v>       0.10281002       0.00000000       0.00000000 </v>
    <v>       0.00000000       0.11871479       0.00000000 </v>
    <v>       0.00000000       0.00000000       0.02222222 </v>
   </varray>
  </crystal>
  <varray name="positions" >
   <v>       0.05758927       0.70110942       0.21118481 </v>
   <v>       0.31600130       0.72054497       0.87575975 </v>
   <v>       0.68814873       0.95776948       0.61136140 </v>
   <v>       0.43817892       0.45793967       0.61138336 </v>
   <v>       0.43651540       0.28709692       0.25555173 </v>
   <v>       0.06097546       0.38668532       0.83416750 </v>
   <v>       0.31120560       0.88689445       0.83425291 </v>
   <v>       0.44231944       0.62649831       0.70027400 </v>
   <v>       0.06377505       0.21327415       0.74444654 </v>
   <v>       0.18238987       0.45091996       0.21133903 </v>
   <v>       0.56391590       0.20865727       0.47777067 </v>
   <v>       0.06451680       0.87458430       0.56671412 </v>
   <v>       0.56564432       0.21997463       0.87569167 </v>
   <v>       0.80977675       0.53042220       0.12447401 </v>
   <v>       0.43270988       0.95123417       0.21133999 </v>
   <v>       0.56458290       0.37437367       0.56666140 </v>
   <v>       0.81208935       0.04203469       0.38846456 </v>
   <v>       0.68624483       0.79036305       0.52206246 </v>
   <v>       0.43886625       0.45890662       0.47777526 </v>
   <v>       0.43815413       0.96288287       0.74443244 </v>
   <v>       0.43936633       0.62448802       0.56669365 </v>
   <v>       0.56725585       0.87653018       0.70026622 </v>
   <v>       0.31033457       0.03051250       0.12422611 </v>
   <v>       0.68684598       0.95825553       0.34400536 </v>
   <v>       0.68724110       0.77969208       0.12474378 </v>
   <v>       0.05750548       0.37356089       0.29968535 </v>
   <v>       0.68890657       0.47143887       0.87555047 </v>
   <v>       0.43260230       0.45114384       0.21135760 </v>
   <v>       0.81129164       0.37512776       0.43294645 </v>
   <v>       0.56306803       0.70792045       0.61141581 </v>
   <v>       0.56278805       0.54134896       0.65566207 </v>
   <v>       0.81443688       0.86360258       0.16606574 </v>
   <v>       0.56083512       0.53703696       0.25560478 </v>
   <v>       0.68702895       0.45826377       0.34412056 </v>
   <v>       0.18867616       0.61308625       0.16624259 </v>
   <v>       0.19163100       0.79926100       0.78872230 </v>
   <v>       0.44238151       0.12655304       0.70034734 </v>
   <v>       0.93295368       0.62312541       0.29976621 </v>
   <v>       0.31539655       0.22006653       0.87569910 </v>
   <v>       0.31433790       0.87439086       0.56658291 </v>
   <v>       0.81533612       0.22015234       0.87570533 </v>
   <v>       0.81260279       0.54136152       0.65564886 </v>
   <v>       0.55983636       0.52980465       0.12455615 </v>
   <v>       0.56676563       0.04946113       0.78894178 </v>
   <v>       0.18682367       0.28730412       0.25551257 </v>
   <v>       0.81106297       0.87515541       0.43297540 </v>
   <v>       0.56717062       0.37674113       0.70038147 </v>
   <v>       0.06053729       0.03016459       0.12454181 </v>
   <v>       0.31286259       0.54130244       0.65562233 </v>
   <v>       0.56196930       0.20852473       0.34422943 </v>
   <v>       0.18822315       0.95784608       0.61135794 </v>
   <v>       0.30763984       0.37363691       0.29973192 </v>
   <v>       0.43791970       0.79154614       0.65567101 </v>
   <v>       0.19174257       0.29842447       0.78885028 </v>
   <v>       0.06374182       0.36321871       0.16605420 </v>
   <v>       0.69199309       0.62660346       0.70026480 </v>
   <v>       0.31183739       0.54153575       0.38845580 </v>
   <v>       0.06530488       0.72013297       0.87596479 </v>
   <v>       0.93618756       0.63684919       0.83431564 </v>
   <v>       0.31733709       0.54993587       0.78894665 </v>
   <v>       0.30727143       0.20088343       0.21123729 </v>
   <v>       0.06409696       0.70891885       0.47784540 </v>
   <v>       0.55728231       0.20124992       0.21123990 </v>
   <v>       0.31363696       0.21353724       0.74435803 </v>
   <v>       0.06733885       0.37692383       0.70030054 </v>
   <v>       0.18632357       0.63698584       0.83410873 </v>
   <v>       0.06700209       0.04936041       0.78894362 </v>
   <v>       0.43950265       0.12443171       0.56668048 </v>
   <v>       0.93798761       0.29165631       0.65555050 </v>
   <v>       0.80749498       0.20125635       0.21124429 </v>
   <v>       0.93249050       0.95131471       0.21141484 </v>
   <v>       0.93919543       0.62463506       0.56666236 </v>
   <v>       0.81110749       0.38660044       0.83422599 </v>
   <v>       0.19221528       0.62690777       0.70029214 </v>
   <v>       0.81107624       0.88665320       0.83432491 </v>
   <v>       0.68817020       0.29178507       0.65569888 </v>
   <v>       0.31311377       0.20784669       0.61139464 </v>
   <v>       0.43819740       0.46273854       0.74436951 </v>
   <v>       0.43681107       0.79181457       0.38841223 </v>
   <v>       0.68770904       0.96276843       0.74447939 </v>
   <v>       0.80747569       0.70148527       0.21125633 </v>
   <v>       0.81307274       0.70777003       0.61131439 </v>
   <v>       0.43646560       0.77943635       0.12437032 </v>
   <v>       0.31305861       0.71294997       0.74435855 </v>
   <v>       0.31715657       0.04949753       0.78897122 </v>
   <v>       0.81186997       0.54182408       0.38842744 </v>
   <v>       0.68628705       0.29027764       0.52211746 </v>
   <v>       0.69201054       0.79942196       0.78885418 </v>
   <v>       0.18654685       0.78807954       0.25561499 </v>
   <v>       0.68843797       0.11394300       0.16626484 </v>
   <v>       0.68894682       0.95902001       0.47779263 </v>
   <v>       0.93729376       0.95852503       0.34413765 </v>
   <v>       0.81120912       0.03982966       0.52195438 </v>
   <v>       0.31381378       0.36332815       0.16607842 </v>
   <v>       0.43691783       0.45839755       0.34407071 </v>
   <v>       0.81336236       0.21359005       0.74440828 </v>
   <v>       0.43912006       0.97155741       0.87551180 </v>
   <v>       0.56423903       0.87425656       0.56667646 </v>
   <v>       0.81019854       0.03006355       0.12462602 </v>
   <v>       0.43241294       0.62342227       0.29977181 </v>
   <v>       0.81501877       0.72069676       0.87589118 </v>
   <v>       0.68812541       0.45784542       0.61135495 </v>
   <v>       0.56087044       0.38696169       0.83411521 </v>
   <v>       0.80756200       0.37318178       0.29968045 </v>
   <v>       0.18671199       0.29176940       0.38845874 </v>
   <v>       0.81664808       0.54970464       0.78908860 </v>
   <v>       0.18644968       0.79005075       0.52207368 </v>
   <v>       0.30772386       0.87340967       0.29976740 </v>
   <v>       0.18231936       0.95136008       0.21147255 </v>
   <v>       0.18858009       0.46303410       0.74442521 </v>
   <v>       0.43629198       0.29021470       0.52195063 </v>
   <v>       0.06222391       0.70879232       0.34430186 </v>
   <v>       0.18809658       0.79119626       0.65554794 </v>
   <v>       0.44169823       0.79955162       0.78874890 </v>
   <v>       0.68521344       0.12523691       0.43307127 </v>
   <v>       0.93666717       0.79000481       0.52215722 </v>
   <v>       0.68838504       0.61269612       0.16621739 </v>
   <v>       0.81197501       0.70855533       0.34425179 </v>
   <v>       0.93830772       0.46284536       0.74443816 </v>
   <v>       0.18711460       0.45834811       0.34416405 </v>
   <v>       0.56735353       0.54949744       0.78895106 </v>
   <v>       0.56470206       0.36357167       0.16602730 </v>
   <v>       0.56180213       0.70858885       0.34432133 </v>
   <v>       0.55802779       0.37352469       0.29964669 </v>
   <v>       0.18901045       0.47117723       0.87566567 </v>
   <v>       0.18825627       0.11270075       0.16633750 </v>
   <v>       0.44174839       0.29891014       0.78880522 </v>
   <v>       0.68622439       0.78745922       0.25557177 </v>
   <v>       0.93672780       0.13683086       0.83416248 </v>
   <v>       0.43880623       0.95912791       0.47769924 </v>
   <v>       0.56542173       0.72045035       0.87570666 </v>
   <v>       0.18884994       0.45904358       0.47770674 </v>
   <v>       0.93631347       0.27928565       0.12476375 </v>
   <v>       0.31156857       0.04157509       0.38841776 </v>
   <v>       0.06294180       0.04137263       0.65563888 </v>
   <v>       0.56106647       0.37455705       0.43300155 </v>
   <v>       0.68772941       0.46256766       0.74448611 </v>
   <v>       0.56348617       0.21361286       0.74435319 </v>
   <v>       0.94244005       0.12687614       0.70028302 </v>
   <v>       0.56286196       0.04102036       0.65564216 </v>
   <v>       0.56126752       0.54062703       0.52200855 </v>
   <v>       0.18260530       0.12343215       0.29969262 </v>
   <v>       0.43874478       0.11243717       0.16621153 </v>
   <v>       0.68227763       0.62340535       0.29977003 </v>
   <v>       0.93230706       0.12289321       0.29968098 </v>
   <v>       0.81431763       0.37447698       0.56681106 </v>
   <v>       0.05792928       0.87337554       0.29973779 </v>
   <v>       0.18926211       0.62448623       0.56672745 </v>
   <v>       0.94117460       0.79889745       0.78889937 </v>
   <v>       0.31135640       0.38676252       0.83422766 </v>
   <v>       0.93932967       0.47146509       0.87569998 </v>
   <v>       0.43661895       0.63713335       0.83418712 </v>
   <v>       0.06199771       0.20860070       0.34421687 </v>
   <v>       0.18893406       0.97128238       0.87553677 </v>
   <v>       0.93617982       0.77947318       0.12467826 </v>
   <v>       0.68657557       0.79209902       0.38842465 </v>
   <v>       0.93792922       0.79158160       0.65565696 </v>
   <v>       0.93839070       0.11402509       0.16628692 </v>
   <v>       0.43772094       0.29184355       0.65570615 </v>
   <v>       0.05784034       0.20099505       0.21130372 </v>
   <v>       0.68253922       0.95129930       0.21137587 </v>
   <v>       0.18258623       0.62353471       0.29974136 </v>
   <v>       0.81712462       0.87669712       0.70025369 </v>
   <v>       0.94231997       0.62689314       0.70032898 </v>
   <v>       0.19224982       0.12693482       0.70031454 </v>
   <v>       0.93905265       0.45865220       0.47773850 </v>
   <v>       0.81320576       0.20784586       0.61135152 </v>
   <v>       0.18609751       0.62509649       0.43299120 </v>
   <v>       0.43270570       0.12345541       0.29975303 </v>
   <v>       0.68254330       0.12271803       0.29968788 </v>
   <v>       0.56147760       0.54172753       0.38840094 </v>
   <v>       0.81202853       0.20864052       0.34437176 </v>
   <v>       0.43927544       0.47149148       0.87545868 </v>
   <v>       0.56124108       0.88666188       0.83424527 </v>
   <v>       0.31424094       0.20902552       0.47772469 </v>
   <v>       0.18866332       0.95900929       0.47773509 </v>
   <v>       0.06093670       0.88699609       0.83426798 </v>
   <v>       0.06141832       0.54025700       0.52194435 </v>
   <v>       0.93912774       0.95854302       0.47774611 </v>
   <v>       0.06327080       0.70774409       0.61131920 </v>
   <v>       0.56109823       0.04045601       0.52199251 </v>
   <v>       0.69199905       0.29887457       0.78876024 </v>
   <v>       0.81414662       0.36343575       0.16614025 </v>
   <v>       0.43538669       0.12494967       0.43303644 </v>
   <v>       0.06409045       0.20890842       0.47781598 </v>
   <v>       0.31287819       0.04125440       0.65563246 </v>
   <v>       0.43602298       0.79025622       0.52203569 </v>
   <v>       0.18667637       0.13698843       0.83413913 </v>
   <v>       0.18578671       0.27932060       0.12481395 </v>
   <v>       0.93695172       0.45858031       0.34412145 </v>
   <v>       0.56447377       0.86406100       0.16603027 </v>
   <v>       0.30737400       0.70079576       0.21135453 </v>
   <v>       0.93831102       0.61309706       0.16626311 </v>
   <v>       0.18807545       0.45789570       0.61136032 </v>
   <v>       0.06741383       0.87687759       0.70018648 </v>
   <v>       0.06304995       0.54146753       0.65570738 </v>
   <v>       0.30983440       0.53069105       0.12457775 </v>
   <v>       0.93629720       0.79227061       0.38849975 </v>
   <v>       0.94153702       0.29877944       0.78884793 </v>
   <v>       0.18785772       0.29170864       0.65568830 </v>
   <v>       0.93807451       0.95766662       0.61139895 </v>
   <v>       0.81342544       0.71297318       0.74454801 </v>
   <v>       0.68626616       0.28770200       0.25556742 </v>
   <v>       0.06382869       0.71294854       0.74442962 </v>
   <v>       0.68245569       0.45121410       0.21139883 </v>
   <v>       0.81379920       0.20850696       0.47776447 </v>
   <v>       0.56409313       0.70934150       0.47782397 </v>
   <v>       0.06392526       0.86400313       0.16617165 </v>
   <v>       0.93632574       0.28997183       0.52208213 </v>
   <v>       0.68746018       0.79156759       0.65563178 </v>
   <v>       0.06128596       0.87527171       0.43296102 </v>
   <v>       0.06579771       0.21953110       0.87576199 </v>
   <v>       0.81309960       0.04145542       0.65562457 </v>
   <v>       0.55986403       0.03020653       0.12454647 </v>
   <v>       0.31091000       0.37477721       0.43297954 </v>
   <v>       0.31427851       0.37441891       0.56660469 </v>
   <v>       0.31404332       0.70909062       0.47777994 </v>
   <v>       0.06146643       0.04048169       0.52194588 </v>
   <v>       0.31711231       0.87662204       0.70031803 </v>
   <v>       0.06181122       0.53667374       0.25561025 </v>
   <v>       0.68655051       0.13738626       0.83409766 </v>
   <v>       0.81143886       0.03689160       0.25566888 </v>
   <v>       0.18691389       0.12497013       0.43299153 </v>
   <v>       0.69227411       0.12663048       0.70026893 </v>
   <v>       0.18637815       0.29024951       0.52209337 </v>
   <v>       0.43648317       0.78754564       0.25557692 </v>
   <v>       0.43797337       0.61293467       0.16632875 </v>
   <v>       0.06312942       0.20802981       0.61133216 </v>
   <v>       0.18664728       0.79172974       0.38841516 </v>
   <v>       0.31129891       0.54073045       0.52198526 </v>
   <v>       0.81695839       0.37678574       0.70030281 </v>
   <v>       0.68650585       0.29208685       0.38844730 </v>
   <v>       0.18943856       0.12449316       0.56668046 </v>
   <v>       0.68891359       0.97176317       0.87552874 </v>
   <v>       0.68936580       0.12477302       0.56670458 </v>
   <v>       0.43708224       0.95864330       0.34423416 </v>
   <v>       0.18838554       0.96290464       0.74446152 </v>
   <v>       0.93659378       0.78754110       0.25550799 </v>
   <v>       0.56102014       0.87578456       0.43296765 </v>
   <v>       0.31101814       0.87551375       0.43304401 </v>
   <v>       0.81118962       0.53996523       0.52200455 </v>
   <v>       0.93256828       0.45135871       0.21146395 </v>
   <v>       0.31164824       0.53673533       0.25558065 </v>
   <v>       0.56154693       0.04184272       0.38845517 </v>
   <v>       0.93813592       0.45746342       0.61137146 </v>
   <v>       0.06147270       0.04188355       0.38846840 </v>
   <v>       0.06148278       0.54172355       0.38845173 </v>
   <v>       0.43659049       0.29191735       0.38841447 </v>
   <v>       0.68911969       0.45889918       0.47786773 </v>
   <v>       0.06443047       0.37441227       0.56672474 </v>
   <v>       0.55743048       0.70102983       0.21134555 </v>
   <v>       0.93663394       0.28755678       0.25565142 </v>
   <v>       0.81659232       0.04953085       0.78892201 </v>
   <v>       0.18731710       0.95839829       0.34423460 </v>
   <v>       0.55788631       0.87365669       0.29975662 </v>
   <v>       0.06141543       0.37450490       0.43293579 </v>
   <v>       0.31215480       0.70815775       0.34423339 </v>
   <v>       0.31210336       0.20804245       0.34423444 </v>
   <v>       0.93916296       0.12480620       0.56664899 </v>
   <v>       0.43805953       0.95781447       0.61135691 </v>
   <v>       0.56076380       0.03704067       0.25567945 </v>
   <v>       0.18659387       0.77884557       0.12447592 </v>
   <v>       0.06191192       0.03703949       0.25560512 </v>
   <v>       0.68946614       0.62439907       0.56672867 </v>
   <v>       0.05991813       0.52976033       0.12453121 </v>
   <v>       0.31132019       0.04079141       0.52199132 </v>
   <v>       0.68631058       0.27928238       0.12469338 </v>
   <v>       0.81376849       0.70890586       0.47778687 </v>
   <v>       0.43669232       0.13685646       0.83397750 </v>
   <v>       0.31748840       0.37631817       0.70028525 </v>
   <v>       0.68664149       0.63733313       0.83416359 </v>
   <v>       0.56331120       0.71271210       0.74444263 </v>
   <v>       0.93651911       0.29207689       0.38843694 </v>
   <v>       0.93922694       0.97130779       0.87555435 </v>
   <v>       0.56311557       0.20784506       0.61133069 </v>
   <v>       0.81444858       0.87453758       0.56676388 </v>
   <v>       0.80753697       0.87353727       0.29964358 </v>
   <v>       0.31128280       0.03690389       0.25569432 </v>
   <v>       0.43689203       0.27977324       0.12477791 </v>
   <v>       0.31304460       0.70787151       0.61136440 </v>
   <v>       0.43549376       0.62496013       0.43299281 </v>
   <v>       0.93686733       0.62524501       0.43308718 </v>
   <v>       0.31495111       0.86337158       0.16580840 </v>
   <v>       0.06702184       0.54932254       0.78882186 </v>
   <v>       0.93599129       0.12492079       0.43306411 </v>
   <v>       0.68449385       0.62509772       0.43303833 </v>
   <v>       0.93764933       0.96316001       0.74461355 </v>
   <v>       0.81189844       0.53668878       0.25545121 </v>
  </varray>
 </structure>
</modeling>
