unknown system                          
           1
     9.726678    0.000000    0.000000
     0.000000    8.423550    0.000000
     0.000000    0.000000   45.000000
   Fe   Mn
 281   7
Direct configuration=     1
   0.05386428  0.70111855  0.21133071
   0.31801487  0.72394624  0.87637616
   0.68780201  0.95807649  0.61126379
   0.43765776  0.45801623  0.61135822
   0.44127254  0.28722633  0.25532112
   0.05864501  0.38868349  0.83362175
   0.30863442  0.88742663  0.83348873
   0.44664926  0.62626538  0.70029494
   0.05971716  0.21270975  0.74490830
   0.17914949  0.45123049  0.21133621
   0.56781345  0.21053668  0.47747221
   0.06705766  0.87470133  0.56669055
   0.56818982  0.22382530  0.87615459
   0.80765542  0.52680217  0.12407302
   0.42917686  0.95167083  0.21165635
   0.56691494  0.37495707  0.56666980
   0.81114782  0.04224325  0.38830721
   0.68228297  0.78828982  0.52224169
   0.44283084  0.46073843  0.47742227
   0.43395784  0.96252806  0.74470305
   0.44232253  0.62473923  0.56670840
   0.57172533  0.87640859  0.70045750
   0.30898984  0.02616794  0.12420522
   0.69044464  0.95933624  0.34407488
   0.68724203  0.78246170  0.12435621
   0.05273078  0.37366825  0.29962551
   0.68985874  0.46792783  0.87611455
   0.42827656  0.45142717  0.21151851
   0.80870779  0.37534069  0.43302373
   0.56273544  0.70824993  0.61138942
   0.55975565  0.54091415  0.65573785
   0.81729515  0.86214007  0.16664519
   0.56596867  0.53767494  0.25526724
   0.69000082  0.45935574  0.34407067
   0.19224463  0.61250620  0.16661818
   0.19432870  0.79947368  0.78888085
   0.44721659  0.12595578  0.70024763
   0.92775007  0.62342305  0.29965080
   0.31773417  0.22352638  0.87613534
   0.31729094  0.87451300  0.56664995
   0.81754310  0.22384167  0.87630570
   0.80987474  0.54163342  0.65568895
   0.55817001  0.52679711  0.12417270
   0.56942107  0.04994745  0.78893232
   0.19022893  0.28687684  0.25538218
   0.80850596  0.87493178  0.43307394
   0.57232172  0.37638456  0.70031139
   0.05752099  0.02722693  0.12417689
   0.30975401  0.54085429  0.65580607
   0.56523284  0.20918978  0.34395598
   0.18755722  0.95823543  0.61123810
   0.30278345  0.37405297  0.29966245
   0.43453133  0.79068084  0.65582634
   0.19498755  0.29908717  0.78879282
   0.06674983  0.36254353  0.16679714
   0.69697659  0.62633295  0.70040233
   0.31144348  0.54129755  0.38843611
   0.06755382  0.72338426  0.87638726
   0.93369393  0.63795255  0.83417154
   0.31942598  0.54971723  0.78899036
   0.30424697  0.20056353  0.21123970
   0.06815595  0.71024590  0.47730537
   0.55408234  0.20063437  0.21120592
   0.30974274  0.21219510  0.74486986
   0.07199908  0.37656789  0.70045711
   0.18283252  0.63778314  0.83379395
   0.06925129  0.04942770  0.78901535
   0.44198871  0.12494799  0.56677807
   0.93483936  0.29128830  0.65573623
   0.80396374  0.20134806  0.21127144
   0.92905659  0.95128871  0.21133742
   0.94249148  0.62501770  0.56664175
   0.80833644  0.38790078  0.83357082
   0.19684733  0.62600996  0.70017061
   0.80859151  0.88767871  0.83355868
   0.68479933  0.29066504  0.65591521
   0.31273059  0.20817232  0.61127953
   0.43473622  0.46293857  0.74489998
   0.43631670  0.79067208  0.38843153
   0.68476215  0.96266216  0.74478835
   0.80332662  0.70049064  0.21142212
   0.81268359  0.70820095  0.61140594
   0.43630772  0.78307797  0.12419196
   0.30983833  0.71229549  0.74477225
   0.32019116  0.04945329  0.78882874
   0.81154627  0.54205203  0.38837443
   0.68247075  0.28809329  0.52236852
   0.69466774  0.79926142  0.78888590
   0.19095367  0.78757781  0.25545630
   0.69163030  0.11256895  0.16676443
   0.69254636  0.96040197  0.47728776
   0.94031089  0.95941350  0.34413986
   0.80752390  0.03867575  0.52253465
   0.31669881  0.36229376  0.16678642
   0.44008314  0.45893080  0.34400567
   0.81039856  0.21163022  0.74467292
   0.43972223  0.96817418  0.87609193
   0.56748701  0.87485744  0.56666310
   0.80849389  0.02743275  0.12414490
   0.42803305  0.62361477  0.29947160
   0.81659804  0.72416585  0.87648954
   0.68755230  0.45795583  0.61129130
   0.55878328  0.38773539  0.83350616
   0.80297766  0.37343838  0.29962619
   0.18610181  0.29093348  0.38833870
   0.81965750  0.54960183  0.78899762
   0.18242781  0.78910165  0.52240714
   0.30290485  0.87419544  0.29973106
   0.17831898  0.95169550  0.21144453
   0.18468955  0.46254998  0.74489736
   0.43259022  0.28860282  0.52220058
   0.06548767  0.70891112  0.34397084
   0.18490608  0.79100250  0.65575428
   0.44456325  0.79921861  0.78881672
   0.68387098  0.12480545  0.43287269
   0.93232847  0.78807555  0.52237545
   0.69160929  0.61251373  0.16667364
   0.81519464  0.70866142  0.34389839
   0.93453655  0.46270659  0.74494113
   0.19028512  0.45936548  0.34410840
   0.56966377  0.54968527  0.78907396
   0.56689329  0.36218966  0.16663732
   0.56540049  0.70888488  0.34396795
   0.55295322  0.37374088  0.29962265
   0.18982990  0.46801052  0.87610532
   0.19125720  0.11148597  0.16661031
   0.44461152  0.29902983  0.78880076
   0.69119482  0.78743880  0.25550014
   0.93374025  0.13810871  0.83362695
   0.44265615  0.96068909  0.47741090
   0.56740079  0.72474820  0.87637677
   0.19267932  0.46063900  0.47738895
   0.93531359  0.28195463  0.12428885
   0.31186764  0.04163580  0.38847415
   0.05989691  0.04063225  0.65590738
   0.55872713  0.37538073  0.43310290
   0.68418097  0.46287623  0.74492911
   0.56002186  0.21255667  0.74480602
   0.94696078  0.12669979  0.70030943
   0.55991554  0.04133238  0.65570484
   0.55766814  0.53856977  0.52238637
   0.17779025  0.12367984  0.29963542
   0.44139934  0.11148706  0.16663691
   0.67770390  0.62371525  0.29963771
   0.92811083  0.12338789  0.29965487
   0.81724245  0.37493416  0.56670892
   0.05285276  0.87378331  0.29964933
   0.19238202  0.62486535  0.56668933
   0.94434918  0.79974789  0.78888472
   0.30855086  0.38768432  0.83348719
   0.93994174  0.46842860  0.87615805
   0.43359518  0.63791391  0.83358605
   0.06490280  0.20877745  0.34388480
   0.18982721  0.96802886  0.87611912
   0.93551182  0.78250968  0.12430643
   0.68646035  0.79123792  0.38837418
   0.93474332  0.79081326  0.65578590
   0.94165982  0.11222034  0.16677581
   0.43499849  0.29073416  0.65595245
   0.05383945  0.20078012  0.21133530
   0.67870796  0.95166183  0.21136492
   0.17803333  0.62361874  0.29957544
   0.82214837  0.87637407  0.70040755
   0.94679399  0.62646256  0.70040280
   0.19692509  0.12608566  0.70020012
   0.94227751  0.46047447  0.47719604
   0.81270787  0.20807373  0.61138119
   0.18316237  0.62492927  0.43301580
   0.42788417  0.12382997  0.29959998
   0.67785286  0.12363347  0.29962204
   0.56165309  0.54145366  0.38840455
   0.81504466  0.20824190  0.34387414
   0.43994657  0.46805913  0.87606543
   0.55849804  0.88765710  0.83347596
   0.31769758  0.21039810  0.47728838
   0.19253447  0.96073536  0.47735716
   0.05859950  0.88782060  0.83351290
   0.05754492  0.53813873  0.52235958
   0.94261486  0.96055043  0.47724979
   0.06258089  0.70824306  0.61137088
   0.55736264  0.03828158  0.52237949
   0.69496967  0.29916873  0.78880838
   0.81642939  0.36272072  0.16679972
   0.43376649  0.12478271  0.43288500
   0.06774525  0.21028728  0.47732129
   0.30992100  0.04112660  0.65576950
   0.43230624  0.78871320  0.52221906
   0.18361374  0.13798775  0.83362294
   0.18531093  0.28330286  0.12438968
   0.94060739  0.45963512  0.34408669
   0.56654882  0.86252694  0.16671067
   0.30360567  0.70060473  0.21134895
   0.94116780  0.61183186  0.16659571
   0.18760776  0.45818073  0.61126204
   0.07206024  0.87654846  0.70026351
   0.05976395  0.54096015  0.65576397
   0.30717762  0.52717402  0.12401768
   0.93622390  0.79124852  0.38843557
   0.94508029  0.29890430  0.78874587
   0.18455598  0.29061462  0.65579381
   0.93773684  0.95809046  0.61130488
   0.81028065  0.71199984  0.74475672
   0.69105256  0.28738149  0.25537505
   0.05945925  0.71235188  0.74493065
   0.67877740  0.45145316  0.21136730
   0.81777549  0.21059516  0.47744628
   0.56763260  0.71050504  0.47730595
   0.06689727  0.86251972  0.16671925
   0.93249008  0.28812075  0.52237040
   0.68472684  0.79061766  0.65579285
   0.05883117  0.87493236  0.43308361
   0.06798042  0.22293863  0.87632369
   0.80966493  0.04065711  0.65583848
   0.55874897  0.02754590  0.12402287
   0.30903081  0.37484967  0.43294645
   0.31703889  0.37476991  0.56672176
   0.31740061  0.71040774  0.47724124
   0.05722287  0.03814221  0.52233070
   0.32204714  0.87644152  0.70042067
   0.06546020  0.53813442  0.25522568
   0.68360518  0.13778956  0.83349711
   0.81502807  0.03766489  0.25519430
   0.18349811  0.12509828  0.43306026
   0.69718111  0.12640936  0.70036746
   0.18281902  0.28884697  0.52226428
   0.44085509  0.78758849  0.25546376
   0.44125649  0.61222586  0.16672285
   0.06282235  0.20778981  0.61132397
   0.18614971  0.79108327  0.38833295
   0.30757305  0.53802775  0.52227494
   0.82205777  0.37654452  0.70014351
   0.68684232  0.29154724  0.38844031
   0.19233941  0.12487954  0.56671782
   0.68973678  0.96869689  0.87611409
   0.69217616  0.12501277  0.56668046
   0.44034057  0.95902468  0.34410434
   0.18414669  0.96259011  0.74475919
   0.94089266  0.78748196  0.25538448
   0.55914449  0.87513070  0.43297166
   0.30880318  0.87519831  0.43297751
   0.80762968  0.53870847  0.52245095
   0.92874170  0.45154923  0.21138117
   0.31513397  0.53820270  0.25543396
   0.56173141  0.04180384  0.38841677
   0.93751176  0.45810056  0.61139203
   0.06183023  0.04146147  0.38839454
   0.06188118  0.54167958  0.38844202
   0.43642889  0.29105088  0.38838384
   0.69276001  0.46088949  0.47716355
   0.06715169  0.37483769  0.56674407
   0.55369380  0.70084373  0.21124895
   0.94078655  0.28741256  0.25538192
   0.81931444  0.04960364  0.78907629
   0.19040995  0.95939547  0.34407661
   0.55281314  0.87377965  0.29966947
   0.05867134  0.37487167  0.43292401
   0.31525154  0.70937890  0.34397148
   0.31513011  0.20919331  0.34400971
   0.94251654  0.12484156  0.56665904
   0.43813490  0.95839942  0.61133425
   0.56513808  0.03794707  0.25515271
   0.18686893  0.78274871  0.12437489
   0.06533356  0.03786113  0.25534585
   0.69202760  0.62482490  0.56674863
   0.05704880  0.52575150  0.12420403
   0.30740764  0.03806080  0.52218050
   0.68595353  0.28266710  0.12423233
   0.81799492  0.71049304  0.47747012
   0.43350205  0.13774656  0.83351239
   0.32230019  0.37649127  0.70035548
   0.68351419  0.63794025  0.83354882
   0.55992075  0.71206992  0.74475821
   0.93681186  0.29150883  0.38849596
   0.93986793  0.96855461  0.87618054
   0.56262905  0.20800416  0.61126892
   0.81705457  0.87492875  0.56672456
   0.80312167  0.87326139  0.29952410
   0.31505881  0.03789585  0.25537398
   0.43664795  0.28281973  0.12439683
   0.31274458  0.70825343  0.61134417
   0.43415015  0.62512720  0.43300868
   0.93326191  0.62503856  0.43317621
   0.31779694  0.86240678  0.16597672
   0.07069127  0.54960717  0.78878534
   0.93370095  0.12500289  0.43313541
   0.68187574  0.62433919  0.43304295
   0.93364493  0.96209483  0.74465824
   0.81575839  0.53851477  0.25545453
Direct configuration=     2
   0.05439836  0.70111724  0.21130979
   0.31772617  0.72345857  0.87628778
   0.68785172  0.95803247  0.61127779
   0.43773248  0.45800526  0.61136183
   0.44059048  0.28720777  0.25535418
   0.05897914  0.38839700  0.83370000
   0.30900307  0.88735033  0.83359830
   0.44602847  0.62629878  0.70029194
   0.06029897  0.21279067  0.74484209
   0.17961408  0.45118597  0.21133661
   0.56725463  0.21026721  0.47751500
   0.06669336  0.87468455  0.56669393
   0.56782486  0.22327320  0.87608822
   0.80795957  0.52732120  0.12413052
   0.42968341  0.95160822  0.21161099
   0.56658058  0.37487343  0.56666860
   0.81128282  0.04221335  0.38832977
   0.68285101  0.78858707  0.52221599
   0.44226241  0.46047579  0.47747288
   0.43455949  0.96257893  0.74466425
   0.44189868  0.62470321  0.56670628
   0.57108451  0.87642603  0.70043008
   0.30918264  0.02679085  0.12420821
   0.68992868  0.95918129  0.34406491
   0.68724189  0.78206460  0.12441178
   0.05341536  0.37365286  0.29963409
   0.68972222  0.46843123  0.87603368
   0.42889677  0.45138655  0.21149544
   0.80907825  0.37531016  0.43301265
   0.56278313  0.70820269  0.61139321
   0.56019042  0.54097649  0.65572699
   0.81688534  0.86234976  0.16656211
   0.56523264  0.53758347  0.25531564
   0.68957472  0.45919918  0.34407782
   0.19173299  0.61258936  0.16656433
   0.19394192  0.79944319  0.78885812
   0.44652335  0.12604142  0.70026193
   0.92849615  0.62338038  0.29966735
   0.31739901  0.22303032  0.87607280
   0.31686754  0.87449549  0.56664034
   0.81722667  0.22331270  0.87621962
   0.81026588  0.54159443  0.65568320
   0.55840892  0.52722833  0.12422768
   0.56904034  0.04987772  0.78893367
   0.18974069  0.28693810  0.25540087
   0.80887257  0.87496385  0.43305982
   0.57158317  0.37643568  0.70032144
   0.05795346  0.02764812  0.12422921
   0.31019971  0.54091855  0.65577972
   0.56476492  0.20909443  0.34399519
   0.18765270  0.95817961  0.61125528
   0.30347974  0.37399332  0.29967241
   0.43501715  0.79080490  0.65580407
   0.19452230  0.29899215  0.78880105
   0.06631855  0.36264034  0.16669062
   0.69626207  0.62637174  0.70038261
   0.31149996  0.54133170  0.38843894
   0.06723138  0.72291810  0.87632669
   0.93405146  0.63779435  0.83419220
   0.31912649  0.54974858  0.78898410
   0.30468061  0.20060939  0.21123936
   0.06757399  0.71005563  0.47738279
   0.55454115  0.20072263  0.21121080
   0.31030108  0.21238753  0.74479648
   0.07133091  0.37661892  0.70043466
   0.18333305  0.63766883  0.83383909
   0.06892880  0.04941805  0.78900507
   0.44163226  0.12487397  0.56676407
   0.93529075  0.29134107  0.65570960
   0.80447004  0.20133491  0.21126755
   0.92954893  0.95129244  0.21134852
   0.94201890  0.62496284  0.56664470
   0.80873374  0.38771434  0.83366476
   0.19618320  0.62613869  0.70018803
   0.80894777  0.88753168  0.83366853
   0.68528263  0.29082563  0.65588419
   0.31278553  0.20812564  0.61129603
   0.43523247  0.46290989  0.74482392
   0.43638758  0.79083589  0.38842877
   0.68518466  0.96267739  0.74474405
   0.80392150  0.70063325  0.21139835
   0.81273939  0.70813916  0.61139281
   0.43633036  0.78255585  0.12421754
   0.31030005  0.71238933  0.74471294
   0.31975607  0.04945964  0.78884917
   0.81159268  0.54201935  0.38838203
   0.68301792  0.28840647  0.52233252
   0.69428676  0.79928444  0.78888135
   0.19032184  0.78764974  0.25547906
   0.69117260  0.11276596  0.16669280
   0.69203027  0.96020383  0.47736014
   0.93987830  0.95928611  0.34413954
   0.80805227  0.03884120  0.52245145
   0.31628516  0.36244207  0.16668491
   0.43962931  0.45885434  0.34401499
   0.81082350  0.21191121  0.74463498
   0.43963589  0.96865926  0.87600875
   0.56702132  0.87477129  0.56666501
   0.80873830  0.02780995  0.12421388
   0.42866102  0.62358717  0.29951464
   0.81637161  0.72366847  0.87640375
   0.68763447  0.45794000  0.61130042
   0.55908253  0.38762446  0.83359349
   0.80363495  0.37340159  0.29963397
   0.18618929  0.29105333  0.38835591
   0.81922602  0.54961657  0.78901066
   0.18300446  0.78923773  0.52235933
   0.30359579  0.87408278  0.29973627
   0.17889255  0.95164741  0.21144855
   0.18524736  0.46261939  0.74482966
   0.43312097  0.28883392  0.52216474
   0.06501973  0.70889409  0.34401830
   0.18536352  0.79103028  0.65572469
   0.44415247  0.79926635  0.78880700
   0.68406346  0.12486731  0.43290116
   0.93295054  0.78835216  0.52234416
   0.69114701  0.61253988  0.16660822
   0.81473302  0.70864621  0.34394906
   0.93507725  0.46272649  0.74486902
   0.18983055  0.45921961  0.34411638
   0.56933253  0.54965834  0.78905634
   0.56657912  0.36238781  0.16654986
   0.56488456  0.70884243  0.34401861
   0.55368080  0.37370989  0.29962609
   0.18971241  0.46846455  0.87604229
   0.19082693  0.11166014  0.16657119
   0.44420101  0.29901267  0.78880140
   0.69048218  0.78744173  0.25551041
   0.93416860  0.13792550  0.83370374
   0.44210416  0.96046526  0.47745224
   0.56711704  0.72413199  0.87628069
   0.19213027  0.46041025  0.47743451
   0.93545695  0.28157196  0.12435694
   0.31182476  0.04162709  0.38846607
   0.06033348  0.04073841  0.65586888
   0.55906253  0.37526263  0.43308837
   0.68468974  0.46283198  0.74486559
   0.56051856  0.21270810  0.74474109
   0.94631261  0.12672507  0.70030564
   0.56033799  0.04128764  0.65569585
   0.55818420  0.53886473  0.52233220
   0.17848062  0.12364432  0.29964362
   0.44101874  0.11162329  0.16657592
   0.67835966  0.62367082  0.29965668
   0.92871247  0.12331697  0.29965862
   0.81682310  0.37486861  0.56672357
   0.05358062  0.87372484  0.29966202
   0.19193469  0.62481099  0.56669479
   0.94389402  0.79962596  0.78888682
   0.30895311  0.38755216  0.83359335
   0.93985398  0.46886396  0.87609238
   0.43402872  0.63780200  0.83367223
   0.06448627  0.20875211  0.34393241
   0.18969915  0.96849534  0.87603563
   0.93560760  0.78207432  0.12435974
   0.68647687  0.79136138  0.38838141
   0.93520010  0.79092342  0.65576742
   0.94119111  0.11247910  0.16670572
   0.43538882  0.29089322  0.65591713
   0.05441308  0.20081094  0.21133077
   0.67925727  0.95160985  0.21136649
   0.17868611  0.62360669  0.29959923
   0.82142808  0.87642039  0.70038549
   0.94615252  0.62652429  0.70039221
   0.19625476  0.12620741  0.70021652
   0.94181514  0.46021320  0.47727381
   0.81277926  0.20804106  0.61137694
   0.18358321  0.62495324  0.43301228
   0.42857547  0.12377627  0.29962192
   0.67852536  0.12350222  0.29963148
   0.56162793  0.54149293  0.38840403
   0.81461222  0.20829906  0.34394548
   0.43985034  0.46855125  0.87597843
   0.55889132  0.88751441  0.83358626
   0.31720197  0.21020130  0.47735094
   0.19197943  0.96048788  0.47741134
   0.05893460  0.88770239  0.83362116
   0.05810027  0.53844244  0.52230005
   0.94211489  0.96026262  0.47732095
   0.06267981  0.70817152  0.61136347
   0.55789824  0.03859334  0.52232400
   0.69454375  0.29912656  0.78880148
   0.81610210  0.36282324  0.16670516
   0.43399879  0.12480665  0.43290671
   0.06722124  0.21008959  0.47739221
   0.31034499  0.04114493  0.65574985
   0.43283914  0.78893444  0.52219277
   0.18405285  0.13784447  0.83369695
   0.18537915  0.28273189  0.12445051
   0.94008325  0.45948389  0.34409167
   0.56625130  0.86274689  0.16661311
   0.30414596  0.70063212  0.21134975
   0.94075821  0.61201326  0.16654802
   0.18767482  0.45813987  0.61127613
   0.07139405  0.87659565  0.70025246
   0.06023509  0.54103290  0.65575586
   0.30755854  0.52767828  0.12409798
   0.93623441  0.79139506  0.38844477
   0.94457227  0.29888639  0.78876050
   0.18502938  0.29077148  0.65577868
   0.93778526  0.95802969  0.61131837
   0.81073154  0.71213939  0.74472680
   0.69036630  0.28742744  0.25540263
   0.06008573  0.71243743  0.74485881
   0.67930478  0.45141888  0.21137182
   0.81720538  0.21029576  0.47749190
   0.56712512  0.71033821  0.47738022
   0.06647116  0.86273241  0.16664074
   0.93304002  0.28838615  0.52232907
   0.68511874  0.79075386  0.65576975
   0.05918313  0.87498101  0.43306603
   0.06766747  0.22245007  0.87624315
   0.81015739  0.04077157  0.65580781
   0.55890885  0.02792738  0.12409794
   0.30930024  0.37483928  0.43295119
   0.31664311  0.37471958  0.56670497
   0.31691925  0.71021889  0.47731848
   0.05783130  0.03847763  0.52227552
   0.32133960  0.87646740  0.70040595
   0.06493702  0.53792499  0.25528082
   0.68402747  0.13773173  0.83358321
   0.81451346  0.03755401  0.25526234
   0.18398785  0.12507991  0.43305041
   0.69647756  0.12644106  0.70035333
   0.18332932  0.28904806  0.52223978
   0.44022826  0.78758234  0.25547998
   0.44078577  0.61232749  0.16666634
   0.06286638  0.20782422  0.61132515
   0.18622105  0.79117596  0.38834474
   0.30810725  0.53841526  0.52223341
   0.82132663  0.37657911  0.70016635
   0.68679408  0.29162461  0.38844131
   0.19192349  0.12482414  0.56671246
   0.68961875  0.96913652  0.87603017
   0.69177322  0.12497840  0.56668392
   0.43987340  0.95897000  0.34412295
   0.18475444  0.96263521  0.74471652
   0.94027630  0.78749044  0.25540219
   0.55941342  0.87522445  0.43297108
   0.30912076  0.87524354  0.43298705
   0.80814009  0.53888866  0.52238694
   0.92929034  0.45152191  0.21139304
   0.31463420  0.53799232  0.25545499
   0.56170496  0.04180941  0.38842228
   0.93760125  0.45800921  0.61138908
   0.06177897  0.04152199  0.38840513
   0.06182406  0.54168588  0.38844341
   0.43645206  0.29117511  0.38838823
   0.69223807  0.46060413  0.47726451
   0.06676153  0.37477670  0.56674130
   0.55422956  0.70087041  0.21126280
   0.94019116  0.28743324  0.25542056
   0.81892415  0.04959320  0.78905417
   0.18996651  0.95925250  0.34409926
   0.55354052  0.87376202  0.29968197
   0.05906478  0.37481909  0.43292570
   0.31480754  0.70920382  0.34400903
   0.31469614  0.20902830  0.34404193
   0.94203571  0.12483649  0.56665760
   0.43812409  0.95831555  0.61133750
   0.56451091  0.03781711  0.25522823
   0.18682949  0.78218909  0.12438937
   0.06484298  0.03774333  0.25538302
   0.69166035  0.62476384  0.56674577
   0.05746020  0.52632627  0.12425094
   0.30796861  0.03845231  0.52215338
   0.68600472  0.28218181  0.12429844
   0.81738894  0.71026547  0.47751553
   0.43395946  0.13761894  0.83357907
   0.32161029  0.37646645  0.70034541
   0.68396257  0.63785320  0.83363696
   0.56040686  0.71216199  0.74471296
   0.93676989  0.29159028  0.38848750
   0.93977603  0.96894935  0.87609076
   0.56269881  0.20798135  0.61127778
   0.81668093  0.87487267  0.56673020
   0.80375472  0.87330094  0.29954123
   0.31451742  0.03775362  0.25541991
   0.43668295  0.28238293  0.12445147
   0.31278759  0.70819867  0.61134707
   0.43434279  0.62510325  0.43300641
   0.93377884  0.62506816  0.43316345
   0.31738891  0.86254511  0.16595258
   0.07016516  0.54956636  0.78879058
   0.93402933  0.12499112  0.43312519
   0.68225112  0.62444794  0.43304228
   0.93421907  0.96224755  0.74465183
   0.81520496  0.53825297  0.25545405
Direct configuration=     3
   0.05600059  0.70111331  0.21124704
   0.31686008  0.72199558  0.87602265
   0.68800086  0.95790042  0.61131977
   0.43795665  0.45797233  0.61137264
   0.43854428  0.28715211  0.25545338
   0.05998154  0.38753752  0.83393474
   0.31010901  0.88712142  0.83392700
   0.44416608  0.62639897  0.70028293
   0.06204439  0.21303344  0.74464348
   0.18100787  0.45105240  0.21133783
   0.56557818  0.20945882  0.47764338
   0.06560046  0.87463421  0.56670407
   0.56672996  0.22161691  0.87588910
   0.80887202  0.52887829  0.12430299
   0.43120307  0.95142040  0.21147491
   0.56557750  0.37462249  0.56666498
   0.81168779  0.04212364  0.38839745
   0.68455513  0.78947883  0.52213890
   0.44055712  0.45968788  0.47762471
   0.43636444  0.96273155  0.74454785
   0.44062713  0.62459516  0.56669994
   0.56916205  0.87647833  0.70034780
   0.30976105  0.02865957  0.12421720
   0.68838078  0.95871644  0.34403501
   0.68724149  0.78087331  0.12457849
   0.05546910  0.37360668  0.29965982
   0.68931266  0.46994144  0.87579105
   0.43075740  0.45126468  0.21142622
   0.81018965  0.37521857  0.43297941
   0.56292618  0.70806097  0.61140456
   0.56149475  0.54116352  0.65569439
   0.81565591  0.86297883  0.16631287
   0.56302454  0.53730906  0.25546083
   0.68829643  0.45872949  0.34409928
   0.19019808  0.61283886  0.16640277
   0.19278155  0.79935171  0.78878992
   0.44444364  0.12629831  0.70030482
   0.93073438  0.62325235  0.29971699
   0.31639353  0.22154213  0.87588516
   0.31559735  0.87444295  0.56661151
   0.81627738  0.22172581  0.87596138
   0.81143930  0.54147749  0.65566596
   0.55912567  0.52852196  0.12439261
   0.56789815  0.04966854  0.78893774
   0.18827599  0.28712189  0.25545696
   0.80997242  0.87506004  0.43301743
   0.56936753  0.37658905  0.70035158
   0.05925086  0.02891170  0.12438617
   0.31153680  0.54111131  0.65570069
   0.56336117  0.20880837  0.34411280
   0.18793913  0.95801213  0.61130683
   0.30556862  0.37381436  0.29970229
   0.43647459  0.79117710  0.65573726
   0.19312653  0.29870711  0.78882577
   0.06502471  0.36293075  0.16637106
   0.69411852  0.62648809  0.70032345
   0.31166939  0.54143416  0.38844741
   0.06626404  0.72151963  0.87614497
   0.93512405  0.63731977  0.83425418
   0.31822799  0.54984262  0.78896529
   0.30598152  0.20074700  0.21123832
   0.06582809  0.70948483  0.47761508
   0.55591755  0.20098739  0.21122541
   0.31197610  0.21296483  0.74457632
   0.06932640  0.37677202  0.70036731
   0.18483466  0.63732588  0.83397448
   0.06796135  0.04938911  0.78897421
   0.44056294  0.12465190  0.56672210
   0.93664490  0.29149936  0.65562971
   0.80598893  0.20129546  0.21125587
   0.93102596  0.95130362  0.21138182
   0.94060117  0.62479825  0.56665357
   0.80992565  0.38715502  0.83394656
   0.19419082  0.62652486  0.70024031
   0.81001652  0.88709058  0.83399811
   0.68673255  0.29130739  0.65579115
   0.31295035  0.20798557  0.61134555
   0.43672123  0.46282385  0.74459575
   0.43660023  0.79132731  0.38842046
   0.68645221  0.96272311  0.74461116
   0.80570614  0.70106107  0.21132704
   0.81290677  0.70795381  0.61135343
   0.43639827  0.78098948  0.12429425
   0.31168519  0.71267084  0.74453499
   0.31845080  0.04947867  0.78891045
   0.81173192  0.54192130  0.38840483
   0.68465943  0.28934603  0.52222453
   0.69314382  0.79935349  0.78886771
   0.18842633  0.78786556  0.25554731
   0.68979948  0.11335698  0.16647791
   0.69048200  0.95960941  0.47757731
   0.93858054  0.95890396  0.34413859
   0.80963740  0.03933753  0.52220186
   0.31504423  0.36288699  0.16638038
   0.43826781  0.45862498  0.34404297
   0.81209832  0.21275420  0.74452115
   0.43937688  0.97011449  0.87575922
   0.56562427  0.87451283  0.56667076
   0.80947152  0.02894153  0.12442083
   0.43054495  0.62350437  0.29964377
   0.81569232  0.72217630  0.87614638
   0.68788098  0.45789251  0.61132780
   0.55998028  0.38729167  0.83385546
   0.80560681  0.37329121  0.29965731
   0.18645175  0.29141288  0.38840755
   0.81793157  0.54966079  0.78904980
   0.18473439  0.78964596  0.52221590
   0.30566859  0.87374480  0.29975190
   0.18061323  0.95150314  0.21146060
   0.18692080  0.46282763  0.74462658
   0.43471321  0.28952724  0.52205723
   0.06361588  0.70884299  0.34416068
   0.18673585  0.79111363  0.65563594
   0.44292014  0.79940959  0.78877783
   0.68464089  0.12505289  0.43298658
   0.93481674  0.78918199  0.52225030
   0.68976016  0.61261833  0.16641197
   0.81334816  0.70860058  0.34410107
   0.93669934  0.46278618  0.74465268
   0.18846681  0.45878201  0.34414031
   0.56833883  0.54957755  0.78900348
   0.56563660  0.36298226  0.16628747
   0.56333680  0.70871510  0.34417062
   0.55586353  0.37361689  0.29963644
   0.18935994  0.46982665  0.87585318
   0.18953614  0.11218265  0.16645385
   0.44296949  0.29896119  0.78880332
   0.68834424  0.78745051  0.25554122
   0.93545363  0.13737585  0.83393408
   0.44044820  0.95979374  0.47757627
   0.56626578  0.72228335  0.87599246
   0.19048314  0.45972401  0.47757120
   0.93588703  0.28042395  0.12456121
   0.31169612  0.04160098  0.38844181
   0.06164318  0.04105687  0.65575339
   0.56006875  0.37490834  0.43304478
   0.68621603  0.46269926  0.74467504
   0.56200867  0.21316240  0.74454632
   0.94436811  0.12680093  0.70029428
   0.56160533  0.04115344  0.65566889
   0.55973241  0.53974962  0.52216969
   0.18055171  0.12353779  0.29966822
   0.43987693  0.11203196  0.16639295
   0.68032697  0.62353752  0.29971360
   0.93051740  0.12310419  0.29966985
   0.81556505  0.37467197  0.56676750
   0.05576418  0.87354945  0.29970006
   0.19059273  0.62464792  0.56671119
   0.94252854  0.79926016  0.78889312
   0.31015986  0.38715566  0.83391186
   0.93959071  0.47017005  0.87589534
   0.43532933  0.63746626  0.83393077
   0.06323671  0.20867608  0.34407524
   0.18931498  0.96989478  0.87578514
   0.93589493  0.78076822  0.12451967
   0.68652643  0.79173177  0.38840312
   0.93657046  0.79125391  0.65571195
   0.93978496  0.11325538  0.16649543
   0.43655983  0.29137040  0.65581120
   0.05613399  0.20090339  0.21131719
   0.68090522  0.95145391  0.21137120
   0.18064445  0.62357055  0.29967060
   0.81926721  0.87655934  0.70031931
   0.94422810  0.62670950  0.70036046
   0.19424379  0.12657266  0.70026574
   0.94042803  0.45942938  0.47750714
   0.81299341  0.20794305  0.61136417
   0.18484570  0.62502517  0.43300170
   0.43064935  0.12361516  0.29968775
   0.68054286  0.12310846  0.29965980
   0.56155245  0.54161073  0.38840248
   0.81331489  0.20847051  0.34415952
   0.43956167  0.47002761  0.87571746
   0.56007119  0.88708633  0.83391716
   0.31571517  0.20961092  0.47753861
   0.19031434  0.95974544  0.47757390
   0.05993990  0.88734774  0.83394594
   0.05976634  0.53935357  0.52212144
   0.94061497  0.95939917  0.47753443
   0.06297656  0.70795690  0.61134124
   0.55950503  0.03952863  0.52215755
   0.69326600  0.29900003  0.78878077
   0.81512020  0.36313080  0.16642151
   0.43469569  0.12487846  0.43297185
   0.06564920  0.20949650  0.47760499
   0.31161697  0.04119989  0.65569091
   0.43443782  0.78959814  0.52211389
   0.18537018  0.13741463  0.83391898
   0.18558380  0.28101900  0.12463300
   0.93851083  0.45903018  0.34410662
   0.56535876  0.86340673  0.16632045
   0.30576683  0.70071429  0.21135215
   0.93952942  0.61255746  0.16640496
   0.18787598  0.45801727  0.61131840
   0.06939549  0.87673721  0.70021933
   0.06164849  0.54125114  0.65573151
   0.30870130  0.52919106  0.12433888
   0.93626594  0.79183470  0.38847238
   0.94304820  0.29883269  0.78880440
   0.18644955  0.29124205  0.65573330
   0.93793050  0.95784738  0.61135883
   0.81208421  0.71255806  0.74463702
   0.68830753  0.28756530  0.25548537
   0.06196516  0.71269407  0.74464330
   0.68088693  0.45131606  0.21138538
   0.81549506  0.20939756  0.47762876