unknown system                          
           1
     9.726678    0.000000    0.000000
     0.000000    8.423550    0.000000
     0.000000    0.000000   45.000000
   Fe   Mn
 274  14
Direct configuration=     1
   0.06254959  0.03310358  0.12495485
   0.31428376  0.87291599  0.65442083
   0.18756814  0.11708692  0.78761966
   0.43826525  0.29108409  0.38940523
   0.31528005  0.70994498  0.83198510
   0.81510794  0.21181497  0.83295748
   0.18812762  0.96060499  0.83258742
   0.56360716  0.20750726  0.56538087
   0.06270661  0.03751911  0.74335486
   0.81243158  0.87068139  0.52122421
   0.19046516  0.28860772  0.74351079
   0.93576422  0.45433072  0.34560107
   0.93689647  0.29010294  0.38955459
   0.81365072  0.03555307  0.87458633
   0.18509997  0.78728023  0.61047967
   0.56273733  0.04082272  0.38977279
   0.93930014  0.96091275  0.83277997
   0.31557522  0.53634637  0.87506281
   0.68803776  0.28767079  0.74339348
   0.18689194  0.61695692  0.16722159
   0.81175637  0.20612080  0.47875273
   0.81125397  0.53641175  0.61054985
   0.31267660  0.87146852  0.43453779
   0.80998552  0.04148202  0.25698167
   0.68604676  0.95426943  0.34545888
   0.93531938  0.11723532  0.16776847
   0.06270947  0.87124091  0.52126045
   0.56022236  0.54185080  0.25658612
   0.68701365  0.79144055  0.87478104
   0.56195532  0.36752578  0.16727036
   0.43752376  0.78749557  0.74336263
   0.81235554  0.70670183  0.56506779
   0.56247056  0.86772697  0.78761294
   0.68660915  0.12087765  0.52119695
   0.81436364  0.37227411  0.65460600
   0.93875244  0.45983417  0.83277166
   0.06198230  0.20718794  0.69906044
   0.43688855  0.95732716  0.69896719
   0.31358414  0.20865386  0.83277915
   0.43902046  0.62270397  0.65442003
   0.31106723  0.53717817  0.61059136
   0.93776932  0.45717991  0.56539111
   0.68778379  0.78804431  0.74346407
   0.93687922  0.79104553  0.12515140
   0.68850218  0.78943620  0.38942671
   0.93828565  0.78775109  0.74348350
   0.06224858  0.20426958  0.34548002
   0.81248120  0.04033190  0.38983541
   0.43787419  0.11737174  0.78765583
   0.06292889  0.20778473  0.21238195
   0.06072401  0.36721029  0.16732092
   0.93477633  0.79159211  0.25673468
   0.56204706  0.20703083  0.69907198
   0.68696273  0.95712183  0.69905776
   0.81219528  0.86739165  0.78743662
   0.43754955  0.95672161  0.56494633
   0.81283605  0.36819997  0.78764663
   0.68428235  0.29135975  0.25677487
   0.18763217  0.45752588  0.56516873
   0.06099258  0.86739940  0.16744408
   0.18623493  0.28655871  0.61037262
   0.56352690  0.70479937  0.34581578
   0.31194397  0.20701890  0.69912876
   0.56344508  0.53549603  0.87497189
   0.06275058  0.70641059  0.56515972
   0.68808625  0.61730107  0.78764384
   0.31160989  0.54055436  0.38936933
   0.18732131  0.62070130  0.52124667
   0.56339588  0.87372081  0.43487352
   0.43713513  0.45724502  0.56509992
   0.43762086  0.28847474  0.74337637
   0.81319618  0.87600459  0.30105787
   0.81106918  0.70500585  0.34590814
   0.43886039  0.45942551  0.83236627
   0.68772627  0.95576475  0.47868828
   0.68695065  0.45707521  0.69902944
   0.56259947  0.87137019  0.52128760
   0.56444964  0.37257922  0.65431299
   0.81411874  0.87262867  0.65443924
   0.81353556  0.37339150  0.43459094
   0.81045298  0.54174128  0.25668389
   0.68926908  0.45823445  0.83257895
   0.18933120  0.78869491  0.12474085
   0.68741502  0.29007581  0.38931395
   0.31417423  0.37270660  0.65449806
   0.31219047  0.20464933  0.34568712
   0.81280155  0.53759673  0.74332339
   0.68752904  0.95947317  0.83243341
   0.56357921  0.87255819  0.65417706
   0.31247345  0.70685079  0.56519907
   0.31309109  0.53512665  0.12472046
   0.68741529  0.95857107  0.21244310
   0.31238720  0.20710658  0.56538375
   0.18711825  0.95603685  0.47862842
   0.68853991  0.95681796  0.56532161
   0.43631274  0.78647398  0.61040807
   0.68649218  0.61605153  0.16756856
   0.31397445  0.87498411  0.30095982
   0.31273625  0.70531163  0.47868619
   0.93602843  0.28680829  0.61042856
   0.43981039  0.62553276  0.30137865
   0.81133300  0.86745966  0.16765576
   0.56366055  0.20744326  0.21242265
   0.93595281  0.61611850  0.16744338
   0.94047436  0.78912916  0.87492267
   0.56246884  0.36715619  0.78762292
   0.06184873  0.37132598  0.52129262
   0.31106196  0.36495548  0.16779580
   0.68890406  0.12471971  0.30091076
   0.43957889  0.95908662  0.83233092
   0.18785687  0.28906461  0.12501852
   0.18487496  0.29177254  0.25687223
   0.31254094  0.37212655  0.43460522
   0.56258983  0.03301189  0.12495120
   0.43595604  0.28685900  0.61029053
   0.18618816  0.45709789  0.34610711
   0.43664907  0.28914892  0.12505146
   0.68447855  0.79261163  0.25671165
   0.43696661  0.12113299  0.52121106
   0.18881057  0.29127662  0.87497961
   0.18892755  0.12312356  0.65445352
   0.93922842  0.12318699  0.65452550
   0.81255954  0.53984205  0.38969187
   0.06350548  0.03932560  0.38942765
   0.18684778  0.11645186  0.16708316
   0.06108496  0.53651742  0.61043347
   0.93520863  0.29228183  0.25682571
   0.56131929  0.53653515  0.61039029
   0.93745100  0.95783510  0.56524046
   0.68880019  0.62482906  0.30106140
   0.93736221  0.62325731  0.43475731
   0.93697209  0.61797707  0.78725879
   0.56198119  0.70696705  0.69905664
   0.06352614  0.71151222  0.83270240
   0.93883395  0.12478777  0.30090176
   0.93649331  0.78613290  0.61054731
   0.43483601  0.79183983  0.25685665
   0.31260656  0.36771450  0.78761992
   0.43847683  0.45847791  0.21241502
   0.18792684  0.12029794  0.52120119
   0.81187542  0.70697708  0.69899288
   0.06114775  0.03634392  0.61036452
   0.56262505  0.20985323  0.83239866
   0.31126903  0.87103721  0.52114727
   0.68741418  0.29117779  0.12502972
   0.18789595  0.95842693  0.21240874
   0.68533510  0.28740196  0.61039569
   0.31005494  0.03734357  0.61071384
   0.93777726  0.11750662  0.78764877
   0.43762135  0.79175102  0.87486189
   0.81286038  0.03830477  0.74319451
   0.93684513  0.45719919  0.69908008
   0.18903821  0.62268138  0.65443665
   0.31218755  0.70734187  0.69899031
   0.93742822  0.29097411  0.12504041
   0.43726502  0.45570662  0.47877139
   0.06245888  0.70567057  0.47863637
   0.93659785  0.12357616  0.43506770
   0.43793229  0.12540422  0.30108322
   0.18814195  0.12309269  0.43457003
   0.56289472  0.03377888  0.87492345
   0.18751924  0.95752107  0.56538158
   0.68769336  0.79100247  0.12516442
   0.56306802  0.53275323  0.12503093
   0.31262697  0.03959986  0.38962887
   0.68626234  0.11761457  0.16779531
   0.81328600  0.20740064  0.21224657
   0.06110212  0.54203915  0.25677903
   0.56223258  0.70566534  0.47866733
   0.43612442  0.78879021  0.12471142
   0.56369813  0.37545692  0.30107909
   0.43591373  0.95521548  0.34549014
   0.18723563  0.95723283  0.69911112
   0.43520872  0.61706724  0.16722661
   0.93835611  0.45856344  0.21250904
   0.06254469  0.53304995  0.12499615
   0.81329584  0.37117701  0.52124388
   0.93887004  0.62478089  0.30078057
   0.31085617  0.04149203  0.25637272
   0.68607154  0.78660436  0.61041818
   0.18861103  0.45957216  0.83263747
   0.43569666  0.11633353  0.16712633
   0.31157323  0.37084752  0.52119872
   0.43701928  0.61749821  0.78775091
   0.06010559  0.04175128  0.25672571
   0.56261934  0.70718582  0.56545573
   0.93763776  0.28729487  0.74331760
   0.68631133  0.11723326  0.78757472
   0.18801038  0.45848142  0.21243607
   0.93820056  0.79066767  0.38960583
   0.68706137  0.29298027  0.87495594
   0.56135537  0.86722165  0.16741419
   0.43678070  0.45701877  0.69907319
   0.93743193  0.95458376  0.34563461
   0.68651445  0.62156826  0.52118162
   0.06396702  0.87207757  0.65440662
   0.06245612  0.86809279  0.78742267
   0.06381783  0.37214229  0.65436397
   0.68784686  0.45565162  0.47880534
   0.18481632  0.79113241  0.25654095
   0.43753292  0.12202768  0.43457549
   0.81276407  0.03295833  0.12498522
   0.93707147  0.62103767  0.52127553
   0.06291836  0.87131688  0.43452092
   0.81269802  0.53302192  0.12482013
   0.43629875  0.45478929  0.34589100
   0.81280181  0.20548314  0.34585797
   0.31263947  0.70472990  0.34533076
   0.68857036  0.12280204  0.65451176
   0.56411827  0.87542172  0.30114617
   0.06313829  0.53752062  0.74344183
   0.93898015  0.95825010  0.21237359
   0.81305064  0.70729026  0.21222862
   0.06313456  0.87523762  0.30112194
   0.18872743  0.12577294  0.30113301
   0.06195944  0.70488697  0.34557387
   0.81119548  0.03641354  0.61037493
   0.06270239  0.37132926  0.43454546
   0.56195042  0.20589544  0.34598897
   0.81402499  0.37549510  0.30103525
   0.31118098  0.86578204  0.16741837
   0.56294539  0.54051285  0.38963606
   0.06283322  0.20559014  0.47871427
   0.31281493  0.86722404  0.78737062
   0.93687559  0.95727450  0.69903796
   0.06350231  0.37555562  0.30109482
   0.68864086  0.62300869  0.65446248
   0.68785823  0.45724085  0.56523077
   0.43734580  0.95863956  0.21245105
   0.31255146  0.20593330  0.47868121
   0.43944237  0.12254920  0.65432198
   0.68776882  0.62152216  0.43442269
   0.81207287  0.20696439  0.69912151
   0.81226580  0.70572281  0.47867126
   0.81235965  0.87289133  0.43461118
   0.93736373  0.95553556  0.47874997
   0.56240997  0.20579953  0.47872370
   0.18749407  0.62303644  0.43466071
   0.31267065  0.03841333  0.74332567
   0.93894714  0.62320262  0.65442524
   0.56389780  0.70998289  0.83240921
   0.31372165  0.37469069  0.30093972
   0.56298188  0.70748335  0.21230252
   0.18729336  0.45580600  0.47864939
   0.31459381  0.03633279  0.87470104
   0.18685266  0.45737306  0.69899796
   0.81279700  0.53431627  0.87513240
   0.18782276  0.29046444  0.38975827
   0.43745775  0.62289938  0.43461764
   0.06352657  0.70761277  0.21231413
   0.56305581  0.37411380  0.43502623
   0.43748568  0.62171703  0.52131066
   0.81379721  0.71088227  0.83216546
   0.06237497  0.36823818  0.78764862
   0.43773423  0.29230640  0.87520861
   0.31273478  0.03385195  0.12486725
   0.68777893  0.12058481  0.43448338
   0.18586509  0.95558692  0.34599326
   0.06369892  0.21065930  0.83289982
   0.56108932  0.03669130  0.61060138
   0.68747101  0.45832691  0.21262862
   0.18776469  0.78765235  0.74340601
   0.18921240  0.62598530  0.30140826
   0.43733366  0.79076676  0.38972789
   0.43416221  0.29235520  0.25670945
   0.06551141  0.53701096  0.87495943
   0.56320736  0.03750044  0.74344304
   0.18764244  0.79178740  0.87485165
   0.93732623  0.45583648  0.47865204
   0.56294010  0.53816089  0.74313696
   0.81182031  0.20694072  0.56495658
   0.18748243  0.61717886  0.78759241
   0.06357092  0.54032012  0.38938540
   0.06222955  0.70701927  0.69901777
   0.31029980  0.54079564  0.25617573
   0.31296698  0.70724078  0.21266024
   0.56056252  0.04200027  0.25664286
   0.31368475  0.20802370  0.21270496
   0.68614614  0.45414620  0.34582820
   0.93588601  0.29332794  0.87455550
   0.43742452  0.95597335  0.47866806
   0.06407431  0.03259933  0.87462402
   0.18771194  0.79185059  0.38992444
   0.81107060  0.36869084  0.16711246
   0.56224534  0.37073110  0.52131171
   0.93692582  0.12094053  0.52119589
   0.06368552  0.20594522  0.56542717
   0.31349773  0.53686177  0.74332716
Direct configuration=     2
   0.06246443  0.03356453  0.12501477
   0.31406642  0.87286490  0.65441351
   0.18761360  0.11754962  0.78760381
   0.43826346  0.29097949  0.38949364
   0.31495645  0.70948462  0.83205191
   0.81494444  0.21112128  0.83292185
   0.18806682  0.96019002  0.83259295
   0.56342304  0.20716666  0.56541743
   0.06266367  0.03762944  0.74335066
   0.81232615  0.87099875  0.52130272
   0.18988007  0.28854642  0.74347395
   0.93606983  0.45459893  0.34559249
   0.93695920  0.29006853  0.38960651
   0.81347080  0.03628287  0.87458101
   0.18544313  0.78735177  0.61041499
   0.56270975  0.04066456  0.38980076
   0.93930353  0.96049660  0.83276807
   0.31523983  0.53686862  0.87498112
   0.68809471  0.28773230  0.74337874
   0.18691689  0.61732274  0.16722089
   0.81172201  0.20612937  0.47867320
   0.81137092  0.53661655  0.61050682
   0.31264886  0.87166658  0.43455002
   0.81030989  0.04139587  0.25693624
   0.68620692  0.95464599  0.34548768
   0.93546810  0.11745440  0.16770465
   0.06271219  0.87146353  0.52134521
   0.56045956  0.54172901  0.25663102
   0.68717003  0.79092662  0.87474782
   0.56187331  0.36782307  0.16722265
   0.43759234  0.78765908  0.74335637
   0.81232732  0.70648888  0.56513074
   0.56251906  0.86798273  0.78758676
   0.68674501  0.12098670  0.52128292
   0.81412313  0.37234983  0.65458592
   0.93877435  0.45961156  0.83277729
   0.06203778  0.20700643  0.69906362
   0.43696812  0.95708492  0.69897202
   0.31354964  0.20840364  0.83279696
   0.43884745  0.62267571  0.65441637
   0.31118302  0.53732372  0.61052417
   0.93769149  0.45690797  0.56541106
   0.68779230  0.78811375  0.74344792
   0.93691176  0.79028284  0.12522037
   0.68842842  0.78947785  0.38948950
   0.93823844  0.78781562  0.74345119
   0.06225105  0.20459882  0.34550078
   0.81253013  0.04027867  0.38985379
   0.43782772  0.11775856  0.78764823
   0.06270872  0.20760668  0.21239113
   0.06084149  0.36751135  0.16728404
   0.93499824  0.79150665  0.25673525
   0.56211303  0.20682276  0.69906617
   0.68701879  0.95687050  0.69905521
   0.81216133  0.86776324  0.78744087
   0.43747209  0.95654313  0.56499555
   0.81282160  0.36845570  0.78761405
   0.68461951  0.29131602  0.25677496
   0.18762145  0.45724659  0.56521996
   0.06116195  0.86769405  0.16740045
   0.18632800  0.28682296  0.61033648
   0.56328338  0.70499271  0.34579382
   0.31202521  0.20683355  0.69912143
   0.56348566  0.53633994  0.87489824
   0.06268968  0.70631136  0.56520354
   0.68802816  0.61774224  0.78763717
   0.31181582  0.54051005  0.38946926
   0.18740002  0.62106859  0.52131121
   0.56320927  0.87342714  0.43482525
   0.43711138  0.45708581  0.56516738
   0.43773492  0.28847041  0.74337096
   0.81313758  0.87582283  0.30104288
   0.81131762  0.70515679  0.34586586
   0.43883178  0.45911828  0.83244529
   0.68782722  0.95581705  0.47861696
   0.68700945  0.45684952  0.69902213
   0.56257020  0.87144310  0.52134125
   0.56426962  0.37248747  0.65431242
   0.81397354  0.87261074  0.65443511
   0.81343696  0.37325592  0.43456781
   0.81066897  0.54157867  0.25670286
   0.68926998  0.45814169  0.83262257
   0.18906171  0.78828012  0.12484452
   0.68747689  0.29003844  0.38941746
   0.31401243  0.37267752  0.65449030
   0.31218726  0.20490968  0.34567349
   0.81285973  0.53759393  0.74331607
   0.68770425  0.95921649  0.83246755
   0.56350992  0.87254468  0.65421113
   0.31254691  0.70662058  0.56526102
   0.31298638  0.53546094  0.12479547
   0.68739228  0.95825304  0.21245389
   0.31252851  0.20695030  0.56540486
   0.18702882  0.95596584  0.47854583
   0.68848452  0.95665253  0.56535725
   0.43636096  0.78673756  0.61035331
   0.68643746  0.61642928  0.16753753
   0.31377345  0.87484971  0.30095297
   0.31267509  0.70518039  0.47860927
   0.93611593  0.28696385  0.61038563
   0.43958100  0.62533111  0.30130845
   0.81138600  0.86767594  0.16757272
   0.56359186  0.20729352  0.21241451
   0.93611643  0.61645329  0.16742630
   0.94007670  0.78881025  0.87488379
   0.56249035  0.36756775  0.78761106
   0.06194427  0.37152272  0.52135447
   0.31113403  0.36545982  0.16770884
   0.68875075  0.12482619  0.30096323
   0.43948602  0.95878038  0.83238048
   0.18792008  0.28861692  0.12509225
   0.18506016  0.29162008  0.25686079
   0.31256162  0.37223333  0.43458610
   0.56265866  0.03350544  0.12501363
   0.43610373  0.28706569  0.61025609
   0.18631269  0.45690165  0.34601815
   0.43655489  0.28868893  0.12511796
   0.68480397  0.79239895  0.25671320
   0.43692831  0.12141477  0.52128656
   0.18893887  0.29089503  0.87495744
   0.18877170  0.12301883  0.65446408
   0.93905435  0.12302111  0.65451782
   0.81260244  0.53978147  0.38973654
   0.06320817  0.03947346  0.38950552
   0.18675040  0.11676657  0.16708852
   0.06121219  0.53671378  0.61038268
   0.93536956  0.29208830  0.25680285
   0.56138376  0.53679389  0.61033447
   0.93743642  0.95740797  0.56528824
   0.68868316  0.62483553  0.30104648
   0.93741887  0.62315692  0.43473500
   0.93704422  0.61847221  0.78728899
   0.56201312  0.70672873  0.69905192
   0.06354971  0.71107158  0.83269768
   0.93870076  0.12484544  0.30092766
   0.93652321  0.78640605  0.61048618
   0.43504484  0.79166605  0.25685880
   0.31264597  0.36800380  0.78760502
   0.43840821  0.45831720  0.21241794
   0.18790368  0.12053897  0.52127799
   0.81193784  0.70681821  0.69900659
   0.06117428  0.03661345  0.61032546
   0.56269067  0.20940579  0.83241229
   0.31140934  0.87118015  0.52122863
   0.68743275  0.29033226  0.12508387
   0.18772768  0.95823252  0.21241011
   0.68559222  0.28749539  0.61036165
   0.31042151  0.03737619  0.61062369
   0.93774872  0.11793569  0.78765741
   0.43777516  0.79114169  0.87481132
   0.81287295  0.03828925  0.74320687
   0.93695031  0.45694999  0.69908637
   0.18891280  0.62258230  0.65442587
   0.31221382  0.70712026  0.69898949
   0.93735487  0.29016493  0.12509978
   0.43725392  0.45570391  0.47869358
   0.06246435  0.70554811  0.47857743
   0.93671517  0.12330976  0.43502303
   0.43792345  0.12527038  0.30107971
   0.18813684  0.12292038  0.43454512
   0.56307576  0.03463616  0.87486570
   0.18747060  0.95723451  0.56542409
   0.68762738  0.79021054  0.12523185
   0.56308609  0.53328240  0.12507628
   0.31272262  0.03966603  0.38967855
   0.68635534  0.11777216  0.16771816
   0.81316731  0.20724208  0.21228443
   0.06111766  0.54183718  0.25677886
   0.56225273  0.70546042  0.47860232
   0.43623926  0.78834158  0.12482111
   0.56357993  0.37533696  0.30107565
   0.43608930  0.95538985  0.34551944
   0.18724729  0.95703005  0.69910624
   0.43533748  0.61748246  0.16722236
   0.93834642  0.45831725  0.21252521
   0.06240748  0.53356199  0.12504094
   0.81316481  0.37143441  0.52133475
   0.93870941  0.62482868  0.30081296
   0.31087695  0.04132299  0.25643282
   0.68618733  0.78681886  0.61036636
   0.18859300  0.45930416  0.83268486
   0.43583697  0.11670056  0.16714292
   0.31160921  0.37100942  0.52129831
   0.43715909  0.61780695  0.78772048
   0.06025487  0.04155115  0.25672300
   0.56255889  0.70687848  0.56547928
   0.93771977  0.28741329  0.74332037
   0.68649337  0.11765459  0.78754823
   0.18779788  0.45829571  0.21242930
   0.93807133  0.79054481  0.38965074
   0.68710958  0.29225768  0.87493081
   0.56126471  0.86754630  0.16736895
   0.43690017  0.45682704  0.69906522
   0.93742117  0.95485543  0.34562258
   0.68662983  0.62179225  0.52127023
   0.06380910  0.87205394  0.65443387
   0.06251591  0.86835713  0.78743690
   0.06369125  0.37216208  0.65436639
   0.68785997  0.45560516  0.47871957
   0.18503524  0.79114850  0.25658038
   0.43755359  0.12220257  0.43455157
   0.81270760  0.03366648  0.12506875
   0.93709168  0.62127411  0.52133738
   0.06289673  0.87158278  0.43452354
   0.81266283  0.53364734  0.12486409
   0.43632283  0.45497146  0.34584878
   0.81273023  0.20550035  0.34581573
   0.31260172  0.70510945  0.34538042
   0.68851368  0.12272642  0.65449439
   0.56389604  0.87533043  0.30114320
   0.06304857  0.53749904  0.74341054
   0.93879454  0.95799400  0.21238050
   0.81296441  0.70719946  0.21225549
   0.06305078  0.87513933  0.30110309
   0.18859744  0.12563712  0.30110287
   0.06198777  0.70515530  0.34558417
   0.81131492  0.03670299  0.61033223
   0.06270212  0.37162985  0.43452965
   0.56193600  0.20582196  0.34591181
   0.81378839  0.37536962  0.30102670
   0.31121731  0.86615801  0.16737120
   0.56284476  0.54037967  0.38968218
   0.06281981  0.20561836  0.47866836
   0.31284467  0.86750286  0.78736177
   0.93694755  0.95706567  0.69903664
   0.06339942  0.37550579  0.30110162
   0.68858030  0.62290124  0.65446320
   0.68788682  0.45706730  0.56527699
   0.43743760  0.95844362  0.21244989
   0.31246323  0.20586252  0.47859109
   0.43922458  0.12258085  0.65433774
   0.68773071  0.62183408  0.43442961
   0.81213426  0.20675643  0.69911519
   0.81223504  0.70556936  0.47859530
   0.81244893  0.87279614  0.43459239
   0.93740978  0.95535729  0.47868465
   0.56253401  0.20569438  0.47863489
   0.18747103  0.62289115  0.43465194
   0.31267612  0.03838233  0.74331368
   0.93879094  0.62304605  0.65441265
   0.56389528  0.70957201  0.83245790
   0.31352839  0.37469138  0.30096960
   0.56300839  0.70741379  0.21231076
   0.18727673  0.45564522  0.47857212
   0.31457930  0.03711506  0.87466322
   0.18689709  0.45713438  0.69900193
   0.81285748  0.53522842  0.87505947
   0.18777692  0.29037252  0.38977822
   0.43745290  0.62295950  0.43460016
   0.06326087  0.70742619  0.21230880
   0.56292015  0.37376609  0.43499719
   0.43742981  0.62197077  0.52136362
   0.81375017  0.71034241  0.83220076
   0.06248888  0.36857653  0.78761974
   0.43770600  0.29178292  0.87513753
   0.31267383  0.03436094  0.12490470
   0.68766590  0.12088551  0.43447051
   0.18604342  0.95562566  0.34592408
   0.06362782  0.21015998  0.83285922
   0.56120607  0.03686296  0.61052717
   0.68738641  0.45815670  0.21261786
   0.18775860  0.78770231  0.74338403
   0.18897745  0.62578089  0.30133945
   0.43745820  0.79064936  0.38976418
   0.43449092  0.29209583  0.25670541
   0.06542959  0.53757239  0.87489827
   0.56326864  0.03762387  0.74343096
   0.18776841  0.79120098  0.87481515
   0.93736402  0.45563949  0.47857605
   0.56301509  0.53822429  0.74315022
   0.81174587  0.20678227  0.56504582
   0.18754690  0.61765642  0.78758668
   0.06335309  0.54019921  0.38947928
   0.06227186  0.70685113  0.69902926
   0.31039391  0.54072446  0.25625956
   0.31287683  0.70731900  0.21260545
   0.56063123  0.04185538  0.25664009
   0.31357502  0.20796832  0.21269191
   0.68627287  0.45435790  0.34577983
   0.93605684  0.29276278  0.87459131
   0.43740961  0.95584849  0.47863605
   0.06405626  0.03339998  0.87461047
   0.18772009  0.79150661  0.38990184
   0.81112006  0.36867334  0.16704860
   0.56226086  0.37104172  0.52135513
   0.93699984  0.12111158  0.52122343
   0.06362088  0.20603756  0.56546402
   0.31337858  0.53706763  0.74333984
Direct configuration=     3
   0.06220895  0.03494739  0.12519453
   0.31341442  0.87271164  0.65439155
   0.18775000  0.11893775  0.78755627
   0.43825809  0.29066569  0.38975887
   0.31398564  0.70810353  0.83225235
   0.81445395  0.20904023  0.83281496
   0.18788444  0.95894511  0.83260953
   0.56287068  0.20614484  0.56552710
   0.06253486  0.03796042  0.74333805
   0.81200983  0.87195086  0.52153824
   0.18812478  0.28836252  0.74336343
   0.93698666  0.45540356  0.34556675
   0.93714739  0.28996530  0.38976226
   0.81293105  0.03847227  0.87456503
   0.18647262  0.78756639  0.61022094
   0.56262700  0.04019009  0.38988469
   0.93931370  0.95924812  0.83273235
   0.31423366  0.53843535  0.87473606
   0.68826556  0.28791681  0.74333452
   0.18699173  0.61842021  0.16721878
   0.81161893  0.20615508  0.47843461
   0.81172176  0.53723095  0.61037772
   0.31256566  0.87226077  0.43458668
   0.81128299  0.04113742  0.25679995
   0.68668739  0.95577566  0.34557408
   0.93591427  0.11811165  0.16751318
   0.06272035  0.87213140  0.52159952
   0.56117115  0.54136361  0.25676571
   0.68763915  0.78938482  0.87464817
   0.56162728  0.36871492  0.16707954
   0.43779808  0.78814961  0.74333758
   0.81224268  0.70585003  0.56531961
   0.56266456  0.86875000  0.78750823
   0.68715260  0.12131385  0.52154086
   0.81340160  0.37257698  0.65452567
   0.93884009  0.45894373  0.83279418
   0.06220422  0.20646188  0.69907317
   0.43720686  0.95635820  0.69898650
   0.31344614  0.20765296  0.83285038
   0.43832843  0.62259093  0.65440537
   0.31153037  0.53776039  0.61032260
   0.93745799  0.45609218  0.56547092
   0.68781785  0.78832206  0.74339948
   0.93700940  0.78799477  0.12542729
   0.68820715  0.78960280  0.38967789
   0.93809681  0.78800920  0.74335426
   0.06225844  0.20558652  0.34556305
   0.81267692  0.04011898  0.38990893
   0.43768833  0.11891901  0.78762542
   0.06204821  0.20707253  0.21241866
   0.06119395  0.36841453  0.16717341
   0.93566397  0.79125030  0.25673695
   0.56231094  0.20619855  0.69904874
   0.68718697  0.95611653  0.69904756
   0.81205948  0.86887802  0.78745362
   0.43723973  0.95600769  0.56514319
   0.81277825  0.36922291  0.78751631
   0.68563098  0.29118483  0.25677525
   0.18758927  0.45640872  0.56537364
   0.06167005  0.86857800  0.16726956
   0.18660721  0.28761572  0.61022804
   0.56255282  0.70557274  0.34572793
   0.31226894  0.20627750  0.69909943
   0.56360738  0.53887168  0.87467730
   0.06250698  0.70601367  0.56533503
   0.68785389  0.61906573  0.78761714
   0.31243361  0.54037712  0.38976902
   0.18763614  0.62217047  0.52150482
   0.56264944  0.87254612  0.43468042
   0.43704013  0.45660817  0.56536975
   0.43807708  0.28845740  0.74335473
   0.81296177  0.87527756  0.30099791
   0.81206295  0.70560960  0.34573902
   0.43874596  0.45819659  0.83268237
   0.68813008  0.95597396  0.47840299
   0.68718584  0.45617246  0.69900022
   0.56248241  0.87166183  0.52150220
   0.56372955  0.37221222  0.65431068
   0.81353796  0.87255696  0.65442273
   0.81314115  0.37284918  0.43449841
   0.81131694  0.54109086  0.25675975
   0.68927267  0.45786340  0.83275343
   0.18825325  0.78703576  0.12515554
   0.68766250  0.28992632  0.38972799
   0.31352705  0.37259029  0.65446704
   0.31217763  0.20569071  0.34563260
   0.81303424  0.53758555  0.74329412
   0.68822988  0.95844646  0.83256998
   0.56330205  0.87250417  0.65431335
   0.31276729  0.70592995  0.56544685
   0.31267225  0.53646382  0.12502052
   0.68732326  0.95729894  0.21248627
   0.31295244  0.20648144  0.56546819
   0.18676054  0.95575282  0.47829804
   0.68831835  0.95615625  0.56546414
   0.43650563  0.78752831  0.61018901
   0.68627329  0.61756254  0.16744442
   0.31317045  0.87444651  0.30093244
   0.31249159  0.70478667  0.47837853
   0.93637841  0.28743053  0.61025684
   0.43889281  0.62472618  0.30109784
   0.81154498  0.86832477  0.16732361
   0.56338578  0.20684432  0.21239010
   0.93660729  0.61745767  0.16737505
   0.93888371  0.78785354  0.87476714
   0.56255488  0.36880243  0.78757548
   0.06223089  0.37211296  0.52154001
   0.31135024  0.36697282  0.16744797
   0.68829080  0.12514564  0.30112066
   0.43920739  0.95786165  0.83252914
   0.18810972  0.28727387  0.12531343
   0.18561574  0.29116268  0.25682646
   0.31262367  0.37255364  0.43452874
   0.56286517  0.03498611  0.12520092
   0.43654682  0.28768576  0.61015274
   0.18668628  0.45631293  0.34575126
   0.43627237  0.28730897  0.12531747
   0.68578025  0.79176090  0.25671786
   0.43681342  0.12226011  0.52151305
   0.18932377  0.28975025  0.87489092
   0.18830417  0.12270465  0.65449575
   0.93853216  0.12252348  0.65449478
   0.81273116  0.53959975  0.38987052
   0.06231623  0.03991706  0.38973910
   0.18645824  0.11771068  0.16710461
   0.06159387  0.53730286  0.61023028
   0.93585235  0.29150771  0.25673426
   0.56157718  0.53757010  0.61016699
   0.93739270  0.95612659  0.56543157
   0.68833207  0.62485491  0.30100173
   0.93758883  0.62285577  0.43466806
   0.93726061  0.61995761  0.78737959
   0.56210891  0.70601374  0.69903776
   0.06362043  0.70974967  0.83268351
   0.93830118  0.12501844  0.30100537
   0.93661289  0.78722549  0.61030280
   0.43567131  0.79114470  0.25686523
   0.31276423  0.36887170  0.78756032
   0.43820236  0.45783508  0.21242669
   0.18783421  0.12126205  0.52150840
   0.81212510  0.70634161  0.69904773
   0.06125386  0.03742205  0.61020827
   0.56288754  0.20806348  0.83245321
   0.31183028  0.87160896  0.52147269
   0.68748847  0.28779570  0.12524633
   0.18722287  0.95764932  0.21241421
   0.68636356  0.28777566  0.61025950
   0.31152123  0.03747404  0.61035325
   0.93766310  0.11922290  0.78768334
   0.43823658  0.78931369  0.87465962
   0.81291065  0.03824268  0.74324393
   0.93726585  0.45620238  0.69910523
   0.18853658  0.62228506  0.65439351
   0.31229263  0.70645544  0.69898703
   0.93713482  0.28773738  0.12527790
   0.43722062  0.45569579  0.47846013
   0.06248073  0.70518073  0.47840059
   0.93706714  0.12251057  0.43488903
   0.43789692  0.12486888  0.30106918
   0.18812151  0.12240344  0.43447039
   0.56361886  0.03720801  0.87469246
   0.18732468  0.95637485  0.56555162
   0.68742942  0.78783475  0.12543412
   0.56314029  0.53486990  0.12521232
   0.31300957  0.03986455  0.38982758
   0.68663432  0.11824494  0.16748671
   0.81281124  0.20676641  0.21239802
   0.06116428  0.54123130  0.25677835
   0.56231318  0.70484567  0.47840730
   0.43658379  0.78699569  0.12515019
   0.56322535  0.37497707  0.30106533
   0.43661600  0.95591297  0.34560735
   0.18728228  0.95642170  0.69909161
   0.43572376  0.61872811  0.16720961
   0.93831732  0.45757867  0.21257372
   0.06199585  0.53509809  0.12517533
   0.81277169  0.37220660  0.52160734
   0.93822752  0.62497206  0.30091010
   0.31093929  0.04081586  0.25661314
   0.68653470  0.78746233  0.61021087
   0.18853892  0.45850014  0.83282703
   0.43625792  0.11780164  0.16719269
   0.31171715  0.37149512  0.52159708
   0.43757852  0.61873318  0.78762921
   0.06070270  0.04095074  0.25671490
   0.56237754  0.70595647  0.56554994
   0.93796580  0.28776855  0.74332868
   0.68703950  0.11891858  0.78746877
   0.18716038  0.45773860  0.21240898
   0.93768363  0.79017623  0.38978547
   0.68725418  0.29008991  0.87485540
   0.56099275  0.86852026  0.16723322
   0.43725857  0.45625185  0.69904128
   0.93738889  0.95567043  0.34558650
   0.68697596  0.62246422  0.52153609
   0.06333534  0.87198303  0.65451562
   0.06269528  0.86915013  0.78747959
   0.06331150  0.37222143  0.65437366
   0.68789931  0.45546580  0.47846224
   0.18569201  0.79119678  0.25669869
   0.43761562  0.12272724  0.43447980
   0.81253821  0.03579091  0.12531935
   0.93715229  0.62198342  0.52152292
   0.06283184  0.87238049  0.43453142
   0.81255725  0.53552358  0.12499599
   0.43639507  0.45551797  0.34572211