 288 288   0   0
  0.1280206E+02  0.9726678E-09  0.8423550E-09  0.4500000E-08  0.2500000E-15
  1.000000000000000E-004
  CAR 
 unknown system                          
      6.79301639     -6.01626559  301      4.29402707      1.00000000
     -6.016  0.0000E+00  0.0000E+00
     -5.974  0.0000E+00  0.0000E+00
     -5.931  0.0000E+00  0.0000E+00
     -5.888  0.0000E+00  0.0000E+00
     -5.845  0.0000E+00  0.0000E+00
     -5.803  0.0000E+00  0.0000E+00
     -5.760  0.0000E+00  0.0000E+00
     -5.717  0.0000E+00  0.0000E+00
     -5.675  0.0000E+00  0.0000E+00
     -5.632  0.0000E+00  0.0000E+00
     -5.589  0.0000E+00  0.0000E+00
     -5.547  0.0000E+00  0.0000E+00
     -5.504  0.0000E+00  0.0000E+00
     -5.461  0.0000E+00  0.0000E+00
     -5.418  0.0000E+00  0.0000E+00
     -5.376  0.1625E-15  0.6939E-17
     -5.333  0.3803E-14  0.1693E-15
     -5.290  0.8168E-13  0.3657E-14
     -5.248  0.1492E-11  0.6735E-13
     -5.205  0.2323E-10  0.1059E-11
     -5.162  0.3084E-09  0.1423E-10
     -5.120  0.3491E-08  0.1633E-09
     -5.077  0.3372E-07  0.1603E-08
     -5.034  0.2781E-06  0.1348E-07
     -4.992  0.1960E-05  0.9717E-07
     -4.949  0.1182E-04  0.6018E-06
     -4.906  0.6108E-04  0.3210E-05
     -4.863  0.2712E-03  0.1479E-04
     -4.821  0.1038E-02  0.5909E-04
     -4.778  0.3437E-02  0.2058E-03
     -4.735  0.9911E-02  0.6290E-03
     -4.693  0.2508E-01  0.1700E-02
     -4.650  0.5620E-01  0.4100E-02
     -4.607  0.1128E+00  0.8915E-02
     -4.565  0.2049E+00  0.1766E-01
     -4.522  0.3407E+00  0.3221E-01
     -4.479  0.5226E+00  0.5452E-01
     -4.436  0.7445E+00  0.8631E-01
     -4.394  0.9898E+00  0.1286E+00
     -4.351  0.1234E+01  0.1812E+00
     -4.308  0.1449E+01  0.2431E+00
     -4.266  0.1615E+01  0.3120E+00
     -4.223  0.1723E+01  0.3856E+00
     -4.180  0.1786E+01  0.4619E+00
     -4.138  0.1834E+01  0.5402E+00
     -4.095  0.1908E+01  0.6216E+00
     -4.052  0.2041E+01  0.7088E+00
     -4.009  0.2248E+01  0.8048E+00
     -3.967  0.2512E+01  0.9120E+00
     -3.924  0.2791E+01  0.1031E+01
     -3.881  0.3030E+01  0.1161E+01
     -3.839  0.3180E+01  0.1296E+01
     -3.796  0.3220E+01  0.1434E+01
     -3.753  0.3170E+01  0.1569E+01
     -3.711  0.3081E+01  0.1701E+01
     -3.668  0.3019E+01  0.1830E+01
     -3.625  0.3040E+01  0.1960E+01
     -3.583  0.3167E+01  0.2095E+01
     -3.540  0.3383E+01  0.2239E+01
     -3.497  0.3635E+01  0.2394E+01
     -3.454  0.3866E+01  0.2559E+01
     -3.412  0.4032E+01  0.2732E+01
     -3.369  0.4120E+01  0.2908E+01
     -3.326  0.4148E+01  0.3085E+01
     -3.284  0.4145E+01  0.3262E+01
     -3.241  0.4150E+01  0.3439E+01
     -3.198  0.4191E+01  0.3618E+01
     -3.156  0.4285E+01  0.3801E+01
     -3.113  0.4432E+01  0.3990E+01
     -3.070  0.4622E+01  0.4187E+01
     -3.027  0.4830E+01  0.4394E+01
     -2.985  0.5026E+01  0.4608E+01
     -2.942  0.5182E+01  0.4829E+01
     -2.899  0.5283E+01  0.5055E+01
     -2.857  0.5339E+01  0.5283E+01
     -2.814  0.5380E+01  0.5513E+01
     -2.771  0.5439E+01  0.5745E+01
     -2.729  0.5537E+01  0.5981E+01
     -2.686  0.5652E+01  0.6223E+01
     -2.643  0.5726E+01  0.6467E+01
     -2.600  0.5699E+01  0.6710E+01
     -2.558  0.5566E+01  0.6948E+01
     -2.515  0.5407E+01  0.7179E+01
     -2.472  0.5365E+01  0.7408E+01
     -2.430  0.5566E+01  0.7646E+01
     -2.387  0.6037E+01  0.7903E+01
     -2.344  0.6671E+01  0.8188E+01
     -2.302  0.7266E+01  0.8498E+01
     -2.259  0.7616E+01  0.8824E+01
     -2.216  0.7623E+01  0.9149E+01
     -2.173  0.7347E+01  0.9463E+01
     -2.131  0.6980E+01  0.9761E+01
     -2.088  0.6758E+01  0.1005E+02
     -2.045  0.6839E+01  0.1034E+02
     -2.003  0.7238E+01  0.1065E+02
     -1.960  0.7824E+01  0.1098E+02
     -1.917  0.8397E+01  0.1134E+02
     -1.875  0.8779E+01  0.1172E+02
     -1.832  0.8900E+01  0.1210E+02
     -1.789  0.8821E+01  0.1247E+02
     -1.747  0.8688E+01  0.1285E+02
     -1.704  0.8642E+01  0.1321E+02
     -1.661  0.8745E+01  0.1359E+02
     -1.618  0.8971E+01  0.1397E+02
     -1.576  0.9249E+01  0.1437E+02
     -1.533  0.9527E+01  0.1477E+02
     -1.490  0.9795E+01  0.1519E+02
     -1.448  0.1005E+02  0.1562E+02
     -1.405  0.1027E+02  0.1606E+02
     -1.362  0.1043E+02  0.1650E+02
     -1.320  0.1052E+02  0.1695E+02
     -1.277  0.1066E+02  0.1741E+02
     -1.234  0.1107E+02  0.1788E+02
     -1.191  0.1187E+02  0.1839E+02
     -1.149  0.1303E+02  0.1894E+02
     -1.106  0.1427E+02  0.1955E+02
     -1.063  0.1520E+02  0.2020E+02
     -1.021  0.1562E+02  0.2087E+02
     -0.978  0.1561E+02  0.2154E+02
     -0.935  0.1554E+02  0.2220E+02
     -0.893  0.1583E+02  0.2288E+02
     -0.850  0.1673E+02  0.2359E+02
     -0.807  0.1823E+02  0.2437E+02
     -0.764  0.2023E+02  0.2523E+02
     -0.722  0.2271E+02  0.2620E+02
     -0.679  0.2584E+02  0.2731E+02
     -0.636  0.2981E+02  0.2858E+02
     -0.594  0.3451E+02  0.3005E+02
     -0.551  0.3946E+02  0.3174E+02
     -0.508  0.4399E+02  0.3361E+02
     -0.466  0.4763E+02  0.3565E+02
     -0.423  0.5031E+02  0.3780E+02
     -0.380  0.5230E+02  0.4003E+02
     -0.337  0.5391E+02  0.4233E+02
     -0.295  0.5526E+02  0.4469E+02
     -0.252  0.5626E+02  0.4709E+02
     -0.209  0.5683E+02  0.4952E+02
     -0.167  0.5699E+02  0.5195E+02
     -0.124  0.5689E+02  0.5438E+02
     -0.081  0.5680E+02  0.5681E+02
     -0.039  0.5697E+02  0.5924E+02
      0.004  0.5763E+02  0.6170E+02
      0.047  0.5896E+02  0.6422E+02
      0.089  0.6105E+02  0.6682E+02
      0.132  0.6385E+02  0.6955E+02
      0.175  0.6721E+02  0.7242E+02
      0.218  0.7092E+02  0.7545E+02
      0.260  0.7469E+02  0.7864E+02
      0.303  0.7821E+02  0.8198E+02
      0.346  0.8123E+02  0.8544E+02
      0.388  0.8358E+02  0.8901E+02
      0.431  0.8530E+02  0.9266E+02
      0.474  0.8647E+02  0.9635E+02
      0.516  0.8716E+02  0.1001E+03
      0.559  0.8736E+02  0.1038E+03
      0.602  0.8708E+02  0.1075E+03
      0.645  0.8638E+02  0.1112E+03
      0.687  0.8534E+02  0.1148E+03
      0.730  0.8397E+02  0.1184E+03
      0.773  0.8224E+02  0.1219E+03
      0.815  0.8024E+02  0.1254E+03
      0.858  0.7826E+02  0.1287E+03
      0.901  0.7670E+02  0.1320E+03
      0.943  0.7584E+02  0.1352E+03
      0.986  0.7571E+02  0.1385E+03
      1.029  0.7601E+02  0.1417E+03
      1.072  0.7631E+02  0.1450E+03
      1.114  0.7627E+02  0.1482E+03
      1.157  0.7580E+02  0.1515E+03
      1.200  0.7505E+02  0.1547E+03
      1.242  0.7423E+02  0.1578E+03
      1.285  0.7349E+02  0.1610E+03
      1.328  0.7280E+02  0.1641E+03
      1.370  0.7201E+02  0.1672E+03
      1.413  0.7093E+02  0.1702E+03
      1.456  0.6946E+02  0.1731E+03
      1.499  0.6778E+02  0.1760E+03
      1.541  0.6634E+02  0.1789E+03
      1.584  0.6574E+02  0.1817E+03
      1.627  0.6638E+02  0.1845E+03
      1.669  0.6829E+02  0.1874E+03
      1.712  0.7108E+02  0.1905E+03
      1.755  0.7425E+02  0.1936E+03
      1.797  0.7741E+02  0.1969E+03
      1.840  0.8036E+02  0.2004E+03
      1.883  0.8304E+02  0.2039E+03
      1.925  0.8544E+02  0.2076E+03
      1.968  0.8757E+02  0.2113E+03
      2.011  0.8950E+02  0.2151E+03
      2.054  0.9127E+02  0.2190E+03
      2.096  0.9281E+02  0.2230E+03
      2.139  0.9406E+02  0.2270E+03
      2.182  0.9506E+02  0.2311E+03
      2.224  0.9612E+02  0.2352E+03
      2.267  0.9770E+02  0.2393E+03
      2.310  0.1002E+03  0.2436E+03
      2.352  0.1037E+03  0.2480E+03
      2.395  0.1080E+03  0.2527E+03
      2.438  0.1125E+03  0.2575E+03
      2.481  0.1167E+03  0.2624E+03
      2.523  0.1201E+03  0.2676E+03
      2.566  0.1228E+03  0.2728E+03
      2.609  0.1250E+03  0.2781E+03
      2.651  0.1269E+03  0.2836E+03
      2.694  0.1288E+03  0.2891E+03
      2.737  0.1309E+03  0.2947E+03
      2.779  0.1332E+03  0.3003E+03
      2.822  0.1358E+03  0.3061E+03
      2.865  0.1386E+03  0.3121E+03
      2.908  0.1410E+03  0.3181E+03
      2.950  0.1420E+03  0.3241E+03
      2.993  0.1407E+03  0.3302E+03
      3.036  0.1365E+03  0.3360E+03
      3.078  0.1298E+03  0.3415E+03
      3.121  0.1213E+03  0.3467E+03
      3.164  0.1122E+03  0.3515E+03
      3.206  0.1037E+03  0.3559E+03
      3.249  0.9679E+02  0.3601E+03
      3.292  0.9168E+02  0.3640E+03
      3.335  0.8828E+02  0.3677E+03
      3.377  0.8618E+02  0.3714E+03
      3.420  0.8496E+02  0.3750E+03
      3.463  0.8421E+02  0.3786E+03
      3.505  0.8363E+02  0.3822E+03
      3.548  0.8302E+02  0.3858E+03
      3.591  0.8243E+02  0.3893E+03
      3.633  0.8224E+02  0.3928E+03
      3.676  0.8300E+02  0.3963E+03
      3.719  0.8510E+02  0.4000E+03
      3.761  0.8854E+02  0.4037E+03
      3.804  0.9285E+02  0.4077E+03
      3.847  0.9733E+02  0.4119E+03
      3.890  0.1014E+03  0.4162E+03
      3.932  0.1047E+03  0.4207E+03
      3.975  0.1071E+03  0.4252E+03
      4.018  0.1085E+03  0.4299E+03
      4.060  0.1091E+03  0.4345E+03
      4.103  0.1088E+03  0.4392E+03
      4.146  0.1080E+03  0.4438E+03
      4.188  0.1069E+03  0.4483E+03
      4.231  0.1056E+03  0.4529E+03
      4.274  0.1043E+03  0.4573E+03
      4.317  0.1032E+03  0.4617E+03
      4.359  0.1024E+03  0.4661E+03
      4.402  0.1018E+03  0.4704E+03
      4.445  0.1014E+03  0.4748E+03
      4.487  0.1008E+03  0.4791E+03
      4.530  0.9981E+02  0.4833E+03
      4.573  0.9852E+02  0.4875E+03
      4.615  0.9738E+02  0.4917E+03
      4.658  0.9693E+02  0.4958E+03
      4.701  0.9753E+02  0.5000E+03
      4.744  0.9917E+02  0.5042E+03
      4.786  0.1016E+03  0.5086E+03
      4.829  0.1042E+03  0.5130E+03
      4.872  0.1067E+03  0.5176E+03
      4.914  0.1085E+03  0.5222E+03
      4.957  0.1094E+03  0.5269E+03
      5.000  0.1088E+03  0.5315E+03
      5.042  0.1061E+03  0.5361E+03
      5.085  0.1003E+03  0.5403E+03
      5.128  0.9051E+02  0.5442E+03
      5.171  0.7673E+02  0.5475E+03
      5.213  0.6019E+02  0.5501E+03
      5.256  0.4312E+02  0.5519E+03
      5.299  0.2793E+02  0.5531E+03
      5.341  0.1621E+02  0.5538E+03
      5.384  0.8389E+01  0.5541E+03
      5.427  0.3849E+01  0.5543E+03
      5.469  0.1560E+01  0.5544E+03
      5.512  0.5572E+00  0.5544E+03
      5.555  0.1749E+00  0.5544E+03
      5.597  0.4811E-01  0.5544E+03
      5.640  0.1159E-01  0.5544E+03
      5.683  0.2439E-02  0.5544E+03
      5.726  0.4480E-03  0.5544E+03
      5.768  0.7171E-04  0.5544E+03
      5.811  0.9986E-05  0.5544E+03
      5.854  0.1208E-05  0.5544E+03
      5.896  0.1268E-06  0.5544E+03
      5.939  0.1153E-07  0.5544E+03
      5.982  0.9064E-09  0.5544E+03
      6.024  0.6154E-10  0.5544E+03
      6.067  0.3601E-11  0.5544E+03
      6.110  0.1805E-12  0.5544E+03
      6.153  0.7411E-14  0.5544E+03
      6.195  0.1950E-15  0.5544E+03
      6.238  0.0000E+00  0.5544E+03
      6.281  0.0000E+00  0.5544E+03
      6.323  0.0000E+00  0.5544E+03
      6.366  0.0000E+00  0.5544E+03
      6.409  0.0000E+00  0.5544E+03
      6.451  0.0000E+00  0.5544E+03
      6.494  0.0000E+00  0.5544E+03
      6.537  0.0000E+00  0.5544E+03
      6.580  0.0000E+00  0.5544E+03
      6.622  0.0000E+00  0.5544E+03
      6.665  0.0000E+00  0.5544E+03
      6.708  0.0000E+00  0.5544E+03
      6.750  0.0000E+00  0.5544E+03
      6.793  0.0000E+00  0.5544E+03
