<?xml version="1.0" encoding="ISO-8859-1"?>
<modeling>
 <generator>
  <i name="program" type="string">vasp </i>
  <i name="version" type="string">5.4.4.18Apr17-6-g9f103f2a35  </i>
  <i name="subversion" type="string">(build Sep 27 2018 12:46:37) complex + VL-xray_ parallel </i>
  <i name="platform" type="string">LLNL_Quartz_ifc </i>
  <i name="date" type="string">2021 09 26 </i>
  <i name="time" type="string">18:40:30 </i>
 </generator>
 <incar>
  <i type="int" name="ISTART">     2</i>
  <i type="string" name="PREC">accurate</i>
  <i type="string" name="ALGO"> Fast</i>
  <i type="int" name="ICHARG">     2</i>
  <i type="int" name="INIWAV">     1</i>
  <i type="int" name="NELM">   200</i>
  <i type="int" name="NELMIN">     4</i>
  <i type="int" name="IBRION">     2</i>
  <i name="EDIFF">      0.00000100</i>
  <i type="int" name="NSW">     5</i>
  <i type="int" name="ISIF">     2</i>
  <i type="int" name="ISYM">     2</i>
  <i name="ENCUT">    450.00000000</i>
  <i name="POTIM">      0.25000000</i>
  <i type="string" name="LREAL"> Auto</i>
  <i type="int" name="ISMEAR">     0</i>
  <i name="SIGMA">      0.15000000</i>
  <i type="logical" name="LWAVE"> F  </i>
  <i type="logical" name="LCHARG"> F  </i>
  <i type="int" name="ICORELEVEL">     0</i>
  <i type="int" name="CLNT">     1</i>
  <i type="int" name="CLN">     1</i>
  <i type="int" name="INCAR     ">     0</i>
  <i name="CLZ">      0.00000000</i>
  <v type="int" name="KPOINT_BSE">    -1     0     0     0</v>
  <i type="int" name="NELM">   200</i>
 </incar>
 <structure name="primitive_cell" >
  <crystal>
   <varray name="basis" >
    <v>       9.72667804       0.00000000       0.00000000 </v>
    <v>       0.00000000       8.42355028       0.00000000 </v>
    <v>       0.00000000       0.00000000      45.00000000 </v>
   </varray>
   <i name="volume">   3686.99226691 </i>
   <varray name="rec_basis" >
    <v>       0.10281002       0.00000000       0.00000000 </v>
    <v>       0.00000000       0.11871479       0.00000000 </v>
    <v>       0.00000000       0.00000000       0.02222222 </v>
   </varray>
  </crystal>
  <varray name="positions" >
   <v>       0.05394659      -0.29903755       0.21124653 </v>
   <v>      -0.05941557      -0.21222795       0.25520326 </v>
   <v>      -0.05855943      -0.38776585       0.16659526 </v>
   <v>       0.06540932      -0.46221374       0.25525437 </v>
   <v>       0.17873674       0.45167416       0.21137958 </v>
   <v>      -0.07076711       0.45151901       0.21123944 </v>
   <v>       0.06689793      -0.13768266       0.16661378 </v>
   <v>      -0.19611387      -0.29906402       0.21130882 </v>
   <v>       0.30404122      -0.29895795       0.21117207 </v>
   <v>       0.17895640      -0.04879563       0.21121623 </v>
   <v>      -0.07126895      -0.04852262       0.21127084 </v>
   <v>       0.19076584      -0.21259453       0.25531910 </v>
   <v>       0.19132052      -0.38856692       0.16652744 </v>
   <v>      -0.18383408      -0.46216859       0.25529445 </v>
   <v>      -0.18285081      -0.13753357       0.16658664 </v>
   <v>       0.06545360       0.03768769       0.25513218 </v>
   <v>       0.06768096       0.36236097       0.16659572 </v>
   <v>       0.31536624      -0.46222939       0.25512927 </v>
   <v>       0.31680967      -0.13801250       0.16662863 </v>
   <v>      -0.30903772      -0.21265514       0.25541970 </v>
   <v>      -0.30826379      -0.38747389       0.16671571 </v>
   <v>      -0.06436227      -0.21770709       0.12414305 </v>
   <v>      -0.05831526       0.11195252       0.16641639 </v>
   <v>      -0.05939477       0.28743255       0.25521336 </v>
   <v>      -0.18502207       0.03778814       0.25513628 </v>
   <v>       0.18604094      -0.21700307       0.12423611 </v>
   <v>      -0.18233481       0.36168626       0.16663420 </v>
   <v>       0.05722343      -0.47303745       0.12408499 </v>
   <v>       0.17840577      -0.37644753       0.29941861 </v>
   <v>      -0.32104386       0.45133996       0.21123842 </v>
   <v>       0.42912580       0.45155695       0.21154406 </v>
   <v>       0.05458876       0.20091709       0.21120643 </v>
   <v>       0.42867252      -0.04853571       0.21138118 </v>
   <v>      -0.07216317      -0.37635363       0.29961381 </v>
   <v>      -0.32110633      -0.04845850       0.21133989 </v>
   <v>       0.19068868       0.28720506       0.25518443 </v>
   <v>       0.19254590       0.11190143       0.16658927 </v>
   <v>       0.05295740      -0.12618986       0.29949812 </v>
   <v>       0.31529679       0.03785157       0.25524251 </v>
   <v>       0.44097132      -0.21248321       0.25539910 </v>
   <v>       0.44165826      -0.38899898       0.16652803 </v>
   <v>       0.31866329       0.36273210       0.16584134 </v>
   <v>       0.05755447       0.02635457       0.12396536 </v>
   <v>      -0.19125700      -0.47213891       0.12398269 </v>
   <v>       0.05273135       0.37379306       0.29956370 </v>
   <v>      -0.44569948      -0.29928531       0.21118000 </v>
   <v>      -0.19582510       0.20107512       0.21121365 </v>
   <v>       0.30454767       0.20060970       0.21119686 </v>
   <v>       0.30842267      -0.47391091       0.12395520 </v>
   <v>       0.30296284      -0.12604323       0.29954480 </v>
   <v>      -0.19664696      -0.12657238       0.29942230 </v>
   <v>      -0.43256860      -0.13799186       0.16658992 </v>
   <v>      -0.43434892      -0.46247829       0.25513783 </v>
   <v>      -0.30837973       0.11226785       0.16642969 </v>
   <v>      -0.30882471       0.28742894       0.25526050 </v>
   <v>      -0.31385261      -0.21724455       0.12416942 </v>
   <v>      -0.19196220       0.02696742       0.12391654 </v>
   <v>       0.30758341       0.02635327       0.12388563 </v>
   <v>      -0.06442942       0.28240860       0.12423687 </v>
   <v>       0.30275458       0.37406173       0.29965392 </v>
   <v>      -0.19703732       0.37358366       0.29949255 </v>
   <v>       0.18608168       0.28276334       0.12425983 </v>
   <v>       0.42819011      -0.37633332       0.29937384 </v>
   <v>      -0.32234693      -0.37637985       0.29962121 </v>
   <v>       0.43680972      -0.21683177       0.12422066 </v>
   <v>       0.17801684       0.12346967       0.29955519 </v>
   <v>      -0.07176686       0.12337345       0.29964130 </v>
   <v>       0.44072314       0.28703058       0.25507750 </v>
   <v>       0.44167686       0.11203720       0.16651614 </v>
   <v>      -0.43482346       0.03777854       0.25508591 </v>
   <v>      -0.43356635       0.36235193       0.16645794 </v>
   <v>       0.06496077      -0.29136209       0.34383044 </v>
   <v>      -0.31269198       0.28214634       0.12424280 </v>
   <v>      -0.44155917      -0.47233662       0.12384123 </v>
   <v>      -0.18549033      -0.29212380       0.34375028 </v>
   <v>      -0.06013470       0.45950742       0.34400894 </v>
   <v>      -0.44574364       0.20098358       0.21111707 </v>
   <v>      -0.44711147      -0.12614851       0.29958158 </v>
   <v>       0.18983143       0.45881283       0.34402515 </v>
   <v>       0.43629458       0.28316633       0.12400856 </v>
   <v>       0.42797274       0.12351641       0.29949575 </v>
   <v>      -0.05975836      -0.04078417       0.34407071 </v>
   <v>      -0.32201096       0.12365786       0.29952483 </v>
   <v>       0.31492212      -0.29066545       0.34399034 </v>
   <v>       0.18998779      -0.04120224       0.34401150 </v>
   <v>      -0.44136121       0.02649387       0.12399220 </v>
   <v>      -0.44698464       0.37369378       0.29959616 </v>
   <v>      -0.31032324       0.45881066       0.34398066 </v>
   <v>       0.06464590       0.20852515       0.34382480 </v>
   <v>      -0.30986846      -0.04086590       0.34400480 </v>
   <v>       0.43941500       0.45847244       0.34395854 </v>
   <v>       0.44000783      -0.04103211       0.34405625 </v>
   <v>      -0.18536997       0.20826208       0.34387221 </v>
   <v>      -0.43531994      -0.29131334       0.34392987 </v>
   <v>       0.31476915       0.20897891       0.34395209 </v>
   <v>       0.06139350      -0.45840528       0.38841637 </v>
   <v>      -0.06387490      -0.20870389       0.38843747 </v>
   <v>       0.18612798      -0.20876147       0.38829085 </v>
   <v>      -0.18863523      -0.45792414       0.38828808 </v>
   <v>       0.31127250      -0.45849152       0.38845864 </v>
   <v>       0.06125204       0.04154769       0.38841334 </v>
   <v>      -0.43509484       0.20907590       0.34391546 </v>
   <v>      -0.06329236       0.29145672       0.38847244 </v>
   <v>      -0.31353296      -0.20858884       0.38844059 </v>
   <v>       0.18600452       0.29099768       0.38836772 </v>
   <v>      -0.18898598       0.04162136       0.38822788 </v>
   <v>       0.43623502      -0.20910209       0.38841736 </v>
   <v>       0.31155085       0.04139827       0.38841736 </v>
   <v>      -0.31330389       0.29147045       0.38840258 </v>
   <v>      -0.43869339      -0.45820592       0.38844981 </v>
   <v>       0.43606661       0.29127316       0.38838088 </v>
   <v>      -0.43846671       0.04159044       0.38839339 </v>
   <v>      -0.06701998      -0.37490339       0.43317671 </v>
   <v>       0.18343928      -0.37504452       0.43312731 </v>
   <v>       0.05856538      -0.12484245       0.43303540 </v>
   <v>       0.05864519       0.37482115       0.43287672 </v>
   <v>      -0.19133193      -0.12503002       0.43303497 </v>
   <v>       0.30870307      -0.12468415       0.43301408 </v>
   <v>      -0.19142619       0.37538150       0.43304920 </v>
   <v>      -0.31791824      -0.37587544       0.43304133 </v>
   <v>       0.30885588       0.37491725       0.43288240 </v>
   <v>       0.43390127      -0.37520913       0.43288721 </v>
   <v>      -0.06615206       0.12540616       0.43312328 </v>
   <v>       0.18335976       0.12499330       0.43308585 </v>
   <v>      -0.44088556      -0.12498437       0.43298481 </v>
   <v>      -0.31608533       0.12494293       0.43289930 </v>
   <v>       0.43338280       0.12487404       0.43294308 </v>
   <v>      -0.44145694       0.37496063       0.43308120 </v>
   <v>       0.06794350      -0.28964923       0.47734633 </v>
   <v>      -0.05768757       0.46076965       0.47723501 </v>
   <v>      -0.18216852      -0.28927308       0.47747780 </v>
   <v>      -0.05732073      -0.03940966       0.47730026 </v>
   <v>       0.19262572       0.46089211       0.47746459 </v>
   <v>       0.31751120      -0.28953284       0.47724690 </v>
   <v>       0.19253397      -0.03932966       0.47739458 </v>
   <v>      -0.30721198       0.46073840       0.47729047 </v>
   <v>      -0.30758442      -0.03943025       0.47730458 </v>
   <v>       0.06788019       0.21051795       0.47740556 </v>
   <v>       0.44278084       0.46079624       0.47746413 </v>
   <v>       0.44256902      -0.03935056       0.47747190 </v>
   <v>      -0.18231381       0.21059202       0.47745411 </v>
   <v>      -0.43240888      -0.28943404       0.47741828 </v>
   <v>       0.31766584       0.21035088       0.47732639 </v>
   <v>      -0.43223590       0.21051120       0.47750272 </v>
   <v>       0.05729761      -0.46093503      -0.47748156 </v>
   <v>      -0.06767748      -0.21104030      -0.47748634 </v>
   <v>       0.18226492      -0.21054799      -0.47747240 </v>
   <v>      -0.19278783      -0.46054055      -0.47748043 </v>
   <v>       0.30695908      -0.46123432      -0.47755743 </v>
   <v>       0.05699128       0.03919731      -0.47748604 </v>
   <v>      -0.31798612      -0.21126765      -0.47768356 </v>
   <v>      -0.06776332       0.28893130      -0.47749402 </v>
   <v>       0.18256156       0.28951875      -0.47749150 </v>
   <v>       0.30732328       0.03839856      -0.47771383 </v>
   <v>       0.43169339      -0.21078268      -0.47755039 </v>
   <v>      -0.19262598       0.03940747      -0.47731609 </v>
   <v>      -0.31761214       0.28836374      -0.47750657 </v>
   <v>      -0.44281833      -0.46069158      -0.47747907 </v>
   <v>       0.43230572       0.28883899      -0.47766861 </v>
   <v>       0.06771176      -0.27670568      -0.12378130 </v>
   <v>      -0.44277127       0.03911967      -0.47744413 </v>
   <v>      -0.18289765      -0.27617774      -0.12367880 </v>
   <v>      -0.06022852       0.46844647      -0.12388983 </v>
   <v>       0.18974104       0.46802978      -0.12389045 </v>
   <v>      -0.06033641      -0.03160451      -0.12384294 </v>
   <v>       0.31838705      -0.27632129      -0.12371786 </v>
   <v>       0.18968834      -0.03196422      -0.12388625 </v>
   <v>       0.06812671       0.22314810      -0.12383920 </v>
   <v>      -0.31014133       0.46783870      -0.12391207 </v>
   <v>      -0.31015500      -0.03162271      -0.12391522 </v>
   <v>       0.43993243       0.46797499      -0.12408412 </v>
   <v>       0.43966117      -0.03215491      -0.12391460 </v>
   <v>      -0.18241454       0.22385662      -0.12380788 </v>
   <v>      -0.43246245      -0.27528613      -0.12377680 </v>
   <v>       0.31751719       0.22365240      -0.12385901 </v>
   <v>      -0.05855562      -0.37477571      -0.43317525 </v>
   <v>       0.06660862      -0.12502768      -0.43314220 </v>
   <v>       0.19166609      -0.37504111      -0.43308526 </v>
   <v>      -0.18324849      -0.12487453      -0.43309018 </v>
   <v>       0.06654138       0.37498880      -0.43311921 </v>
   <v>       0.31658894      -0.12528871      -0.43317439 </v>
   <v>      -0.43172656       0.22393718      -0.12388318 </v>
   <v>      -0.30841438      -0.37500586      -0.43309546 </v>
   <v>      -0.18337967       0.37502139      -0.43308728 </v>
   <v>      -0.05830382       0.12514124      -0.43324708 </v>
   <v>       0.31654274       0.37495417      -0.43314003 </v>
   <v>       0.44154169      -0.37500040      -0.43313043 </v>
   <v>       0.19166538       0.12504117      -0.43305236 </v>
   <v>      -0.43323328      -0.12511625      -0.43316141 </v>
   <v>      -0.30851247       0.12495241      -0.43312894 </v>
   <v>       0.44158844       0.12498339      -0.43307395 </v>
   <v>      -0.43328445       0.37496777      -0.43314357 </v>
   <v>      -0.06620881      -0.36247876      -0.16603943 </v>
   <v>       0.18331473      -0.36234355      -0.16642609 </v>
   <v>       0.05865668      -0.11223521      -0.16651323 </v>
   <v>       0.05878163       0.38860997      -0.16642762 </v>
   <v>      -0.19139016      -0.11222294      -0.16645112 </v>
   <v>       0.30856938      -0.11234415      -0.16648610 </v>
   <v>      -0.19158371       0.38752668      -0.16647438 </v>
   <v>       0.30847357       0.38738625      -0.16649503 </v>
   <v>      -0.31638399      -0.36226645      -0.16648635 </v>
   <v>       0.43361504      -0.36215478      -0.16647233 </v>
   <v>      -0.06627291       0.13778894      -0.16645205 </v>
   <v>       0.18355809       0.13786922      -0.16639142 </v>
   <v>      -0.44150934      -0.11242952      -0.16650077 </v>
   <v>      -0.31657373       0.13765739      -0.16646385 </v>
   <v>       0.43346357       0.13769133      -0.16646783 </v>
   <v>      -0.44155515       0.38755377      -0.16656867 </v>
   <v>       0.06354710      -0.29175008      -0.38840251 </v>
   <v>      -0.06159152       0.45831642      -0.38841329 </v>
   <v>      -0.18651047      -0.29169616      -0.38841745 </v>
   <v>       0.18837932       0.45858180      -0.38849627 </v>
   <v>      -0.06178544      -0.04166777      -0.38851135 </v>
   <v>       0.18825836      -0.04136627      -0.38850235 </v>
   <v>       0.31343596      -0.29165587      -0.38844174 </v>
   <v>      -0.31174364       0.45860667      -0.38850232 </v>
   <v>       0.06360462       0.20853441      -0.38843819 </v>
   <v>      -0.31170371      -0.04146357      -0.38850208 </v>
   <v>       0.43847343       0.45855776      -0.38842773 </v>
   <v>       0.43873606      -0.04117425      -0.38844582 </v>
   <v>      -0.18653607       0.20832073      -0.38842483 </v>
   <v>      -0.43659980      -0.29159326      -0.38841821 </v>
   <v>       0.31313794       0.20836457      -0.38849214 </v>
   <v>       0.07064358      -0.45065485      -0.21120297 </v>
   <v>      -0.05514835      -0.20042605      -0.21118425 </v>
   <v>       0.19454830      -0.20055317      -0.21116166 </v>
   <v>      -0.43699863       0.20806185      -0.38857802 </v>
   <v>      -0.17996556      -0.45052404      -0.21108487 </v>
   <v>       0.31972539      -0.45027995      -0.21105705 </v>
   <v>       0.06946911       0.04958898      -0.21099220 </v>
   <v>      -0.05497430       0.29878966      -0.21122321 </v>
   <v>      -0.30506077      -0.20071308      -0.21111233 </v>
   <v>       0.19493605       0.29899967      -0.21120515 </v>
   <v>      -0.18068511       0.04962454      -0.21094743 </v>
   <v>       0.44472684      -0.20073720      -0.21116650 </v>
   <v>       0.32010655       0.04952982      -0.21114754 </v>
   <v>      -0.43014259      -0.45009327      -0.21100808 </v>
   <v>      -0.30489949       0.29919296      -0.21121536 </v>
   <v>       0.44462029       0.29913534      -0.21118755 </v>
   <v>      -0.43065931       0.04980937      -0.21103729 </v>
   <v>       0.05976048      -0.45934878      -0.34410586 </v>
   <v>      -0.06525408      -0.20942993      -0.34411659 </v>
   <v>       0.18482751      -0.20942236      -0.34411626 </v>
   <v>      -0.19033947      -0.45927570      -0.34417988 </v>
   <v>       0.30972532      -0.45935723      -0.34402337 </v>
   <v>       0.06015588       0.04044316      -0.34396163 </v>
   <v>      -0.06518368       0.29055256      -0.34415292 </v>
   <v>      -0.31532200      -0.20960199      -0.34412573 </v>
   <v>       0.18467572       0.29059958      -0.34411263 </v>
   <v>      -0.19021605       0.04059779      -0.34406313 </v>
   <v>       0.30979132       0.04062844      -0.34409650 </v>
   <v>       0.43469184      -0.20947279      -0.34400945 </v>
   <v>      -0.44024399      -0.45933238      -0.34409043 </v>
   <v>      -0.31504752       0.29074677      -0.34395187 </v>
   <v>       0.43507012       0.29078740      -0.34394132 </v>
   <v>      -0.44033156       0.04068255      -0.34416278 </v>
   <v>       0.05930545      -0.28766437      -0.25500833 </v>
   <v>      -0.06565613       0.46269177      -0.25506966 </v>
   <v>       0.18453310       0.46258311      -0.25505245 </v>
   <v>      -0.19006809      -0.28790650      -0.25518057 </v>
   <v>       0.30984126      -0.28789507      -0.25519281 </v>
   <v>      -0.06657425      -0.03788397      -0.25530963 </v>
   <v>       0.18396441      -0.03736159      -0.25525139 </v>
   <v>      -0.31575442       0.46276111      -0.25504304 </v>
   <v>       0.05976462       0.21269310      -0.25508998 </v>
   <v>       0.43463923       0.46282241      -0.25511156 </v>
   <v>      -0.31551401      -0.03742245      -0.25514976 </v>
   <v>       0.43397339      -0.03739273      -0.25522533 </v>
   <v>       0.30971628       0.21237146      -0.25506828 </v>
   <v>      -0.18928655       0.21152408      -0.25536508 </v>
   <v>      -0.44009470      -0.28804721      -0.25514511 </v>
   <v>      -0.43990412       0.21249995      -0.25516632 </v>
   <v>      -0.05317579      -0.37358293      -0.29949687 </v>
   <v>       0.07226437      -0.12352470      -0.29963988 </v>
   <v>       0.19724578      -0.37395397      -0.29969848 </v>
   <v>      -0.17793958      -0.12384439      -0.29959515 </v>
   <v>       0.07201982       0.37640966      -0.29947179 </v>
   <v>       0.32188646      -0.12366373      -0.29946040 </v>
   <v>      -0.17810512       0.37614247      -0.29978557 </v>
   <v>      -0.30299493      -0.37369312      -0.29956778 </v>
   <v>      -0.05292128       0.12629451      -0.29963887 </v>
   <v>       0.32234293       0.37640192      -0.29959177 </v>
   <v>       0.19717634       0.12623620      -0.29965222 </v>
   <v>       0.44692755      -0.37368326      -0.29960436 </v>
   <v>      -0.42846413      -0.12358905      -0.29944968 </v>
   <v>      -0.30268642       0.12629302      -0.29957123 </v>
   <v>       0.44732919       0.12609306      -0.29958058 </v>
   <v>      -0.42776480       0.37623060      -0.29960224 </v>
  </varray>
 </structure>
 <varray name="primitive_index" >
  <v type="int" >        1 </v>
  <v type="int" >      238 </v>
  <v type="int" >      193 </v>
  <v type="int" >      220 </v>
  <v type="int" >       10 </v>
  <v type="int" >      242 </v>
  <v type="int" >      208 </v>
  <v type="int" >       81 </v>
  <v type="int" >      192 </v>
  <v type="int" >      109 </v>
  <v type="int" >       71 </v>
  <v type="int" >       89 </v>
  <v type="int" >       35 </v>
  <v type="int" >      288 </v>
  <v type="int" >       32 </v>
  <v type="int" >      263 </v>
  <v type="int" >       55 </v>
  <v type="int" >      243 </v>
  <v type="int" >       94 </v>
  <v type="int" >      128 </v>
  <v type="int" >      117 </v>
  <v type="int" >      155 </v>
  <v type="int" >      158 </v>
  <v type="int" >      252 </v>
  <v type="int" >      222 </v>
  <v type="int" >      262 </v>
  <v type="int" >      183 </v>
  <v type="int" >      265 </v>
  <v type="int" >      162 </v>
  <v type="int" >      205 </v>
  <v type="int" >       28 </v>
  <v type="int" >      160 </v>
  <v type="int" >       15 </v>
  <v type="int" >       38 </v>
  <v type="int" >      161 </v>
  <v type="int" >       45 </v>
  <v type="int" >      126 </v>
  <v type="int" >      147 </v>
  <v type="int" >      278 </v>
  <v type="int" >      226 </v>
  <v type="int" >      227 </v>
  <v type="int" >      286 </v>
  <v type="int" >       48 </v>
  <v type="int" >       14 </v>
  <v type="int" >       26 </v>
  <v type="int" >      251 </v>
  <v type="int" >       70 </v>
  <v type="int" >       61 </v>
  <v type="int" >      197 </v>
  <v type="int" >      108 </v>
  <v type="int" >      277 </v>
  <v type="int" >      191 </v>
  <v type="int" >       33 </v>
  <v type="int" >       90 </v>
  <v type="int" >      203 </v>
  <v type="int" >       25 </v>
  <v type="int" >       99 </v>
  <v type="int" >       23 </v>
  <v type="int" >      133 </v>
  <v type="int" >       52 </v>
  <v type="int" >      104 </v>
  <v type="int" >      189 </v>
  <v type="int" >      100 </v>
  <v type="int" >      144 </v>
  <v type="int" >       83 </v>
  <v type="int" >      142 </v>
  <v type="int" >      145 </v>
  <v type="int" >        5 </v>
  <v type="int" >      143 </v>
  <v type="int" >      261 </v>
  <v type="int" >      122 </v>
  <v type="int" >      112 </v>
  <v type="int" >      267 </v>
  <v type="int" >       43 </v>
  <v type="int" >      118 </v>
  <v type="int" >      190 </v>
  <v type="int" >       63 </v>
  <v type="int" >      255 </v>
  <v type="int" >      120 </v>
  <v type="int" >      279 </v>
  <v type="int" >      169 </v>
  <v type="int" >       92 </v>
  <v type="int" >      170 </v>
  <v type="int" >      257 </v>
  <v type="int" >      254 </v>
  <v type="int" >      214 </v>
  <v type="int" >      124 </v>
  <v type="int" >       34 </v>
  <v type="int" >      153 </v>
  <v type="int" >       24 </v>
  <v type="int" >       95 </v>
  <v type="int" >      236 </v>
  <v type="int" >      172 </v>
  <v type="int" >      123 </v>
  <v type="int" >      258 </v>
  <v type="int" >      247 </v>
  <v type="int" >      198 </v>
  <v type="int" >      229 </v>
  <v type="int" >       86 </v>
  <v type="int" >       57 </v>
  <v type="int" >      246 </v>
  <v type="int" >       50 </v>
  <v type="int" >      273 </v>
  <v type="int" >      156 </v>
  <v type="int" >      105 </v>
  <v type="int" >       17 </v>
  <v type="int" >       79 </v>
  <v type="int" >      134 </v>
  <v type="int" >      232 </v>
  <v type="int" >      171 </v>
  <v type="int" >      248 </v>
  <v type="int" >      244 </v>
  <v type="int" >      282 </v>
  <v type="int" >      168 </v>
  <v type="int" >      211 </v>
  <v type="int" >      256 </v>
  <v type="int" >       46 </v>
  <v type="int" >      240 </v>
  <v type="int" >       29 </v>
  <v type="int" >      283 </v>
  <v type="int" >      215 </v>
  <v type="int" >      281 </v>
  <v type="int" >      285 </v>
  <v type="int" >      223 </v>
  <v type="int" >      239 </v>
  <v type="int" >      115 </v>
  <v type="int" >      184 </v>
  <v type="int" >      136 </v>
  <v type="int" >       62 </v>
  <v type="int" >      166 </v>
  <v type="int" >      268 </v>
  <v type="int" >      179 </v>
  <v type="int" >      132 </v>
  <v type="int" >      217 </v>
  <v type="int" >      176 </v>
  <v type="int" >      249 </v>
  <v type="int" >       91 </v>
  <v type="int" >      185 </v>
  <v type="int" >       19 </v>
  <v type="int" >      130 </v>
  <v type="int" >      206 </v>
  <v type="int" >      207 </v>
  <v type="int" >      175 </v>
  <v type="int" >       11 </v>
  <v type="int" >      178 </v>
  <v type="int" >      116 </v>
  <v type="int" >      107 </v>
  <v type="int" >      241 </v>
  <v type="int" >      230 </v>
  <v type="int" >      218 </v>
  <v type="int" >       18 </v>
  <v type="int" >      209 </v>
  <v type="int" >      225 </v>
  <v type="int" >      266 </v>
  <v type="int" >      187 </v>
  <v type="int" >       93 </v>
  <v type="int" >       87 </v>
  <v type="int" >      141 </v>
  <v type="int" >      111 </v>
  <v type="int" >       58 </v>
  <v type="int" >      181 </v>
  <v type="int" >      101 </v>
  <v type="int" >      151 </v>
  <v type="int" >      125 </v>
  <v type="int" >      274 </v>
  <v type="int" >        2 </v>
  <v type="int" >      154 </v>
  <v type="int" >      212 </v>
  <v type="int" >       27 </v>
  <v type="int" >      234 </v>
  <v type="int" >      173 </v>
  <v type="int" >       97 </v>
  <v type="int" >       41 </v>
  <v type="int" >      131 </v>
  <v type="int" >       39 </v>
  <v type="int" >       72 </v>
  <v type="int" >       12 </v>
  <v type="int" >      148 </v>
  <v type="int" >      276 </v>
  <v type="int" >      250 </v>
  <v type="int" >       40 </v>
  <v type="int" >       13 </v>
  <v type="int" >      264 </v>
  <v type="int" >      146 </v>
  <v type="int" >      259 </v>
  <v type="int" >      216 </v>
  <v type="int" >       21 </v>
  <v type="int" >      233 </v>
  <v type="int" >       98 </v>
  <v type="int" >      235 </v>
  <v type="int" >       68 </v>
  <v type="int" >       16 </v>
  <v type="int" >       59 </v>
  <v type="int" >       66 </v>
  <v type="int" >      177 </v>
  <v type="int" >        6 </v>
  <v type="int" >       75 </v>
  <v type="int" >        7 </v>
  <v type="int" >       73 </v>
  <v type="int" >      150 </v>
  <v type="int" >      271 </v>
  <v type="int" >      152 </v>
  <v type="int" >      129 </v>
  <v type="int" >      188 </v>
  <v type="int" >      174 </v>
  <v type="int" >      221 </v>
  <v type="int" >      269 </v>
  <v type="int" >      103 </v>
  <v type="int" >      180 </v>
  <v type="int" >      245 </v>
  <v type="int" >       82 </v>
  <v type="int" >      194 </v>
  <v type="int" >      201 </v>
  <v type="int" >       51 </v>
  <v type="int" >      280 </v>
  <v type="int" >      102 </v>
  <v type="int" >      228 </v>
  <v type="int" >        3 </v>
  <v type="int" >        4 </v>
  <v type="int" >      260 </v>
  <v type="int" >      167 </v>
  <v type="int" >       30 </v>
  <v type="int" >       77 </v>
  <v type="int" >      284 </v>
  <v type="int" >      149 </v>
  <v type="int" >       36 </v>
  <v type="int" >      275 </v>
  <v type="int" >      106 </v>
  <v type="int" >       60 </v>
  <v type="int" >       67 </v>
  <v type="int" >      199 </v>
  <v type="int" >       88 </v>
  <v type="int" >       54 </v>
  <v type="int" >      253 </v>
  <v type="int" >      114 </v>
  <v type="int" >       85 </v>
  <v type="int" >      121 </v>
  <v type="int" >      182 </v>
  <v type="int" >      127 </v>
  <v type="int" >       44 </v>
  <v type="int" >      196 </v>
  <v type="int" >      157 </v>
  <v type="int" >      113 </v>
  <v type="int" >       42 </v>
  <v type="int" >       49 </v>
  <v type="int" >      135 </v>
  <v type="int" >       69 </v>
  <v type="int" >      210 </v>
  <v type="int" >      200 </v>
  <v type="int" >      213 </v>
  <v type="int" >      186 </v>
  <v type="int" >       53 </v>
  <v type="int" >       31 </v>
  <v type="int" >       76 </v>
  <v type="int" >      159 </v>
  <v type="int" >      140 </v>
  <v type="int" >      204 </v>
  <v type="int" >      119 </v>
  <v type="int" >      110 </v>
  <v type="int" >      202 </v>
  <v type="int" >       84 </v>
  <v type="int" >      287 </v>
  <v type="int" >      237 </v>
  <v type="int" >      137 </v>
  <v type="int" >        9 </v>
  <v type="int" >       78 </v>
  <v type="int" >       80 </v>
  <v type="int" >       20 </v>
  <v type="int" >       64 </v>
  <v type="int" >       96 </v>
  <v type="int" >      272 </v>
  <v type="int" >      138 </v>
  <v type="int" >      164 </v>
  <v type="int" >      195 </v>
  <v type="int" >       74 </v>
  <v type="int" >      163 </v>
  <v type="int" >       65 </v>
  <v type="int" >      219 </v>
  <v type="int" >      231 </v>
  <v type="int" >       56 </v>
  <v type="int" >      139 </v>
  <v type="int" >      270 </v>
  <v type="int" >      165 </v>
  <v type="int" >        8 </v>
  <v type="int" >       22 </v>
  <v type="int" >      224 </v>
  <v type="int" >       37 </v>
  <v type="int" >       47 </v>
 </varray>
 <kpoints>
  <generation param="Gamma">
   <v type="int" name="divisions">       4        4        1 </v>
   <v name="usershift">      0.00000000       0.00000000       0.00000000 </v>
   <v name="genvec1">      0.25000000       0.00000000       0.00000000 </v>
   <v name="genvec2">      0.00000000       0.25000000       0.00000000 </v>
   <v name="genvec3">      0.00000000       0.00000000       1.00000000 </v>
   <v name="shift">      0.00000000       0.00000000       0.00000000 </v>
  </generation>
  <varray name="kpointlist" >
   <v>       0.00000000       0.00000000       0.00000000 </v>
   <v>       0.25000000       0.00000000       0.00000000 </v>
   <v>       0.50000000       0.00000000       0.00000000 </v>
   <v>       0.00000000       0.25000000       0.00000000 </v>
   <v>       0.25000000       0.25000000       0.00000000 </v>
   <v>       0.50000000       0.25000000       0.00000000 </v>
   <v>      -0.25000000       0.25000000       0.00000000 </v>
   <v>       0.00000000       0.50000000       0.00000000 </v>
   <v>       0.25000000       0.50000000       0.00000000 </v>
   <v>       0.50000000       0.50000000       0.00000000 </v>
  </varray>
  <varray name="weights" >
   <v>       0.06250000 </v>
   <v>       0.12500000 </v>
   <v>       0.06250000 </v>
   <v>       0.12500000 </v>
   <v>       0.12500000 </v>
   <v>       0.12500000 </v>
   <v>       0.12500000 </v>
   <v>       0.06250000 </v>
   <v>       0.12500000 </v>
   <v>       0.06250000 </v>
  </varray>
 </kpoints>
 <parameters>
  <separator name="general" >
   <i type="string" name="SYSTEM">unknown system</i>
   <i type="logical" name="LCOMPAT"> F  </i>
  </separator>
  <separator name="electronic" >
   <i type="string" name="PREC">accura</i>
   <i name="ENMAX">    450.00000000</i>
   <i name="ENAUG">    838.43500000</i>
   <i name="EDIFF">      0.00000100</i>
   <i type="int" name="IALGO">    68</i>
   <i type="int" name="IWAVPR">    11</i>
   <i type="int" name="NBANDS">  1386</i>
   <i name="NELECT">   2297.00000000</i>
   <i type="int" name="TURBO">     0</i>
   <i type="int" name="IRESTART">     0</i>
   <i type="int" name="NREBOOT">     0</i>
   <i type="int" name="NMIN">     0</i>
   <i name="EREF">      0.00000000</i>
   <separator name="electronic smearing" >
    <i type="int" name="ISMEAR">     0</i>
    <i name="SIGMA">      0.15000000</i>
    <i name="KSPACING">      0.50000000</i>
    <i type="logical" name="KGAMMA"> T  </i>
   </separator>
   <separator name="electronic projectors" >
    <i type="logical" name="LREAL"> T  </i>
    <v name="ROPT">     -0.00025000     -0.00025000</v>
    <i type="int" name="LMAXPAW">  -100</i>
    <i type="int" name="LMAXMIX">     2</i>
    <i type="logical" name="NLSPLINE"> F  </i>
   </separator>
   <separator name="electronic startup" >
    <i type="int" name="ISTART">     0</i>
    <i type="int" name="ICHARG">     2</i>
    <i type="int" name="INIWAV">     1</i>
   </separator>
   <separator name="electronic spin" >
    <i type="int" name="ISPIN">     1</i>
    <i type="logical" name="LNONCOLLINEAR"> F  </i>
    <v name="MAGMOM">      1.00000000      1.00000000      1.00000000      1.00000000      1.00000000      1.00000000      1.00000000      1.00000000      1.00000000      1.00000000      1.00000000      1.00000000      1.00000000      1.00000000      1.00000000      1.00000000      1.00000000      1.00000000      1.00000000      1.00000000
      1.00000000      1.00000000      1.00000000      1.00000000      1.00000000      1.00000000      1.00000000      1.00000000      1.00000000      1.00000000      1.00000000      1.00000000      1.00000000      1.00000000      1.00000000      1.00000000      1.00000000      1.00000000      1.00000000      1.00000000
      1.00000000      1.00000000      1.00000000      1.00000000      1.00000000      1.00000000      1.00000000      1.00000000      1.00000000      1.00000000      1.00000000      1.00000000      1.00000000      1.00000000      1.00000000      1.00000000      1.00000000      1.00000000      1.00000000      1.00000000
      1.00000000      1.00000000      1.00000000      1.00000000      1.00000000      1.00000000      1.00000000      1.00000000      1.00000000      1.00000000      1.00000000      1.00000000      1.00000000      1.00000000      1.00000000      1.00000000      1.00000000      1.00000000      1.00000000      1.00000000
      1.00000000      1.00000000      1.00000000      1.00000000      1.00000000      1.00000000      1.00000000      1.00000000      1.00000000      1.00000000      1.00000000      1.00000000      1.00000000      1.00000000      1.00000000      1.00000000      1.00000000      1.00000000      1.00000000      1.00000000
      1.00000000      1.00000000      1.00000000      1.00000000      1.00000000      1.00000000      1.00000000      1.00000000      1.00000000      1.00000000      1.00000000      1.00000000      1.00000000      1.00000000      1.00000000      1.00000000      1.00000000      1.00000000      1.00000000      1.00000000
      1.00000000      1.00000000      1.00000000      1.00000000      1.00000000      1.00000000      1.00000000      1.00000000      1.00000000      1.00000000      1.00000000      1.00000000      1.00000000      1.00000000      1.00000000      1.00000000      1.00000000      1.00000000      1.00000000      1.00000000
      1.00000000      1.00000000      1.00000000      1.00000000      1.00000000      1.00000000      1.00000000      1.00000000      1.00000000      1.00000000      1.00000000      1.00000000      1.00000000      1.00000000      1.00000000      1.00000000      1.00000000      1.00000000      1.00000000      1.00000000
      1.00000000      1.00000000      1.00000000      1.00000000      1.00000000      1.00000000      1.00000000      1.00000000      1.00000000      1.00000000      1.00000000      1.00000000      1.00000000      1.00000000      1.00000000      1.00000000      1.00000000      1.00000000      1.00000000      1.00000000
      1.00000000      1.00000000      1.00000000      1.00000000      1.00000000      1.00000000      1.00000000      1.00000000      1.00000000      1.00000000      1.00000000      1.00000000      1.00000000      1.00000000      1.00000000      1.00000000      1.00000000      1.00000000      1.00000000      1.00000000
      1.00000000      1.00000000      1.00000000      1.00000000      1.00000000      1.00000000      1.00000000      1.00000000      1.00000000      1.00000000      1.00000000      1.00000000      1.00000000      1.00000000      1.00000000      1.00000000      1.00000000      1.00000000      1.00000000      1.00000000
      1.00000000      1.00000000      1.00000000      1.00000000      1.00000000      1.00000000      1.00000000      1.00000000      1.00000000      1.00000000      1.00000000      1.00000000      1.00000000      1.00000000      1.00000000      1.00000000      1.00000000      1.00000000      1.00000000      1.00000000
      1.00000000      1.00000000      1.00000000      1.00000000      1.00000000      1.00000000      1.00000000      1.00000000      1.00000000      1.00000000      1.00000000      1.00000000      1.00000000      1.00000000      1.00000000      1.00000000      1.00000000      1.00000000      1.00000000      1.00000000
      1.00000000      1.00000000      1.00000000      1.00000000      1.00000000      1.00000000      1.00000000      1.00000000      1.00000000      1.00000000      1.00000000      1.00000000      1.00000000      1.00000000      1.00000000      1.00000000      1.00000000      1.00000000      1.00000000      1.00000000
      1.00000000      1.00000000      1.00000000      1.00000000      1.00000000      1.00000000      1.00000000      1.00000000</v>
    <i name="NUPDOWN">     -1.00000000</i>
    <i type="logical" name="LSORBIT"> F  </i>
    <v name="SAXIS">      0.00000000      0.00000000      1.00000000</v>
    <i type="logical" name="LSPIRAL"> F  </i>
    <v name="QSPIRAL">      0.00000000      0.00000000      0.00000000</v>
    <i type="logical" name="LZEROZ"> F  </i>
   </separator>
   <separator name="electronic exchange-correlation" >
    <i type="logical" name="LASPH"> F  </i>
    <i type="logical" name="LMETAGGA"> F  </i>
   </separator>
   <separator name="electronic convergence" >
    <i type="int" name="NELM">   200</i>
    <i type="int" name="NELMDL">     0</i>
    <i type="int" name="NELMIN">     4</i>
    <i name="ENINI">    450.00000000</i>
    <separator name="electronic convergence detail" >
     <i type="logical" name="LDIAG"> T  </i>
     <i type="logical" name="LSUBROT"> F  </i>
     <i name="WEIMIN">      0.00100000</i>
     <i name="EBREAK">      0.00000000</i>
     <i name="DEPER">      0.30000000</i>
     <i type="int" name="NRMM">     4</i>
     <i name="TIME">      0.40000000</i>
    </separator>
   </separator>
   <separator name="electronic mixer" >
    <i name="AMIX">      0.40000000</i>
    <i name="BMIX">      1.00000000</i>
    <i name="AMIN">      0.10000000</i>
    <i name="AMIX_MAG">      1.60000000</i>
    <i name="BMIX_MAG">      1.00000000</i>
    <separator name="electronic mixer details" >
     <i type="int" name="IMIX">     4</i>
     <i type="logical" name="MIXFIRST"> F  </i>
     <i type="int" name="MAXMIX">   -45</i>
     <i name="WC">    100.00000000</i>
     <i type="int" name="INIMIX">     1</i>
     <i type="int" name="MIXPRE">     1</i>
     <i type="int" name="MREMOVE">     5</i>
    </separator>
   </separator>
   <separator name="electronic dipolcorrection" >
    <i type="logical" name="LDIPOL"> F  </i>
    <i type="logical" name="LMONO"> F  </i>
    <i type="int" name="IDIPOL">     0</i>
    <i name="EPSILON">      1.00000000</i>
    <v name="DIPOL">   -100.00000000   -100.00000000   -100.00000000</v>
    <i name="EFIELD">      0.00000000</i>
   </separator>
  </separator>
  <separator name="grids" >
   <i type="int" name="NGX">    70</i>
   <i type="int" name="NGY">    60</i>
   <i type="int" name="NGZ">   320</i>
   <i type="int" name="NGXF">   140</i>
   <i type="int" name="NGYF">   120</i>
   <i type="int" name="NGZF">   640</i>
   <i type="logical" name="ADDGRID"> F  </i>
  </separator>
  <separator name="ionic" >
   <i type="int" name="NSW">     5</i>
   <i type="int" name="IBRION">     2</i>
   <i type="int" name="MDALGO">     0</i>
   <i type="int" name="ISIF">     2</i>
   <i name="PSTRESS">      0.00000000</i>
   <i name="EDIFFG">      0.00001000</i>
   <i type="int" name="NFREE">     1</i>
   <i name="POTIM">      0.25000000</i>
   <i name="SMASS">     -3.00000000</i>
   <i name="SCALEE">      1.00000000</i>
  </separator>
  <separator name="ionic md" >
   <i name="TEBEG">      0.00010000</i>
   <i name="TEEND">      0.00010000</i>
   <i type="int" name="NBLOCK">     1</i>
   <i type="int" name="KBLOCK">     5</i>
   <i type="int" name="NPACO">   256</i>
   <i name="APACO">     16.00000000</i>
  </separator>
  <separator name="symmetry" >
   <i type="int" name="ISYM">     2</i>
   <i name="SYMPREC">      0.00001000</i>
  </separator>
  <separator name="dos" >
   <i type="int" name="LORBIT">     0</i>
   <v name="RWIGS">     -1.00000000     -1.00000000</v>
   <i type="int" name="NEDOS">   301</i>
   <i name="EMIN">     10.00000000</i>
   <i name="EMAX">    -10.00000000</i>
   <i name="EFERMI">      0.00000000</i>
  </separator>
  <separator name="writing" >
   <i type="int" name="NWRITE">     2</i>
   <i type="logical" name="LWAVE"> F  </i>
   <i type="logical" name="LDOWNSAMPLE"> F  </i>
   <i type="logical" name="LCHARG"> F  </i>
   <i type="logical" name="LPARD"> F  </i>
   <i type="logical" name="LVTOT"> F  </i>
   <i type="logical" name="LVHAR"> F  </i>
   <i type="logical" name="LELF"> F  </i>
   <i type="logical" name="LOPTICS"> F  </i>
   <v name="STM">      0.00000000      0.00000000      0.00000000      0.00000000      0.00000000      0.00000000      0.00000000</v>
  </separator>
  <separator name="performance" >
   <i type="int" name="NPAR">    14</i>
   <i type="int" name="NSIM">     4</i>
   <i type="int" name="NBLK">    -1</i>
   <i type="logical" name="LPLANE"> T  </i>
   <i type="logical" name="LSCALAPACK"> T  </i>
   <i type="logical" name="LSCAAWARE"> T  </i>
   <i type="logical" name="LSCALU"> F  </i>
   <i type="logical" name="LASYNC"> F  </i>
   <i type="logical" name="LORBITALREAL"> F  </i>
  </separator>
  <separator name="miscellaneous" >
   <i type="int" name="IDIOT">     3</i>
   <i type="int" name="ISPECIAL">     0</i>
   <i type="logical" name="LMUSIC"> F  </i>
   <v name="POMASS">     55.84700000     54.93800000</v>
   <v name="DARWINR">      0.00000000      0.00000000</v>
   <v name="DARWINV">      1.00000000      1.00000000</v>
   <i type="logical" name="LCORR"> T  </i>
  </separator>
  <i type="logical" name="GGA_COMPAT"> T  </i>
  <i type="logical" name="LBERRY"> F  </i>
  <i type="int" name="ICORELEVEL">     0</i>
  <i type="logical" name="LDAU"> F  </i>
  <i type="int" name="I_CONSTRAINED_M">     0</i>
  <separator name="electronic exchange-correlation" >
   <i type="string" name="GGA">--</i>
   <i type="int" name="VOSKOWN">     0</i>
   <i type="logical" name="LHFCALC"> F  </i>
   <i type="string" name="PRECFOCK"></i>
   <i type="logical" name="LSYMGRAD"> F  </i>
   <i type="logical" name="LHFONE"> F  </i>
   <i type="logical" name="LRHFCALC"> F  </i>
   <i type="logical" name="LTHOMAS"> F  </i>
   <i type="logical" name="LMODELHF"> F  </i>
   <i name="ENCUT4O">     -1.00000000</i>
   <i type="int" name="EXXOEP">     0</i>
   <i type="int" name="FOURORBIT">     0</i>
   <i name="AEXX">      0.00000000</i>
   <i name="HFALPHA">      0.00000000</i>
   <i name="MCALPHA">      0.00000000</i>
   <i name="ALDAX">      1.00000000</i>
   <i name="AGGAX">      1.00000000</i>
   <i name="ALDAC">      1.00000000</i>
   <i name="AGGAC">      1.00000000</i>
   <i type="int" name="NKREDX">     1</i>
   <i type="int" name="NKREDY">     1</i>
   <i type="int" name="NKREDZ">     1</i>
   <i type="logical" name="SHIFTRED"> F  </i>
   <i type="logical" name="ODDONLY"> F  </i>
   <i type="logical" name="EVENONLY"> F  </i>
   <i type="int" name="LMAXFOCK">     0</i>
   <i type="int" name="NMAXFOCKAE">     0</i>
   <i type="logical" name="LFOCKAEDFT"> F  </i>
   <i name="HFSCREEN">      0.00000000</i>
   <i name="HFSCREENC">      0.00000000</i>
   <i type="int" name="NBANDSGWLOW">     0</i>
  </separator>
  <separator name="vdW DFT" >
   <i type="logical" name="LUSE_VDW"> F  </i>
   <i name="Zab_VDW">     -0.84910000</i>
   <i name="PARAM1">      0.12340000</i>
   <i name="PARAM2">      1.00000000</i>
   <i name="PARAM3">      0.00000000</i>
  </separator>
  <separator name="model GW" >
   <i type="int" name="MODEL_GW">     0</i>
   <i name="MODEL_EPS0">      7.68123389</i>
   <i name="MODEL_ALPHA">      1.00000000</i>
  </separator>
  <separator name="linear response parameters" >
   <i type="logical" name="LEPSILON"> F  </i>
   <i type="logical" name="LRPA"> F  </i>
   <i type="logical" name="LNABLA"> F  </i>
   <i type="logical" name="LVEL"> F  </i>
   <i type="int" name="KINTER">     0</i>
   <i name="CSHIFT">      0.10000000</i>
   <i name="OMEGAMAX">     -1.00000000</i>
   <i name="DEG_THRESHOLD">      0.00200000</i>
   <i name="RTIME">     -0.10000000</i>
   <i name="WPLASMAI">      0.00000000</i>
   <v name="DFIELD">      0.00000000      0.00000000      0.00000000</v>
   <v name="WPLASMA">      0.00000000      0.00000000      0.00000000      0.00000000      0.00000000      0.00000000      0.00000000      0.00000000      0.00000000</v>
  </separator>
  <separator name="orbital magnetization" >
   <i type="logical" name="NUCIND"> F  </i>
   <v name="MAGPOS">      0.00000000      0.00000000      0.00000000</v>
   <i type="logical" name="LNICSALL"> T  </i>
   <i type="logical" name="ORBITALMAG"> F  </i>
   <i type="logical" name="LMAGBLOCH"> F  </i>
   <i type="logical" name="LCHIMAG"> F  </i>
   <i type="logical" name="LGAUGE"> T  </i>
   <i type="int" name="MAGATOM">     0</i>
   <v name="MAGDIPOL">      0.00000000      0.00000000      0.00000000</v>
   <v name="AVECCONST">      0.00000000      0.00000000      0.00000000</v>
  </separator>
  <separator name="response functions" >
   <i type="logical" name="LADDER"> F  </i>
   <i type="logical" name="LRPAFORCE"> F  </i>
   <i type="logical" name="LFXC"> F  </i>
   <i type="logical" name="LHARTREE"> T  </i>
   <i type="int" name="IBSE">     0</i>
   <v type="int" name="KPOINT">    -1     0     0     0</v>
   <i type="logical" name="LTCTE"> F  </i>
   <i type="logical" name="LTETE"> F  </i>
   <i type="logical" name="LTRIPLET"> F  </i>
   <i type="logical" name="LFXCEPS"> F  </i>
   <i type="logical" name="LFXHEG"> F  </i>
   <i type="int" name="NATURALO">     2</i>
   <i type="logical" name="L2ORDER"> F  </i>
   <i type="logical" name="LMP2LT"> F  </i>
   <i type="logical" name="LUSEW"> F  </i>
   <i name="ENCUTGW">     -2.00000000</i>
   <i name="ENCUTGWSOFT">     -2.00000000</i>
   <i name="ENCUTLF">     -1.00000000</i>
   <i type="int" name="LMAXMP2">    -1</i>
   <i name="SCISSOR">      0.00000000</i>
   <i type="int" name="NOMEGA">     0</i>
   <i type="int" name="NOMEGAR">     0</i>
   <i type="int" name="NBANDSGW">    -1</i>
   <i type="int" name="NBANDSO">    -1</i>
   <i type="int" name="NBANDSV">    -1</i>
   <i type="int" name="NELM">   200</i>
   <i type="int" name="NELMHF">     1</i>
   <i type="int" name="DIM">     3</i>
   <i type="int" name="ANTIRES">     0</i>
   <i name="OMEGAMAX">    -30.00000000</i>
   <i name="OMEGAMIN">    -30.00000000</i>
   <i name="OMEGATL">   -200.00000000</i>
   <i type="int" name="OMEGAGRID">   140</i>
   <i name="CSHIFT">     -0.10000000</i>
   <i type="logical" name="SELFENERGY"> F  </i>
   <i type="logical" name="LSPECTRAL"> F  </i>
   <i type="logical" name="LSPECTRALGW"> F  </i>
   <i type="logical" name="LSINGLES"> F  </i>
   <i type="logical" name="LFERMIGW"> F  </i>
   <i type="logical" name="ODDONLYGW"> F  </i>
   <i type="logical" name="EVENONLYGW"> F  </i>
   <i type="int" name="NKREDLFX">     1</i>
   <i type="int" name="NKREDLFY">     1</i>
   <i type="int" name="NKREDLFZ">     1</i>
   <i type="int" name="MAXMEM">  2800</i>
   <i type="int" name="TELESCOPE">     0</i>
   <i type="int" name="TAUPAR">     1</i>
   <i type="int" name="OMEGAPAR">    -1</i>
   <i name="LAMBDA">      1.00000000</i>
  </separator>
  <separator name="External order field" >
   <i name="OFIELD_KAPPA">      0.00000000</i>
   <v name="OFIELD_K">      0.00000000      0.00000000      0.00000000</v>
   <i name="OFIELD_Q6_NEAR">      0.00000000</i>
   <i name="OFIELD_Q6_FAR">      0.00000000</i>
   <i name="OFIELD_A">      0.00000000</i>
  </separator>
 </parameters>
 <atominfo>
  <atoms>     288 </atoms>
  <types>       2 </types>
  <array name="atoms" >
   <dimension dim="1">ion</dimension>
   <field type="string">element</field>
   <field type="int">atomtype</field>
   <set>
    <rc><c>Fe</c><c>   1</c></rc>
    <rc><c>Fe</c><c>   1</c></rc>
    <rc><c>Fe</c><c>   1</c></rc>
    <rc><c>Fe</c><c>   1</c></rc>
    <rc><c>Fe</c><c>   1</c></rc>
    <rc><c>Fe</c><c>   1</c></rc>
    <rc><c>Fe</c><c>   1</c></rc>
    <rc><c>Fe</c><c>   1</c></rc>
    <rc><c>Fe</c><c>   1</c></rc>
    <rc><c>Fe</c><c>   1</c></rc>
    <rc><c>Fe</c><c>   1</c></rc>
    <rc><c>Fe</c><c>   1</c></rc>
    <rc><c>Fe</c><c>   1</c></rc>
    <rc><c>Fe</c><c>   1</c></rc>
    <rc><c>Fe</c><c>   1</c></rc>
    <rc><c>Fe</c><c>   1</c></rc>
    <rc><c>Fe</c><c>   1</c></rc>
    <rc><c>Fe</c><c>   1</c></rc>
    <rc><c>Fe</c><c>   1</c></rc>
    <rc><c>Fe</c><c>   1</c></rc>
    <rc><c>Fe</c><c>   1</c></rc>
    <rc><c>Fe</c><c>   1</c></rc>
    <rc><c>Fe</c><c>   1</c></rc>
    <rc><c>Fe</c><c>   1</c></rc>
    <rc><c>Fe</c><c>   1</c></rc>
    <rc><c>Fe</c><c>   1</c></rc>
    <rc><c>Fe</c><c>   1</c></rc>
    <rc><c>Fe</c><c>   1</c></rc>
    <rc><c>Fe</c><c>   1</c></rc>
    <rc><c>Fe</c><c>   1</c></rc>
    <rc><c>Fe</c><c>   1</c></rc>
    <rc><c>Fe</c><c>   1</c></rc>
    <rc><c>Fe</c><c>   1</c></rc>
    <rc><c>Fe</c><c>   1</c></rc>
    <rc><c>Fe</c><c>   1</c></rc>
    <rc><c>Fe</c><c>   1</c></rc>
    <rc><c>Fe</c><c>   1</c></rc>
    <rc><c>Fe</c><c>   1</c></rc>
    <rc><c>Fe</c><c>   1</c></rc>
    <rc><c>Fe</c><c>   1</c></rc>
    <rc><c>Fe</c><c>   1</c></rc>
    <rc><c>Fe</c><c>   1</c></rc>
    <rc><c>Fe</c><c>   1</c></rc>
    <rc><c>Fe</c><c>   1</c></rc>
    <rc><c>Fe</c><c>   1</c></rc>
    <rc><c>Fe</c><c>   1</c></rc>
    <rc><c>Fe</c><c>   1</c></rc>
    <rc><c>Fe</c><c>   1</c></rc>
    <rc><c>Fe</c><c>   1</c></rc>
    <rc><c>Fe</c><c>   1</c></rc>
    <rc><c>Fe</c><c>   1</c></rc>
    <rc><c>Fe</c><c>   1</c></rc>
    <rc><c>Fe</c><c>   1</c></rc>
    <rc><c>Fe</c><c>   1</c></rc>
    <rc><c>Fe</c><c>   1</c></rc>
    <rc><c>Fe</c><c>   1</c></rc>
    <rc><c>Fe</c><c>   1</c></rc>
    <rc><c>Fe</c><c>   1</c></rc>
    <rc><c>Fe</c><c>   1</c></rc>
    <rc><c>Fe</c><c>   1</c></rc>
    <rc><c>Fe</c><c>   1</c></rc>
    <rc><c>Fe</c><c>   1</c></rc>
    <rc><c>Fe</c><c>   1</c></rc>
    <rc><c>Fe</c><c>   1</c></rc>
    <rc><c>Fe</c><c>   1</c></rc>
    <rc><c>Fe</c><c>   1</c></rc>
    <rc><c>Fe</c><c>   1</c></rc>
    <rc><c>Fe</c><c>   1</c></rc>
    <rc><c>Fe</c><c>   1</c></rc>
    <rc><c>Fe</c><c>   1</c></rc>
    <rc><c>Fe</c><c>   1</c></rc>
    <rc><c>Fe</c><c>   1</c></rc>
    <rc><c>Fe</c><c>   1</c></rc>
    <rc><c>Fe</c><c>   1</c></rc>
    <rc><c>Fe</c><c>   1</c></rc>
    <rc><c>Fe</c><c>   1</c></rc>
    <rc><c>Fe</c><c>   1</c></rc>
    <rc><c>Fe</c><c>   1</c></rc>
    <rc><c>Fe</c><c>   1</c></rc>
    <rc><c>Fe</c><c>   1</c></rc>
    <rc><c>Fe</c><c>   1</c></rc>
    <rc><c>Fe</c><c>   1</c></rc>
    <rc><c>Fe</c><c>   1</c></rc>
    <rc><c>Fe</c><c>   1</c></rc>
    <rc><c>Fe</c><c>   1</c></rc>
    <rc><c>Fe</c><c>   1</c></rc>
    <rc><c>Fe</c><c>   1</c></rc>
    <rc><c>Fe</c><c>   1</c></rc>
    <rc><c>Fe</c><c>   1</c></rc>
    <rc><c>Fe</c><c>   1</c></rc>
    <rc><c>Fe</c><c>   1</c></rc>
    <rc><c>Fe</c><c>   1</c></rc>
    <rc><c>Fe</c><c>   1</c></rc>
    <rc><c>Fe</c><c>   1</c></rc>
    <rc><c>Fe</c><c>   1</c></rc>
    <rc><c>Fe</c><c>   1</c></rc>
    <rc><c>Fe</c><c>   1</c></rc>
    <rc><c>Fe</c><c>   1</c></rc>
    <rc><c>Fe</c><c>   1</c></rc>
    <rc><c>Fe</c><c>   1</c></rc>
    <rc><c>Fe</c><c>   1</c></rc>
    <rc><c>Fe</c><c>   1</c></rc>
    <rc><c>Fe</c><c>   1</c></rc>
    <rc><c>Fe</c><c>   1</c></rc>
    <rc><c>Fe</c><c>   1</c></rc>
    <rc><c>Fe</c><c>   1</c></rc>
    <rc><c>Fe</c><c>   1</c></rc>
    <rc><c>Fe</c><c>   1</c></rc>
    <rc><c>Fe</c><c>   1</c></rc>
    <rc><c>Fe</c><c>   1</c></rc>
    <rc><c>Fe</c><c>   1</c></rc>
    <rc><c>Fe</c><c>   1</c></rc>
    <rc><c>Fe</c><c>   1</c></rc>
    <rc><c>Fe</c><c>   1</c></rc>
    <rc><c>Fe</c><c>   1</c></rc>
    <rc><c>Fe</c><c>   1</c></rc>
    <rc><c>Fe</c><c>   1</c></rc>
    <rc><c>Fe</c><c>   1</c></rc>
    <rc><c>Fe</c><c>   1</c></rc>
    <rc><c>Fe</c><c>   1</c></rc>
    <rc><c>Fe</c><c>   1</c></rc>
    <rc><c>Fe</c><c>   1</c></rc>
    <rc><c>Fe</c><c>   1</c></rc>
    <rc><c>Fe</c><c>   1</c></rc>
    <rc><c>Fe</c><c>   1</c></rc>
    <rc><c>Fe</c><c>   1</c></rc>
    <rc><c>Fe</c><c>   1</c></rc>
    <rc><c>Fe</c><c>   1</c></rc>
    <rc><c>Fe</c><c>   1</c></rc>
    <rc><c>Fe</c><c>   1</c></rc>
    <rc><c>Fe</c><c>   1</c></rc>
    <rc><c>Fe</c><c>   1</c></rc>
    <rc><c>Fe</c><c>   1</c></rc>
    <rc><c>Fe</c><c>   1</c></rc>
    <rc><c>Fe</c><c>   1</c></rc>
    <rc><c>Fe</c><c>   1</c></rc>
    <rc><c>Fe</c><c>   1</c></rc>
    <rc><c>Fe</c><c>   1</c></rc>
    <rc><c>Fe</c><c>   1</c></rc>
    <rc><c>Fe</c><c>   1</c></rc>
    <rc><c>Fe</c><c>   1</c></rc>
    <rc><c>Fe</c><c>   1</c></rc>
    <rc><c>Fe</c><c>   1</c></rc>
    <rc><c>Fe</c><c>   1</c></rc>
    <rc><c>Fe</c><c>   1</c></rc>
    <rc><c>Fe</c><c>   1</c></rc>
    <rc><c>Fe</c><c>   1</c></rc>
    <rc><c>Fe</c><c>   1</c></rc>
    <rc><c>Fe</c><c>   1</c></rc>
    <rc><c>Fe</c><c>   1</c></rc>
    <rc><c>Fe</c><c>   1</c></rc>
    <rc><c>Fe</c><c>   1</c></rc>
    <rc><c>Fe</c><c>   1</c></rc>
    <rc><c>Fe</c><c>   1</c></rc>
    <rc><c>Fe</c><c>   1</c></rc>
    <rc><c>Fe</c><c>   1</c></rc>
    <rc><c>Fe</c><c>   1</c></rc>
    <rc><c>Fe</c><c>   1</c></rc>
    <rc><c>Fe</c><c>   1</c></rc>
    <rc><c>Fe</c><c>   1</c></rc>
    <rc><c>Fe</c><c>   1</c></rc>
    <rc><c>Fe</c><c>   1</c></rc>
    <rc><c>Fe</c><c>   1</c></rc>
    <rc><c>Fe</c><c>   1</c></rc>
    <rc><c>Fe</c><c>   1</c></rc>
    <rc><c>Fe</c><c>   1</c></rc>
    <rc><c>Fe</c><c>   1</c></rc>
    <rc><c>Fe</c><c>   1</c></rc>
    <rc><c>Fe</c><c>   1</c></rc>
    <rc><c>Fe</c><c>   1</c></rc>
    <rc><c>Fe</c><c>   1</c></rc>
    <rc><c>Fe</c><c>   1</c></rc>
    <rc><c>Fe</c><c>   1</c></rc>
    <rc><c>Fe</c><c>   1</c></rc>
    <rc><c>Fe</c><c>   1</c></rc>
    <rc><c>Fe</c><c>   1</c></rc>
    <rc><c>Fe</c><c>   1</c></rc>
    <rc><c>Fe</c><c>   1</c></rc>
    <rc><c>Fe</c><c>   1</c></rc>
    <rc><c>Fe</c><c>   1</c></rc>
    <rc><c>Fe</c><c>   1</c></rc>
    <rc><c>Fe</c><c>   1</c></rc>
    <rc><c>Fe</c><c>   1</c></rc>
    <rc><c>Fe</c><c>   1</c></rc>
    <rc><c>Fe</c><c>   1</c></rc>
    <rc><c>Fe</c><c>   1</c></rc>
    <rc><c>Fe</c><c>   1</c></rc>
    <rc><c>Fe</c><c>   1</c></rc>
    <rc><c>Fe</c><c>   1</c></rc>
    <rc><c>Fe</c><c>   1</c></rc>
    <rc><c>Fe</c><c>   1</c></rc>
    <rc><c>Fe</c><c>   1</c></rc>
    <rc><c>Fe</c><c>   1</c></rc>
    <rc><c>Fe</c><c>   1</c></rc>
    <rc><c>Fe</c><c>   1</c></rc>
    <rc><c>Fe</c><c>   1</c></rc>
    <rc><c>Fe</c><c>   1</c></rc>
    <rc><c>Fe</c><c>   1</c></rc>
    <rc><c>Fe</c><c>   1</c></rc>
    <rc><c>Fe</c><c>   1</c></rc>
    <rc><c>Fe</c><c>   1</c></rc>
    <rc><c>Fe</c><c>   1</c></rc>
    <rc><c>Fe</c><c>   1</c></rc>
    <rc><c>Fe</c><c>   1</c></rc>
    <rc><c>Fe</c><c>   1</c></rc>
    <rc><c>Fe</c><c>   1</c></rc>
    <rc><c>Fe</c><c>   1</c></rc>
    <rc><c>Fe</c><c>   1</c></rc>
    <rc><c>Fe</c><c>   1</c></rc>
    <rc><c>Fe</c><c>   1</c></rc>
    <rc><c>Fe</c><c>   1</c></rc>
    <rc><c>Fe</c><c>   1</c></rc>
    <rc><c>Fe</c><c>   1</c></rc>
    <rc><c>Fe</c><c>   1</c></rc>
    <rc><c>Fe</c><c>   1</c></rc>
    <rc><c>Fe</c><c>   1</c></rc>
    <rc><c>Fe</c><c>   1</c></rc>
    <rc><c>Fe</c><c>   1</c></rc>
    <rc><c>Fe</c><c>   1</c></rc>
    <rc><c>Fe</c><c>   1</c></rc>
    <rc><c>Fe</c><c>   1</c></rc>
    <rc><c>Fe</c><c>   1</c></rc>
    <rc><c>Fe</c><c>   1</c></rc>
    <rc><c>Fe</c><c>   1</c></rc>
    <rc><c>Fe</c><c>   1</c></rc>
    <rc><c>Fe</c><c>   1</c></rc>
    <rc><c>Fe</c><c>   1</c></rc>
    <rc><c>Fe</c><c>   1</c></rc>
    <rc><c>Fe</c><c>   1</c></rc>
    <rc><c>Fe</c><c>   1</c></rc>
    <rc><c>Fe</c><c>   1</c></rc>
    <rc><c>Fe</c><c>   1</c></rc>
    <rc><c>Fe</c><c>   1</c></rc>
    <rc><c>Fe</c><c>   1</c></rc>
    <rc><c>Fe</c><c>   1</c></rc>
    <rc><c>Fe</c><c>   1</c></rc>
    <rc><c>Fe</c><c>   1</c></rc>
    <rc><c>Fe</c><c>   1</c></rc>
    <rc><c>Fe</c><c>   1</c></rc>
    <rc><c>Fe</c><c>   1</c></rc>
    <rc><c>Fe</c><c>   1</c></rc>
    <rc><c>Fe</c><c>   1</c></rc>
    <rc><c>Fe</c><c>   1</c></rc>
    <rc><c>Fe</c><c>   1</c></rc>
    <rc><c>Fe</c><c>   1</c></rc>
    <rc><c>Fe</c><c>   1</c></rc>
    <rc><c>Fe</c><c>   1</c></rc>
    <rc><c>Fe</c><c>   1</c></rc>
    <rc><c>Fe</c><c>   1</c></rc>
    <rc><c>Fe</c><c>   1</c></rc>
    <rc><c>Fe</c><c>   1</c></rc>
    <rc><c>Fe</c><c>   1</c></rc>
    <rc><c>Fe</c><c>   1</c></rc>
    <rc><c>Fe</c><c>   1</c></rc>
    <rc><c>Fe</c><c>   1</c></rc>
    <rc><c>Fe</c><c>   1</c></rc>
    <rc><c>Fe</c><c>   1</c></rc>
    <rc><c>Fe</c><c>   1</c></rc>
    <rc><c>Fe</c><c>   1</c></rc>
    <rc><c>Fe</c><c>   1</c></rc>
    <rc><c>Fe</c><c>   1</c></rc>
    <rc><c>Fe</c><c>   1</c></rc>
    <rc><c>Fe</c><c>   1</c></rc>
    <rc><c>Fe</c><c>   1</c></rc>
    <rc><c>Fe</c><c>   1</c></rc>
    <rc><c>Fe</c><c>   1</c></rc>
    <rc><c>Fe</c><c>   1</c></rc>
    <rc><c>Fe</c><c>   1</c></rc>
    <rc><c>Fe</c><c>   1</c></rc>
    <rc><c>Fe</c><c>   1</c></rc>
    <rc><c>Fe</c><c>   1</c></rc>
    <rc><c>Fe</c><c>   1</c></rc>
    <rc><c>Fe</c><c>   1</c></rc>
    <rc><c>Fe</c><c>   1</c></rc>
    <rc><c>Fe</c><c>   1</c></rc>
    <rc><c>Fe</c><c>   1</c></rc>
    <rc><c>Fe</c><c>   1</c></rc>
    <rc><c>Fe</c><c>   1</c></rc>
    <rc><c>Fe</c><c>   1</c></rc>
    <rc><c>Fe</c><c>   1</c></rc>
    <rc><c>Fe</c><c>   1</c></rc>
    <rc><c>Mn</c><c>   2</c></rc>
    <rc><c>Mn</c><c>   2</c></rc>
    <rc><c>Mn</c><c>   2</c></rc>
    <rc><c>Mn</c><c>   2</c></rc>
    <rc><c>Mn</c><c>   2</c></rc>
    <rc><c>Mn</c><c>   2</c></rc>
    <rc><c>Mn</c><c>   2</c></rc>
   </set>
  </array>
  <array name="atomtypes" >
   <dimension dim="1">type</dimension>
   <field type="int">atomspertype</field>
   <field type="string">element</field>
   <field>mass</field>
   <field>valence</field>
   <field type="string">pseudopotential</field>
   <set>
    <rc><c> 281</c><c>Fe</c><c>     55.84700000</c><c>      8.00000000</c><c>  PAW_PBE Fe_GW 31Mar2010               </c></rc>
    <rc><c>   7</c><c>Mn</c><c>     54.93800000</c><c>      7.00000000</c><c>  PAW_PBE Mn_GW 31Mar2010               </c></rc>
   </set>
  </array>
 </atominfo>
 <structure name="initialpos" >
  <crystal>
   <varray name="basis" >
    <v>       9.72667804       0.00000000       0.00000000 </v>
    <v>       0.00000000       8.42355028       0.00000000 </v>
    <v>       0.00000000       0.00000000      45.00000000 </v>
   </varray>
   <i name="volume">   3686.99226691 </i>
   <varray name="rec_basis" >
    <v>       0.10281002       0.00000000       0.00000000 </v>
    <v>       0.00000000       0.11871479       0.00000000 </v>
    <v>       0.00000000       0.00000000       0.02222222 </v>
   </varray>
  </crystal>
  <varray name="positions" >
   <v>       0.05394659       0.70096245       0.21124653 </v>
   <v>       0.31838705       0.72367871       0.87628214 </v>
   <v>       0.68829629       0.95853643       0.61149792 </v>
   <v>       0.43847343       0.45855776       0.61157227 </v>
   <v>       0.44072314       0.28703058       0.25507750 </v>
   <v>       0.05878163       0.38860997       0.83357238 </v>
   <v>       0.30856938       0.88765585       0.83351390 </v>
   <v>       0.44692755       0.62631674       0.70039564 </v>
   <v>       0.05976462       0.21269310       0.74491002 </v>
   <v>       0.17873674       0.45167416       0.21137958 </v>
   <v>       0.56776410       0.21051120       0.47750272 </v>
   <v>       0.06660862       0.87497232       0.56685780 </v>
   <v>       0.56827344       0.22393718       0.87611682 </v>
   <v>       0.80874300       0.52786109       0.12398269 </v>
   <v>       0.42867252       0.95146429       0.21138118 </v>
   <v>       0.56671555       0.37496777       0.56685643 </v>
   <v>       0.81101402       0.04162136       0.38822788 </v>
   <v>       0.68201388       0.78873235       0.52231644 </v>
   <v>       0.44278084       0.46079624       0.47746413 </v>
   <v>       0.43397339       0.96260727       0.74477467 </v>
   <v>       0.44154169       0.62499960       0.56686957 </v>
   <v>       0.57153587       0.87641095       0.70055032 </v>
   <v>       0.30758341       0.02635327       0.12388563 </v>
   <v>       0.69013154       0.95913410       0.34400480 </v>
   <v>       0.68614739       0.78275545       0.12416942 </v>
   <v>       0.05273135       0.37379306       0.29956370 </v>
   <v>       0.68985867       0.46783870       0.87608793 </v>
   <v>       0.42912580       0.45155695       0.21154406 </v>
   <v>       0.80857381       0.37538150       0.43304920 </v>
   <v>       0.56340020       0.70840674       0.61158179 </v>
   <v>       0.55975601       0.54066762       0.65590957 </v>
   <v>       0.81714919       0.86246643       0.16658664 </v>
   <v>       0.56565108       0.53752171       0.25513783 </v>
   <v>       0.68967676       0.45881066       0.34398066 </v>
   <v>       0.19132052       0.61143308       0.16652744 </v>
   <v>       0.19454830       0.79944683       0.78883834 </v>
   <v>       0.44732919       0.12609306       0.70041942 </v>
   <v>       0.92783683       0.62364637       0.29961381 </v>
   <v>       0.31751719       0.22365240       0.87614099 </v>
   <v>       0.31658894       0.87471129       0.56682561 </v>
   <v>       0.81758546       0.22385662       0.87619212 </v>
   <v>       0.80966053       0.54072430       0.65582012 </v>
   <v>       0.55844083       0.52766338       0.12384123 </v>
   <v>       0.56934069       0.04980937       0.78896271 </v>
   <v>       0.19068868       0.28720506       0.25518443 </v>
   <v>       0.80866807       0.87496998       0.43303497 </v>
   <v>       0.57223520       0.37623060       0.70039776 </v>
   <v>       0.05755447       0.02635457       0.12396536 </v>
   <v>       0.30972532       0.54064277       0.65597663 </v>
   <v>       0.56490516       0.20907590       0.34391546 </v>
   <v>       0.18825836       0.95863373       0.61149765 </v>
   <v>       0.30275458       0.37406173       0.29965392 </v>
   <v>       0.43469184       0.79052721       0.65599055 </v>
   <v>       0.19493605       0.29899967       0.78879485 </v>
   <v>       0.06768096       0.36236097       0.16659572 </v>
   <v>       0.69700507       0.62630688       0.70043222 </v>
   <v>       0.31127250       0.54150848       0.38845864 </v>
   <v>       0.06771176       0.72329432       0.87621870 </v>
   <v>       0.93379119       0.63752124       0.83396057 </v>
   <v>       0.31972539       0.54972005       0.78894295 </v>
   <v>       0.30454767       0.20060970       0.21119686 </v>
   <v>       0.06794350       0.71035077       0.47734633 </v>
   <v>       0.55425636       0.20098358       0.21111707 </v>
   <v>       0.30971628       0.21237146       0.74493172 </v>
   <v>       0.07201982       0.37640966       0.70052821 </v>
   <v>       0.18331473       0.63765645       0.83357391 </v>
   <v>       0.06946911       0.04958898       0.78900780 </v>
   <v>       0.44158844       0.12498339       0.56692605 </v>
   <v>       0.93481632       0.29055256       0.65584708 </v>
   <v>       0.80417490       0.20107512       0.21121365 </v>
   <v>       0.92873105       0.95147738       0.21127084 </v>
   <v>       0.94144438       0.62522429       0.56682475 </v>
   <v>       0.80841629       0.38752668       0.83352562 </v>
   <v>       0.19724578       0.62604603       0.70030152 </v>
   <v>       0.80860984       0.88777706       0.83354888 </v>
   <v>       0.68495248       0.29074677       0.65604813 </v>
   <v>       0.31313794       0.20836457       0.61150786 </v>
   <v>       0.43463923       0.46282241       0.74488844 </v>
   <v>       0.43623502       0.79089791       0.38841736 </v>
   <v>       0.68448599       0.96257755       0.74485024 </v>
   <v>       0.80388613       0.70093598       0.21130882 </v>
   <v>       0.81348953       0.70830384       0.61158255 </v>
   <v>       0.43680972       0.78316823       0.12422066 </v>
   <v>       0.30984126       0.71210493       0.74480719 </v>
   <v>       0.32010655       0.04952982       0.78885246 </v>
   <v>       0.81136477       0.54207586       0.38828808 </v>
   <v>       0.68238786       0.28836374       0.52249343 </v>
   <v>       0.69493923       0.79928692       0.78888767 </v>
   <v>       0.19076584       0.78740547       0.25531910 </v>
   <v>       0.69162027       0.11226785       0.16642969 </v>
   <v>       0.69241558       0.96056975       0.47730458 </v>
   <v>       0.94024164       0.95921583       0.34407071 </v>
   <v>       0.80737402       0.03940747       0.52268391 </v>
   <v>       0.31680967       0.86198750       0.16662863 </v>
   <v>       0.43941500       0.45847244       0.34395854 </v>
   <v>       0.81071345       0.21152408       0.74463492 </v>
   <v>       0.43966117       0.96784509       0.87608540 </v>
   <v>       0.56676672       0.87488375       0.56683859 </v>
   <v>       0.80803780       0.02696742       0.12391654 </v>
   <v>       0.42819011       0.62366668       0.29937384 </v>
   <v>       0.81710235       0.72382226       0.87632120 </v>
   <v>       0.68825636       0.45860667       0.61149768 </v>
   <v>       0.55844485       0.38755377       0.83343133 </v>
   <v>       0.80296268       0.37358366       0.29949255 </v>
   <v>       0.18600452       0.29099768       0.38836772 </v>
   <v>       0.82003444       0.54947596       0.78891513 </v>
   <v>       0.18226492       0.78945201       0.52252760 </v>
   <v>       0.30296284       0.87395677       0.29954480 </v>
   <v>       0.17895640       0.95120437       0.21121623 </v>
   <v>       0.18453310       0.46258311       0.74494755 </v>
   <v>       0.43230572       0.28883899       0.52233139 </v>
   <v>       0.06496077       0.70863791       0.34383044 </v>
   <v>       0.18482751       0.79057764       0.65588374 </v>
   <v>       0.44472684       0.79926280       0.78883350 </v>
   <v>       0.68391467       0.12494293       0.43289930 </v>
   <v>       0.93232252       0.78895970       0.52251366 </v>
   <v>       0.69173621       0.61252611       0.16671571 </v>
   <v>       0.81450967       0.70787620       0.34375028 </v>
   <v>       0.93434387       0.46269177       0.74493034 </v>
   <v>       0.18983143       0.45881283       0.34402515 </v>
   <v>       0.56985741       0.54990673       0.78899192 </v>
   <v>       0.56643365       0.36235193       0.16645794 </v>
   <v>       0.56468006       0.70868666       0.34392987 </v>
   <v>       0.55301536       0.37369378       0.29959616 </v>
   <v>       0.18974104       0.46802978       0.87610955 </v>
   <v>       0.19254590       0.11190143       0.16658927 </v>
   <v>       0.44462029       0.29913534       0.78881245 </v>
   <v>       0.69096228       0.78734486       0.25541970 </v>
   <v>       0.93372709       0.13778894       0.83354795 </v>
   <v>       0.44256902       0.96064944       0.47747190 </v>
   <v>       0.56753755       0.72471387       0.87622320 </v>
   <v>       0.19262572       0.46089211       0.47746459 </v>
   <v>       0.93557058       0.28240860       0.12423687 </v>
   <v>       0.31155085       0.04139827       0.38841736 </v>
   <v>       0.06015588       0.04044316       0.65603837 </v>
   <v>       0.55854306       0.37496063       0.43308120 </v>
   <v>       0.68424558       0.46276111       0.74495696 </v>
   <v>       0.56009588       0.21249995       0.74483368 </v>
   <v>       0.94707872       0.12629451       0.70036113 </v>
   <v>       0.55966844       0.04068255       0.65583722 </v>
   <v>       0.55718167       0.53930842       0.52252093 </v>
   <v>       0.17801684       0.12346967       0.29955519 </v>
   <v>       0.44167686       0.11203720       0.16651614 </v>
   <v>       0.67765307       0.62362015       0.29962121 </v>
   <v>       0.92823314       0.12337345       0.29964130 </v>
   <v>       0.81662033       0.37502139       0.56691272 </v>
   <v>       0.05295740       0.87381014       0.29949812 </v>
   <v>       0.19166609       0.62495889       0.56691474 </v>
   <v>       0.94485165       0.79957395       0.78881575 </v>
   <v>       0.30847357       0.38738625       0.83350497 </v>
   <v>       0.93977148       0.46844647       0.87611017 </v>
   <v>       0.43361504       0.63784522       0.83352767 </v>
   <v>       0.06464590       0.20852515       0.34382480 </v>
   <v>       0.18968834       0.96803578       0.87611375 </v>
   <v>       0.93563773       0.78229291       0.12414305 </v>
   <v>       0.68646704       0.79141116       0.38844059 </v>
   <v>       0.93474592       0.79057007       0.65588341 </v>
   <v>       0.94168474       0.11195252       0.16641639 </v>
   <v>       0.43507012       0.29078740       0.65605868 </v>
   <v>       0.05458876       0.20091709       0.21120643 </v>
   <v>       0.67889367       0.95154150       0.21133989 </v>
   <v>       0.17840577       0.62355247       0.29941861 </v>
   <v>       0.82206042       0.87615561       0.70040485 </v>
   <v>       0.94682421       0.62641707       0.70050313 </v>
   <v>       0.19717634       0.12623620       0.70034778 </v>
   <v>       0.94231243       0.46076965       0.47723501 </v>
   <v>       0.81346393       0.20832073       0.61157517 </v>
   <v>       0.18343928       0.62495548       0.43312731 </v>
   <v>       0.42797274       0.12351641       0.29949575 </v>
   <v>       0.67798904       0.12365786       0.29952483 </v>
   <v>       0.56130661       0.54179408       0.38844981 </v>
   <v>       0.81463003       0.20826208       0.34387221 </v>
   <v>       0.43993243       0.46797499       0.87591588 </v>
   <v>       0.55849066       0.88757048       0.83349923 </v>
   <v>       0.31766584       0.21035088       0.47732639 </v>
   <v>       0.19253397       0.96067034       0.47739458 </v>
   <v>       0.05865668       0.88776479       0.83348677 </v>
   <v>       0.05729761       0.53906497       0.52251844 </v>
   <v>       0.94267927       0.96059034       0.47730026 </v>
   <v>       0.06354710       0.70824992       0.61159749 </v>
   <v>       0.55722873       0.03911967       0.52255587 </v>
   <v>       0.69510051       0.29919296       0.78878464 </v>
   <v>       0.81766519       0.36168626       0.16663420 </v>
   <v>       0.43338280       0.12487404       0.43294308 </v>
   <v>       0.06788019       0.21051795       0.47740556 </v>
   <v>       0.30979132       0.04062844       0.65590350 </v>
   <v>       0.43169339       0.78921732       0.52244961 </v>
   <v>       0.18355809       0.13786922       0.83360858 </v>
   <v>       0.18608168       0.28276334       0.12425983 </v>
   <v>       0.93986530       0.45950742       0.34400894 </v>
   <v>       0.56743140       0.86200814       0.16658992 </v>
   <v>       0.30404122       0.70104205       0.21117207 </v>
   <v>       0.94144057       0.61223415       0.16659526 </v>
   <v>       0.18837932       0.45858180       0.61150373 </v>
   <v>       0.07226437       0.87647530       0.70036012 </v>
   <v>       0.05976048       0.54065122       0.65589414 </v>
   <v>       0.30842267       0.52608909       0.12395520 </v>
   <v>       0.93612510       0.79129611       0.38843747 </v>
   <v>       0.94502570       0.29878966       0.78877679 </v>
   <v>       0.18467572       0.29059958       0.65588737 </v>
   <v>       0.93821456       0.95833223       0.61148865 </v>
   <v>       0.80993191       0.71209350       0.74481943 </v>
   <v>       0.69117529       0.28742894       0.25526050 </v>
   <v>       0.05930545       0.71233563       0.74499167 </v>
   <v>       0.67895614       0.45133996       0.21123842 </v>
   <v>       0.81768619       0.21059202       0.47745411 </v>
   <v>       0.56759112       0.71056596       0.47741828 </v>
   <v>       0.06689793       0.86231734       0.16661378 </v>
   <v>       0.93223668       0.28893130       0.52250598 </v>
   <v>       0.68467800       0.79039801       0.65587427 </v>
   <v>       0.05856538       0.87515755       0.43303540 </v>
   <v>       0.06812671       0.22314810       0.87616080 </v>
   <v>       0.80978395       0.04059779       0.65593687 </v>
   <v>       0.55863879       0.02649387       0.12399220 </v>
   <v>       0.30885588       0.37491725       0.43288240 </v>
   <v>       0.31654274       0.37495417       0.56685997 </v>
   <v>       0.31751120       0.71046716       0.47724690 </v>
   <v>       0.05699128       0.03919731       0.52251396 </v>
   <v>       0.32188646       0.87633627       0.70053960 </v>
   <v>       0.06540932       0.53778626       0.25525437 </v>
   <v>       0.68342627       0.13765739       0.83353615 </v>
   <v>       0.81497793       0.03778814       0.25513628 </v>
   <v>       0.18335976       0.12499330       0.43308585 </v>
   <v>       0.69731358       0.12629302       0.70042877 </v>
   <v>       0.18256156       0.28951875       0.52250850 </v>
   <v>       0.44097132       0.78751679       0.25539910 </v>
   <v>       0.44165826       0.61100102       0.16652803 </v>
   <v>       0.06360462       0.20853441       0.61156181 </v>
   <v>       0.18612798       0.79123853       0.38829085 </v>
   <v>       0.30695908       0.53876568       0.52244257 </v>
   <v>       0.82189488       0.37614247       0.70021443 </v>
   <v>       0.68669611       0.29147045       0.38840258 </v>
   <v>       0.19166538       0.12504117       0.56694764 </v>
   <v>       0.68984500       0.96837729       0.87608478 </v>
   <v>       0.69148753       0.12495241       0.56687106 </v>
   <v>       0.44000783       0.95896789       0.34405625 </v>
   <v>       0.18396441       0.96263841       0.74474861 </v>
   <v>       0.94058443       0.78777205       0.25520326 </v>
   <v>       0.55911444       0.87501563       0.43298481 </v>
   <v>       0.30870307       0.87531585       0.43301408 </v>
   <v>       0.80721217       0.53945945       0.52251957 </v>
   <v>       0.92923289       0.45151901       0.21123944 </v>
   <v>       0.31536624       0.53777061       0.25512927 </v>
   <v>       0.56153329       0.04159044       0.38839339 </v>
   <v>       0.93840848       0.45831642       0.61158671 </v>
   <v>       0.06125204       0.04154769       0.38841334 </v>
   <v>       0.06139350       0.54159472       0.38841637 </v>
   <v>       0.43606661       0.29127316       0.38838088 </v>
   <v>       0.69278802       0.46073840       0.47729047 </v>
   <v>       0.06654138       0.37498880       0.56688079 </v>
   <v>       0.55430052       0.70071469       0.21118000 </v>
   <v>       0.94060523       0.28743255       0.25521336 </v>
   <v>       0.81931489       0.04962454       0.78905257 </v>
   <v>       0.18998779       0.95879776       0.34401150 </v>
   <v>       0.55288853       0.87385149       0.29958158 </v>
   <v>       0.05864519       0.37482115       0.43287672 </v>
   <v>       0.31492212       0.70933455       0.34399034 </v>
   <v>       0.31476915       0.20897891       0.34395209 </v>
   <v>       0.94169618       0.12514124       0.56675292 </v>
   <v>       0.43873606       0.95882575       0.61155418 </v>
   <v>       0.56517654       0.03777854       0.25508591 </v>
   <v>       0.18604094       0.78299693       0.12423611 </v>
   <v>       0.06545360       0.03768769       0.25513218 </v>
   <v>       0.69158562       0.62499414       0.56690454 </v>
   <v>       0.05722343       0.52696255       0.12408499 </v>
   <v>       0.30732328       0.03839856       0.52228617 </v>
   <v>       0.68730802       0.28214634       0.12424280 </v>
   <v>       0.81783148       0.71072692       0.47747780 </v>
   <v>       0.43346357       0.13769133       0.83353217 </v>
   <v>       0.32234293       0.37640192       0.70040823 </v>
   <v>       0.68361601       0.63773355       0.83351365 </v>
   <v>       0.55990530       0.71195279       0.74485489 </v>
   <v>       0.93670764       0.29145672       0.38847244 </v>
   <v>       0.93966359       0.96839549       0.87615706 </v>
   <v>       0.56300137       0.20806185       0.61142198 </v>
   <v>       0.81675151       0.87512547       0.56690982 </v>
   <v>       0.80335304       0.87342762       0.29942230 </v>
   <v>       0.31529679       0.03785157       0.25524251 </v>
   <v>       0.43629458       0.28316633       0.12400856 </v>
   <v>       0.31343596       0.70834413       0.61155826 </v>
   <v>       0.43390127       0.62479087       0.43288721 </v>
   <v>       0.93298002       0.62509661       0.43317671 </v>
   <v>       0.68208176       0.62412456       0.43304133 </v>
   <v>       0.07064358       0.54934515       0.78879703 </v>
   <v>       0.93384794       0.12540616       0.43312328 </v>
   <v>       0.31866329       0.36273210       0.16584134 </v>
   <v>       0.93342575       0.96211603       0.74469037 </v>
   <v>       0.81616592       0.53783141       0.25529445 </v>
  </varray>
 </structure>
 <calculation>
  <scstep>
   <time name="dav">   54.03   54.04</time>
   <time name="total">   54.17   54.22</time>
   <energy>
    <i name="alphaZ">  16403.00255340 </i>
    <i name="ewald"> 712567.84752863 </i>
    <i name="hartreedc">-904237.93204403 </i>
    <i name="XCdc">  -6389.71658504 </i>
    <i name="pawpsdc"> 163151.95320885 </i>
    <i name="pawaedc">-160818.84594568 </i>
    <i name="eentropy">     -1.04560571 </i>
    <i name="bandstr">  38626.15400726 </i>
    <i name="atom"> 169914.59583762 </i>
    <i name="e_fr_energy">  29216.01295530 </i>
    <i name="e_wo_entrp">  29217.05856101 </i>
    <i name="e_0_energy">  29216.53575815 </i>
   </energy>
  </scstep>
  <scstep>
   <time name="dav">   53.56   53.59</time>
   <time name="total">   53.57   53.60</time>
   <energy>
    <i name="e_fr_energy">   1193.32988027 </i>
    <i name="e_wo_entrp">   1194.79799519 </i>
    <i name="e_0_energy">   1194.06393773 </i>
   </energy>
  </scstep>
  <scstep>
   <time name="dav">   70.25   70.29</time>
   <time name="total">   70.25   70.30</time>
   <energy>
    <i name="e_fr_energy">  -1939.49408770 </i>
    <i name="e_wo_entrp">  -1935.92291365 </i>
    <i name="e_0_energy">  -1937.70850068 </i>
   </energy>
  </scstep>
  <scstep>
   <time name="dav">   88.08   88.11</time>
   <time name="total">   88.08   88.12</time>
   <energy>
    <i name="e_fr_energy">  -2606.69586381 </i>
    <i name="e_wo_entrp">  -2603.07481666 </i>
    <i name="e_0_energy">  -2604.88534024 </i>
   </energy>
  </scstep>
  <scstep>
   <time name="dav">   84.13   84.18</time>
   <time name="total">   86.25   86.30</time>
   <energy>
    <i name="e_fr_energy">  -2727.04804371 </i>
    <i name="e_wo_entrp">  -2723.25185865 </i>
    <i name="e_0_energy">  -2725.14995118 </i>
   </energy>
  </scstep>
  <scstep>
   <time name="diag">    8.28    8.28</time>
   <time name="diis">   37.80   37.81</time>
   <time name="orth">    2.28    2.28</time>
   <time name="total">   50.53   50.54</time>
   <energy>
    <i name="e_fr_energy">  -5966.58277755 </i>
    <i name="e_wo_entrp">  -5963.12449660 </i>
    <i name="e_0_energy">  -5964.85363707 </i>
   </energy>
  </scstep>
  <scstep>
   <time name="diag">    8.27    8.28</time>
   <time name="diis">   37.36   37.37</time>
   <time name="orth">    2.28    2.28</time>
   <time name="total">   50.14   50.19</time>
[...]
       <r>     5.8537     0.0000  2772.0000 </r>
       <r>     5.8964     0.0000  2772.0000 </r>
       <r>     5.9391     0.0000  2772.0000 </r>
       <r>     5.9818     0.0000  2772.0000 </r>
       <r>     6.0245     0.0000  2772.0000 </r>
       <r>     6.0672     0.0000  2772.0000 </r>
       <r>     6.1099     0.0000  2772.0000 </r>
       <r>     6.1526     0.0000  2772.0000 </r>
       <r>     6.1952     0.0000  2772.0000 </r>
       <r>     6.2379     0.0000  2772.0000 </r>
       <r>     6.2806     0.0000  2772.0000 </r>
       <r>     6.3233     0.0000  2772.0000 </r>
       <r>     6.3660     0.0000  2772.0000 </r>
       <r>     6.4087     0.0000  2772.0000 </r>
       <r>     6.4514     0.0000  2772.0000 </r>
       <r>     6.4941     0.0000  2772.0000 </r>
       <r>     6.5368     0.0000  2772.0000 </r>
       <r>     6.5795     0.0000  2772.0000 </r>
       <r>     6.6222     0.0000  2772.0000 </r>
       <r>     6.6649     0.0000  2772.0000 </r>
       <r>     6.7076     0.0000  2772.0000 </r>
       <r>     6.7503     0.0000  2772.0000 </r>
       <r>     6.7930     0.0000  2772.0000 </r>
      </set>
     </set>
    </array>
   </total>
  </dos>
 </calculation>
 <structure name="finalpos" >
  <crystal>
   <varray name="basis" >
    <v>       9.72667804       0.00000000       0.00000000 </v>
    <v>       0.00000000       8.42355028       0.00000000 </v>
    <v>       0.00000000       0.00000000      45.00000000 </v>
   </varray>
   <i name="volume">   3686.99226691 </i>
   <varray name="rec_basis" >
    <v>       0.10281002       0.00000000       0.00000000 </v>
    <v>       0.00000000       0.11871479       0.00000000 </v>
    <v>       0.00000000       0.00000000       0.02222222 </v>
   </varray>
  </crystal>
  <varray name="positions" >
   <v>       0.05768946       0.70096597       0.21111880 </v>
   <v>       0.31610311       0.72052783       0.87574093 </v>
   <v>       0.68847358       0.95789931       0.61145753 </v>
   <v>       0.43844256       0.45791767       0.61148380 </v>
   <v>       0.43666180       0.28698001       0.25555659 </v>
   <v>       0.06089620       0.38674914       0.83415652 </v>
   <v>       0.31122780       0.88674909       0.83424075 </v>
   <v>       0.44239307       0.62650074       0.70038677 </v>
   <v>       0.06376092       0.21326134       0.74450564 </v>
   <v>       0.18249775       0.45132102       0.21130274 </v>
   <v>       0.56386605       0.20888392       0.47784009 </v>
   <v>       0.06419209       0.87477022       0.56684754 </v>
   <v>       0.56572238       0.21991140       0.87568930 </v>
   <v>       0.81012005       0.53024674       0.12453027 </v>
   <v>       0.43290231       0.95109736       0.21117626 </v>
   <v>       0.56412696       0.37468136       0.56678199 </v>
   <v>       0.81183352       0.04228067       0.38840533 </v>
   <v>       0.68598360       0.79090254       0.52216204 </v>
   <v>       0.43876588       0.45902108       0.47785341 </v>
   <v>       0.43796856       0.96283266       0.74449362 </v>
   <v>       0.43912195       0.62456954       0.56683705 </v>
   <v>       0.56749187       0.87636608       0.70032609 </v>
   <v>       0.30998815       0.03077510       0.12449578 </v>
   <v>       0.68656228       0.95803412       0.34396360 </v>
   <v>       0.68677953       0.77920768       0.12455542 </v>
   <v>       0.05753090       0.37335229       0.29964279 </v>
   <v>       0.68899533       0.47131625       0.87547184 </v>
   <v>       0.43292729       0.45133403       0.21115858 </v>
   <v>       0.81113721       0.37523141       0.43298262 </v>
   <v>       0.56333782       0.70809331       0.61149745 </v>
   <v>       0.56290229       0.54128026       0.65577624 </v>
   <v>       0.81422069       0.86378060       0.16599894 </v>
   <v>       0.56106988       0.53693312       0.25554272 </v>
   <v>       0.68650679       0.45820635       0.34406438 </v>
   <v>       0.18841664       0.61263021       0.16621751 </v>
   <v>       0.19182900       0.79929195       0.78874128 </v>
   <v>       0.44250542       0.12649494       0.70040744 </v>
   <v>       0.93285199       0.62319613       0.29964645 </v>
   <v>       0.31541378       0.22003660       0.87570217 </v>
   <v>       0.31407306       0.87456496       0.56674820 </v>
   <v>       0.81537654       0.22001147       0.87570881 </v>
   <v>       0.81289868       0.54160790       0.65577404 </v>
   <v>       0.55987084       0.53016276       0.12441126 </v>
   <v>       0.56690818       0.04958973       0.78895444 </v>
   <v>       0.18665269       0.28701545       0.25551110 </v>
   <v>       0.81081342       0.87524003       0.43302929 </v>
   <v>       0.56728366       0.37657773       0.70046461 </v>
   <v>       0.06033734       0.02962842       0.12442438 </v>
   <v>       0.31298319       0.54115639       0.65576052 </v>
   <v>       0.56175163       0.20821081       0.34418897 </v>
   <v>       0.18835110       0.95796959       0.61146631 </v>
   <v>       0.30773979       0.37357536       0.29965205 </v>
   <v>       0.43791498       0.79163298       0.65580234 </v>
   <v>       0.19180103       0.29843400       0.78887169 </v>
   <v>       0.06434666       0.36363800       0.16602414 </v>
   <v>       0.69227007       0.62654382       0.70035985 </v>
   <v>       0.31140541       0.54158975       0.38838268 </v>
   <v>       0.06545923       0.72000098       0.87587363 </v>
   <v>       0.93626658       0.63686103       0.83426478 </v>
   <v>       0.31742866       0.54978361       0.78894763 </v>
   <v>       0.30743301       0.20071340       0.21115084 </v>
   <v>       0.06400476       0.70914116       0.47791009 </v>
   <v>       0.55750354       0.20099631       0.21107449 </v>
   <v>       0.31375184       0.21340445       0.74441185 </v>
   <v>       0.06737515       0.37690059       0.70037947 </v>
   <v>       0.18621834       0.63682772       0.83406178 </v>
   <v>       0.06693050       0.04922391       0.78893032 </v>
   <v>       0.43903076       0.12470694       0.56683688 </v>
   <v>       0.93810689       0.29174231       0.65569088 </v>
   <v>       0.80754753       0.20150341       0.21107605 </v>
   <v>       0.93273298       0.95151929       0.21124015 </v>
   <v>       0.93913867       0.62481681       0.56679170 </v>
   <v>       0.81089114       0.38677386       0.83418170 </v>
   <v>       0.19212131       0.62668514       0.70037600 </v>
   <v>       0.81112848       0.88652497       0.83426351 </v>
   <v>       0.68806416       0.29132269       0.65580521 </v>
   <v>       0.31357227       0.20797869       0.61150208 </v>
   <v>       0.43820554       0.46260379       0.74441711 </v>
   <v>       0.43659935       0.79177668       0.38839453 </v>
   <v>       0.68773219       0.96283015       0.74452677 </v>
   <v>       0.80753698       0.70101624       0.21113729 </v>
   <v>       0.81323549       0.70809629       0.61143427 </v>
   <v>       0.43704798       0.77924018       0.12470054 </v>
   <v>       0.31303982       0.71299668       0.74442485 </v>
   <v>       0.31727252       0.04949853       0.78898603 </v>
   <v>       0.81157841       0.54174696       0.38841207 </v>
   <v>       0.68598878       0.29087397       0.52221934 </v>
   <v>       0.69207801       0.79944097       0.78890272 </v>
   <v>       0.18655910       0.78773544       0.25548992 </v>
   <v>       0.68883795       0.11268732       0.16615324 </v>
   <v>       0.68895334       0.95909709       0.47785356 </v>
   <v>       0.93693908       0.95825452       0.34407451 </v>
   <v>       0.81100597       0.04017289       0.52205119 </v>
   <v>       0.31430512       0.86327967       0.16594363 </v>
   <v>       0.43659282       0.45828864       0.34403990 </v>
   <v>       0.81315339       0.21342179       0.74448869 </v>
   <v>       0.43904528       0.97150893       0.87552411 </v>
   <v>       0.56415026       0.87435701       0.56678018 </v>
   <v>       0.81007024       0.02986643       0.12438573 </v>
   <v>       0.43234841       0.62334473       0.29969450 </v>
   <v>       0.81519771       0.72045769       0.87584948 </v>
   <v>       0.68826927       0.45783344       0.61143573 </v>
   <v>       0.56123535       0.38693579       0.83406465 </v>
   <v>       0.80743479       0.37310760       0.29959651 </v>
   <v>       0.18647355       0.29173451       0.38838070 </v>
   <v>       0.81657772       0.54961460       0.78907775 </v>
   <v>       0.18613088       0.79064139       0.52217486 </v>
   <v>       0.30764054       0.87346824       0.29970020 </v>
   <v>       0.18249669       0.95128023       0.21122512 </v>
   <v>       0.18859950       0.46291745       0.74444404 </v>
   <v>       0.43603433       0.29076042       0.52205499 </v>
   <v>       0.06214871       0.70853838       0.34420233 </v>
   <v>       0.18815701       0.79112041       0.65571455 </v>
   <v>       0.44182823       0.79958775       0.78878749 </v>
   <v>       0.68503075       0.12517336       0.43307259 </v>
   <v>       0.93618230       0.79037626       0.52225508 </v>
   <v>       0.68878733       0.61367451       0.16613392 </v>
   <v>       0.81168376       0.70882292       0.34425076 </v>
   <v>       0.93831798       0.46267621       0.74442916 </v>
   <v>       0.18682675       0.45840013       0.34412826 </v>
   <v>       0.56741304       0.54921527       0.78898634 </v>
   <v>       0.56466425       0.36380175       0.16580684 </v>
   <v>       0.56163729       0.70840472       0.34424451 </v>
   <v>       0.55783143       0.37339240       0.29956329 </v>
   <v>       0.18894586       0.47121669       0.87557769 </v>
   <v>       0.18903767       0.11303952       0.16603977 </v>
   <v>       0.44189849       0.29880781       0.78882273 </v>
   <v>       0.68625690       0.78734452       0.25550260 </v>
   <v>       0.93673451       0.13662556       0.83410905 </v>
   <v>       0.43880443       0.95921374       0.47781099 </v>
   <v>       0.56558103       0.72016151       0.87572554 </v>
   <v>       0.18875093       0.45903491       0.47779050 </v>
   <v>       0.93620960       0.27965501       0.12455073 </v>
   <v>       0.31146209       0.04168891       0.38843055 </v>
   <v>       0.06292062       0.04101682       0.65576104 </v>
   <v>       0.56100769       0.37468020       0.43305495 </v>
   <v>       0.68762725       0.46244149       0.74449684 </v>
   <v>       0.56352265       0.21351138       0.74444900 </v>
   <v>       0.94264392       0.12689731       0.70038214 </v>
   <v>       0.56305738       0.04114324       0.65580850 </v>
   <v>       0.56100781       0.54074850       0.52210937 </v>
   <v>       0.18257457       0.12341881       0.29956925 </v>
   <v>       0.43824086       0.11259106       0.16615330 </v>
   <v>       0.68226461       0.62333668       0.29966633 </v>
   <v>       0.93244994       0.12296644       0.29961315 </v>
   <v>       0.81407586       0.37485434       0.56690492 </v>
   <v>       0.05788305       0.87332268       0.29962462 </v>
   <v>       0.18901381       0.62480868       0.56687094 </v>
   <v>       0.94109603       0.79911325       0.78892844 </v>
   <v>       0.31129172       0.38681787       0.83419678 </v>
   <v>       0.93933075       0.47150121       0.87558543 </v>
   <v>       0.43664379       0.63714536       0.83411023 </v>
   <v>       0.06173453       0.20834031       0.34416729 </v>
   <v>       0.18891585       0.97106340       0.87550612 </v>
   <v>       0.93658787       0.77939176       0.12455847 </v>
   <v>       0.68636065       0.79187590       0.38836618 </v>
   <v>       0.93801219       0.79154059       0.65578095 </v>
   <v>       0.93894565       0.11282471       0.16611163 </v>
   <v>       0.43778334       0.29147319       0.65584983 </v>
   <v>       0.05808187       0.20116370       0.21106037 </v>
   <v>       0.68276428       0.95154351       0.21128556 </v>
   <v>       0.18242567       0.62363741       0.29971655 </v>
   <v>       0.81713955       0.87652641       0.70034686 </v>
   <v>       0.94251981       0.62674289       0.70040472 </v>
   <v>       0.19232332       0.12692576       0.70038198 </v>
   <v>       0.93893817       0.45875704       0.47780007 </v>
   <v>       0.81325690       0.20799880       0.61143593 </v>
   <v>       0.18578756       0.62527395       0.43299750 </v>
   <v>       0.43260545       0.12342456       0.29968472 </v>
   <v>       0.68248912       0.12290214       0.29966047 </v>
   <v>       0.56141457       0.54133924       0.38833960 </v>
   <v>       0.81191645       0.20821468       0.34425988 </v>
   <v>       0.43919267       0.47142588       0.87547994 </v>
   <v>       0.56117501       0.88662221       0.83420279 </v>
   <v>       0.31402287       0.20929626       0.47781725 </v>
   <v>       0.18849709       0.95922583       0.47783264 </v>
   <v>       0.06092477       0.88679628       0.83421397 </v>
   <v>       0.06104031       0.54055048       0.52202537 </v>
   <v>       0.93907521       0.95884959       0.47784475 </v>
   <v>       0.06334274       0.70801950       0.61140095 </v>
   <v>       0.56086956       0.04057514       0.52208011 </v>
   <v>       0.69203746       0.29873498       0.78876252 </v>
   <v>       0.81456108       0.36343178       0.16598908 </v>
   <v>       0.43547991       0.12474459       0.43304969 </v>
   <v>       0.06397565       0.20912932       0.47789364 </v>
   <v>       0.31311076       0.04130056       0.65578656 </v>
   <v>       0.43612414       0.79062125       0.52212915 </v>
   <v>       0.18672626       0.13678666       0.83411259 </v>
   <v>       0.18670760       0.27890950       0.12443331 </v>
   <v>       0.93694282       0.45829375       0.34405719 </v>
   <v>       0.56503690       0.86359128       0.16598990 </v>
   <v>       0.30752114       0.70068048       0.21113899 </v>
   <v>       0.93835751       0.61368959       0.16620884 </v>
   <v>       0.18835515       0.45804688       0.61144433 </v>
   <v>       0.06731379       0.87661533       0.70025923 </v>
   <v>       0.06299245       0.54137495       0.65587736 </v>
   <v>       0.31047082       0.53028051       0.12414073 </v>
   <v>       0.93618544       0.79196711       0.38843545 </v>
   <v>       0.94160206       0.29868201       0.78883356 </v>
   <v>       0.18793851       0.29149662       0.65585167 </v>
   <v>       0.93847888       0.95800656       0.61148710 </v>
   <v>       0.81356766       0.71298704       0.74455867 </v>
   <v>       0.68641180       0.28742334       0.25546502 </v>
   <v>       0.06392687       0.71291987       0.74443913 </v>
   <v>       0.68258452       0.45118774       0.21123342 </v>
   <v>       0.81380599       0.20870974       0.47784078 </v>
   <v>       0.56387169       0.70935248       0.47788467 </v>
   <v>       0.06386868       0.86351366       0.16597820 </v>
   <v>       0.93612519       0.29042468       0.52217136 </v>
   <v>       0.68758021       0.79144719       0.65579697 </v>
   <v>       0.06119973       0.87511739       0.43300018 </v>
   <v>       0.06573128       0.21952268       0.87582323 </v>
   <v>       0.81301168       0.04113607       0.65574897 </v>
   <v>       0.56001301       0.02973931       0.12442545 </v>
   <v>       0.31070818       0.37472563       0.43308566 </v>
   <v>       0.31413748       0.37459868       0.56674907 </v>
   <v>       0.31394591       0.70920966       0.47785398 </v>
   <v>       0.06131499       0.04071793       0.52202096 </v>
   <v>       0.31732173       0.87662871       0.70040175 </v>
   <v>       0.06178724       0.53691997       0.25549557 </v>
   <v>       0.68658324       0.13725810       0.83407265 </v>
   <v>       0.81147042       0.03684036       0.25555984 </v>
   <v>       0.18677506       0.12506805       0.43303667 </v>
   <v>       0.69233329       0.12649504       0.70035456 </v>
   <v>       0.18627575       0.29062258       0.52219455 </v>
   <v>       0.43671999       0.78747731       0.25546041 </v>
   <v>       0.43886367       0.61257608       0.16607398 </v>
   <v>       0.06321817       0.20783048       0.61139442 </v>
   <v>       0.18632991       0.79156475       0.38839826 </v>
   <v>       0.31127374       0.54097951       0.52208098 </v>
   <v>       0.81725915       0.37680803       0.70036101 </v>
   <v>       0.68627202       0.29210784       0.38845224 </v>
   <v>       0.18917822       0.12475271       0.56681038 </v>
   <v>       0.68900371       0.97168934       0.87552029 </v>
   <v>       0.68906164       0.12499584       0.56684116 </v>
   <v>       0.43698291       0.95846351       0.34415323 </v>
   <v>       0.18835402       0.96288301       0.74451547 </v>
   <v>       0.93689745       0.78765226       0.25548891 </v>
   <v>       0.56088392       0.87582365       0.43302231 </v>
   <v>       0.31093835       0.87535747       0.43306208 </v>
   <v>       0.81098271       0.54047728       0.52211941 </v>
   <v>       0.93275564       0.45123988       0.21135214 </v>
   <v>       0.31165264       0.53659056       0.25563870 </v>
   <v>       0.56124535       0.04201734       0.38843796 </v>
   <v>       0.93832947       0.45772535       0.61148333 </v>
   <v>       0.06158192       0.04177836       0.38839813 </v>
   <v>       0.06141466       0.54171227       0.38841798 </v>
   <v>       0.43659773       0.29165492       0.38838632 </v>
   <v>       0.68889812       0.45900212       0.47792024 </v>
   <v>       0.06427267       0.37477542       0.56688313 </v>
   <v>       0.55765561       0.70102360       0.21116859 </v>
   <v>       0.93663066       0.28698272       0.25553288 </v>
   <v>       0.81659391       0.04941869       0.78891205 </v>
   <v>       0.18696865       0.95836648       0.34412332 </v>
   <v>       0.55778518       0.87349163       0.29968305 </v>
   <v>       0.06126377       0.37469188       0.43299908 </v>
   <v>       0.31182137       0.70781947       0.34416696 </v>
   <v>       0.31179865       0.20790149       0.34413610 </v>
   <v>       0.93907997       0.12501521       0.56680909 </v>
   <v>       0.43815251       0.95795211       0.61145685 </v>
   <v>       0.56086109       0.03698775       0.25558182 </v>
   <v>       0.18602655       0.77914797       0.12462830 </v>
   <v>       0.06201307       0.03701120       0.25552541 </v>
   <v>       0.68902101       0.62471682       0.56684508 </v>
   <v>       0.06053782       0.52990721       0.12442433 </v>
   <v>       0.31090892       0.04137263       0.52209153 </v>
   <v>       0.68733111       0.27994882       0.12458461 </v>
   <v>       0.81383206       0.70917898       0.47789461 </v>
   <v>       0.43669893       0.13672454       0.83397079 </v>
   <v>       0.31753866       0.37626017       0.70037723 </v>
   <v>       0.68695039       0.63707414       0.83407867 </v>
   <v>       0.56327194       0.71281928       0.74447356 </v>
   <v>       0.93623816       0.29219759       0.38841750 </v>
   <v>       0.93934547       0.97117353       0.87550270 </v>
   <v>       0.56349549       0.20816373       0.61144704 </v>
   <v>       0.81409649       0.87474873       0.56690379 </v>
   <v>       0.80742085       0.87337416       0.29959326 </v>
   <v>       0.31131383       0.03696839       0.25553997 </v>
   <v>       0.43667970       0.27958815       0.12421700 </v>
   <v>       0.31330681       0.70818197       0.61146462 </v>
   <v>       0.43543793       0.62514768       0.43307289 </v>
   <v>       0.93675307       0.62522375       0.43308601 </v>
   <v>       0.68429835       0.62522894       0.43311902 </v>
   <v>       0.06724509       0.54932416       0.78877935 </v>
   <v>       0.93575404       0.12504547       0.43311854 </v>
   <v>       0.31505647       0.36337797       0.16558902 </v>
   <v>       0.93758036       0.96307882       0.74463091 </v>
   <v>       0.81194571       0.53680180       0.25537621 </v>
  </varray>
 </structure>
</modeling>
