unknown system                          
           1
     9.726678    0.000000    0.000000
     0.000000    8.423550    0.000000
     0.000000    0.000000   45.000000
   Fe   Mn
 281   7
Direct configuration=     1
   0.05394659  0.70096245  0.21124653
   0.31838705  0.72367871  0.87628214
   0.68829629  0.95853643  0.61149792
   0.43847343  0.45855776  0.61157227
   0.44072314  0.28703058  0.25507750
   0.05878163  0.38860997  0.83357238
   0.30856938  0.88765585  0.83351390
   0.44692755  0.62631674  0.70039564
   0.05976462  0.21269310  0.74491002
   0.17873674  0.45167416  0.21137958
   0.56776410  0.21051120  0.47750272
   0.06660862  0.87497232  0.56685780
   0.56827344  0.22393718  0.87611682
   0.80874300  0.52786109  0.12398269
   0.42867252  0.95146429  0.21138118
   0.56671555  0.37496777  0.56685643
   0.81101402  0.04162136  0.38822788
   0.68201388  0.78873235  0.52231644
   0.44278084  0.46079624  0.47746413
   0.43397339  0.96260727  0.74477467
   0.44154169  0.62499960  0.56686957
   0.57153587  0.87641095  0.70055032
   0.30758341  0.02635327  0.12388563
   0.69013154  0.95913410  0.34400480
   0.68614739  0.78275545  0.12416942
   0.05273135  0.37379306  0.29956370
   0.68985867  0.46783870  0.87608793
   0.42912580  0.45155695  0.21154406
   0.80857381  0.37538150  0.43304920
   0.56340020  0.70840674  0.61158179
   0.55975601  0.54066762  0.65590957
   0.81714919  0.86246643  0.16658664
   0.56565108  0.53752171  0.25513783
   0.68967676  0.45881066  0.34398066
   0.19132052  0.61143308  0.16652744
   0.19454830  0.79944683  0.78883834
   0.44732919  0.12609306  0.70041942
   0.92783683  0.62364637  0.29961381
   0.31751719  0.22365240  0.87614099
   0.31658894  0.87471129  0.56682561
   0.81758546  0.22385662  0.87619212
   0.80966053  0.54072430  0.65582012
   0.55844083  0.52766338  0.12384123
   0.56934069  0.04980937  0.78896271
   0.19068868  0.28720506  0.25518443
   0.80866807  0.87496998  0.43303497
   0.57223520  0.37623060  0.70039776
   0.05755447  0.02635457  0.12396536
   0.30972532  0.54064277  0.65597663
   0.56490516  0.20907590  0.34391546
   0.18825836  0.95863373  0.61149765
   0.30275458  0.37406173  0.29965392
   0.43469184  0.79052721  0.65599055
   0.19493605  0.29899967  0.78879485
   0.06768096  0.36236097  0.16659572
   0.69700507  0.62630688  0.70043222
   0.31127250  0.54150848  0.38845864
   0.06771176  0.72329432  0.87621870
   0.93379119  0.63752124  0.83396057
   0.31972539  0.54972005  0.78894295
   0.30454767  0.20060970  0.21119686
   0.06794350  0.71035077  0.47734633
   0.55425636  0.20098358  0.21111707
   0.30971628  0.21237146  0.74493172
   0.07201982  0.37640966  0.70052821
   0.18331473  0.63765645  0.83357391
   0.06946911  0.04958898  0.78900780
   0.44158844  0.12498339  0.56692605
   0.93481632  0.29055256  0.65584708
   0.80417490  0.20107512  0.21121365
   0.92873105  0.95147738  0.21127084
   0.94144438  0.62522429  0.56682475
   0.80841629  0.38752668  0.83352562
   0.19724578  0.62604603  0.70030152
   0.80860984  0.88777706  0.83354888
   0.68495248  0.29074677  0.65604813
   0.31313794  0.20836457  0.61150786
   0.43463923  0.46282241  0.74488844
   0.43623502  0.79089791  0.38841736
   0.68448599  0.96257755  0.74485024
   0.80388613  0.70093598  0.21130882
   0.81348953  0.70830384  0.61158255
   0.43680972  0.78316823  0.12422066
   0.30984126  0.71210493  0.74480719
   0.32010655  0.04952982  0.78885246
   0.81136477  0.54207586  0.38828808
   0.68238786  0.28836374  0.52249343
   0.69493923  0.79928692  0.78888767
   0.19076584  0.78740547  0.25531910
   0.69162027  0.11226785  0.16642969
   0.69241558  0.96056975  0.47730458
   0.94024164  0.95921583  0.34407071
   0.80737402  0.03940747  0.52268391
   0.31680967  0.86198750  0.16662863
   0.43941500  0.45847244  0.34395854
   0.81071345  0.21152408  0.74463492
   0.43966117  0.96784509  0.87608540
   0.56676672  0.87488375  0.56683859
   0.80803780  0.02696742  0.12391654
   0.42819011  0.62366668  0.29937384
   0.81710235  0.72382226  0.87632120
   0.68825636  0.45860667  0.61149768
   0.55844485  0.38755377  0.83343133
   0.80296268  0.37358366  0.29949255
   0.18600452  0.29099768  0.38836772
   0.82003444  0.54947596  0.78891513
   0.18226492  0.78945201  0.52252760
   0.30296284  0.87395677  0.29954480
   0.17895640  0.95120437  0.21121623
   0.18453310  0.46258311  0.74494755
   0.43230572  0.28883899  0.52233139
   0.06496077  0.70863791  0.34383044
   0.18482751  0.79057764  0.65588374
   0.44472684  0.79926280  0.78883350
   0.68391467  0.12494293  0.43289930
   0.93232252  0.78895970  0.52251366
   0.69173621  0.61252611  0.16671571
   0.81450967  0.70787620  0.34375028
   0.93434387  0.46269177  0.74493034
   0.18983143  0.45881283  0.34402515
   0.56985741  0.54990673  0.78899192
   0.56643365  0.36235193  0.16645794
   0.56468006  0.70868666  0.34392987
   0.55301536  0.37369378  0.29959616
   0.18974104  0.46802978  0.87610955
   0.19254590  0.11190143  0.16658927
   0.44462029  0.29913534  0.78881245
   0.69096228  0.78734486  0.25541970
   0.93372709  0.13778894  0.83354795
   0.44256902  0.96064944  0.47747190
   0.56753755  0.72471387  0.87622320
   0.19262572  0.46089211  0.47746459
   0.93557058  0.28240860  0.12423687
   0.31155085  0.04139827  0.38841736
   0.06015588  0.04044316  0.65603837
   0.55854306  0.37496063  0.43308120
   0.68424558  0.46276111  0.74495696
   0.56009588  0.21249995  0.74483368
   0.94707872  0.12629451  0.70036113
   0.55966844  0.04068255  0.65583722
   0.55718167  0.53930842  0.52252093
   0.17801684  0.12346967  0.29955519
   0.44167686  0.11203720  0.16651614
   0.67765307  0.62362015  0.29962121
   0.92823314  0.12337345  0.29964130
   0.81662033  0.37502139  0.56691272
   0.05295740  0.87381014  0.29949812
   0.19166609  0.62495889  0.56691474
   0.94485165  0.79957395  0.78881575
   0.30847357  0.38738625  0.83350497
   0.93977148  0.46844647  0.87611017
   0.43361504  0.63784522  0.83352767
   0.06464590  0.20852515  0.34382480
   0.18968834  0.96803578  0.87611375
   0.93563773  0.78229291  0.12414305
   0.68646704  0.79141116  0.38844059
   0.93474592  0.79057007  0.65588341
   0.94168474  0.11195252  0.16641639
   0.43507012  0.29078740  0.65605868
   0.05458876  0.20091709  0.21120643
   0.67889367  0.95154150  0.21133989
   0.17840577  0.62355247  0.29941861
   0.82206042  0.87615561  0.70040485
   0.94682421  0.62641707  0.70050313
   0.19717634  0.12623620  0.70034778
   0.94231243  0.46076965  0.47723501
   0.81346393  0.20832073  0.61157517
   0.18343928  0.62495548  0.43312731
   0.42797274  0.12351641  0.29949575
   0.67798904  0.12365786  0.29952483
   0.56130661  0.54179408  0.38844981
   0.81463003  0.20826208  0.34387221
   0.43993243  0.46797499  0.87591588
   0.55849066  0.88757048  0.83349923
   0.31766584  0.21035088  0.47732639
   0.19253397  0.96067034  0.47739458
   0.05865668  0.88776479  0.83348677
   0.05729761  0.53906497  0.52251844
   0.94267927  0.96059034  0.47730026
   0.06354710  0.70824992  0.61159749
   0.55722873  0.03911967  0.52255587
   0.69510051  0.29919296  0.78878464
   0.81766519  0.36168626  0.16663420
   0.43338280  0.12487404  0.43294308
   0.06788019  0.21051795  0.47740556
   0.30979132  0.04062844  0.65590350
   0.43169339  0.78921732  0.52244961
   0.18355809  0.13786922  0.83360858
   0.18608168  0.28276334  0.12425983
   0.93986530  0.45950742  0.34400894
   0.56743140  0.86200814  0.16658992
   0.30404122  0.70104205  0.21117207
   0.94144057  0.61223415  0.16659526
   0.18837932  0.45858180  0.61150373
   0.07226437  0.87647530  0.70036012
   0.05976048  0.54065122  0.65589414
   0.30842267  0.52608909  0.12395520
   0.93612510  0.79129611  0.38843747
   0.94502570  0.29878966  0.78877679
   0.18467572  0.29059958  0.65588737
   0.93821456  0.95833223  0.61148865
   0.80993191  0.71209350  0.74481943
   0.69117529  0.28742894  0.25526050
   0.05930545  0.71233563  0.74499167
   0.67895614  0.45133996  0.21123842
   0.81768619  0.21059202  0.47745411
   0.56759112  0.71056596  0.47741828
   0.06689793  0.86231734  0.16661378
   0.93223668  0.28893130  0.52250598
   0.68467800  0.79039801  0.65587427
   0.05856538  0.87515755  0.43303540
   0.06812671  0.22314810  0.87616080
   0.80978395  0.04059779  0.65593687
   0.55863879  0.02649387  0.12399220
   0.30885588  0.37491725  0.43288240
   0.31654274  0.37495417  0.56685997
   0.31751120  0.71046716  0.47724690
   0.05699128  0.03919731  0.52251396
   0.32188646  0.87633627  0.70053960
   0.06540932  0.53778626  0.25525437
   0.68342627  0.13765739  0.83353615
   0.81497793  0.03778814  0.25513628
   0.18335976  0.12499330  0.43308585
   0.69731358  0.12629302  0.70042877
   0.18256156  0.28951875  0.52250850
   0.44097132  0.78751679  0.25539910
   0.44165826  0.61100102  0.16652803
   0.06360462  0.20853441  0.61156181
   0.18612798  0.79123853  0.38829085
   0.30695908  0.53876568  0.52244257
   0.82189488  0.37614247  0.70021443
   0.68669611  0.29147045  0.38840258
   0.19166538  0.12504117  0.56694764
   0.68984500  0.96837729  0.87608478
   0.69148753  0.12495241  0.56687106
   0.44000783  0.95896789  0.34405625
   0.18396441  0.96263841  0.74474861
   0.94058443  0.78777205  0.25520326
   0.55911444  0.87501563  0.43298481
   0.30870307  0.87531585  0.43301408
   0.80721217  0.53945945  0.52251957
   0.92923289  0.45151901  0.21123944
   0.31536624  0.53777061  0.25512927
   0.56153329  0.04159044  0.38839339
   0.93840848  0.45831642  0.61158671
   0.06125204  0.04154769  0.38841334
   0.06139350  0.54159472  0.38841637
   0.43606661  0.29127316  0.38838088
   0.69278802  0.46073840  0.47729047
   0.06654138  0.37498880  0.56688079
   0.55430052  0.70071469  0.21118000
   0.94060523  0.28743255  0.25521336
   0.81931489  0.04962454  0.78905257
   0.18998779  0.95879776  0.34401150
   0.55288853  0.87385149  0.29958158
   0.05864519  0.37482115  0.43287672
   0.31492212  0.70933455  0.34399034
   0.31476915  0.20897891  0.34395209
   0.94169618  0.12514124  0.56675292
   0.43873606  0.95882575  0.61155418
   0.56517654  0.03777854  0.25508591
   0.18604094  0.78299693  0.12423611
   0.06545360  0.03768769  0.25513218
   0.69158562  0.62499414  0.56690454
   0.05722343  0.52696255  0.12408499
   0.30732328  0.03839856  0.52228617
   0.68730802  0.28214634  0.12424280
   0.81783148  0.71072692  0.47747780
   0.43346357  0.13769133  0.83353217
   0.32234293  0.37640192  0.70040823
   0.68361601  0.63773355  0.83351365
   0.55990530  0.71195279  0.74485489
   0.93670764  0.29145672  0.38847244
   0.93966359  0.96839549  0.87615706
   0.56300137  0.20806185  0.61142198
   0.81675151  0.87512547  0.56690982
   0.80335304  0.87342762  0.29942230
   0.31529679  0.03785157  0.25524251
   0.43629458  0.28316633  0.12400856
   0.31343596  0.70834413  0.61155826
   0.43390127  0.62479087  0.43288721
   0.93298002  0.62509661  0.43317671
   0.68208176  0.62412456  0.43304133
   0.07064358  0.54934515  0.78879703
   0.93384794  0.12540616  0.43312328
   0.31866329  0.36273210  0.16584134
   0.93342575  0.96211603  0.74469037
   0.81616592  0.53783141  0.25529445
Direct configuration=     2
   0.05448534  0.70096296  0.21122814
   0.31805830  0.72322518  0.87620424
   0.68832181  0.95844472  0.61149211
   0.43846898  0.45846562  0.61155954
   0.44013855  0.28702330  0.25514646
   0.05908600  0.38834212  0.83365646
   0.30895203  0.88752533  0.83361852
   0.44627486  0.62634323  0.70039436
   0.06033984  0.21277489  0.74485182
   0.17927810  0.45162333  0.21136852
   0.56720301  0.21027697  0.47755128
   0.06626079  0.87494323  0.56685632
   0.56790624  0.22335771  0.87605528
   0.80894121  0.52820448  0.12406151
   0.42928135  0.95141148  0.21135169
   0.56634295  0.37492654  0.56684572
   0.81113198  0.04171626  0.38825343
   0.68258528  0.78904473  0.52229421
   0.44220293  0.46054073  0.47752017
   0.43454845  0.96263971  0.74473422
   0.44119339  0.62493770  0.56686489
   0.57095378  0.87640449  0.70051804
   0.30792955  0.02698974  0.12397346
   0.68961778  0.95897577  0.34399887
   0.68623838  0.78224478  0.12422498
   0.05342220  0.37372962  0.29957509
   0.68973440  0.46833926  0.87599925
   0.42967298  0.45152486  0.21148857
   0.80894278  0.37535990  0.43303961
   0.56339122  0.70836163  0.61156965
   0.56020889  0.54075581  0.65589038
   0.81672766  0.86265559  0.16650205
   0.56499166  0.53743699  0.25519611
   0.68922048  0.45872367  0.34399271
   0.19090254  0.61160539  0.16648283
   0.19415688  0.79942453  0.78882437
   0.44663486  0.12615091  0.70041770
   0.92855871  0.62358156  0.29961851
   0.31721442  0.22313194  0.87607782
   0.31622681  0.87469022  0.56681447
   0.81726751  0.22330315  0.87612255
   0.81012662  0.54085148  0.65581349
   0.55864666  0.52802314  0.12392328
   0.56899055  0.04977776  0.78896152
   0.19010774  0.28717777  0.25523145
   0.80897687  0.87500885  0.43303416
   0.57152248  0.37628056  0.70040739
   0.05795504  0.02682581  0.12403143
   0.31019426  0.54071670  0.65594552
   0.56445124  0.20895138  0.34395483
   0.18827171  0.95853813  0.61149314
   0.30347215  0.37399173  0.29965365
   0.43515578  0.79068637  0.65596346
   0.19448480  0.29891825  0.78880591
   0.06720102  0.36254478  0.16651345
   0.69632352  0.62634098  0.70042181
   0.31129163  0.54152018  0.38844771
   0.06738753  0.72282028  0.87616903
   0.93414750  0.63742621  0.83400435
   0.31939480  0.54972920  0.78894363
   0.30496299  0.20062463  0.21119024
   0.06737656  0.71017666  0.47742748
   0.55472376  0.20098541  0.21111094
   0.31029716  0.21252015  0.74485689
   0.07135127  0.37648032  0.70050680
   0.18373267  0.63753717  0.83364413
   0.06910370  0.04953643  0.78899665
   0.44122029  0.12494359  0.56691321
   0.93528997  0.29072381  0.65582459
   0.80466035  0.20113677  0.21119384
   0.92930709  0.95148341  0.21126642
   0.94111249  0.62516564  0.56681999
   0.80877252  0.38741832  0.83362006
   0.19650817  0.62613802  0.70031224
   0.80897237  0.88759683  0.83365174
   0.68540037  0.29082967  0.65601317
   0.31320046  0.20830903  0.61150703
   0.43515257  0.46279094  0.74482059
   0.43628746  0.79102440  0.38841408
   0.68495325  0.96261391  0.74480368
   0.80441163  0.70094754  0.21128413
   0.81345297  0.70827396  0.61156121
   0.43684402  0.78260283  0.12428973
   0.31030166  0.71223329  0.74475215
   0.31969862  0.04952531  0.78887169
   0.81139552  0.54202852  0.38830593
   0.68290618  0.28872506  0.52245398
   0.69452738  0.79930910  0.78888984
   0.19016032  0.78745296  0.25534369
   0.69121978  0.11232822  0.16638990
   0.69191723  0.96035778  0.47738360
   0.93976627  0.95907746  0.34407125
   0.80789680  0.03951765  0.52259284
   0.31644917  0.86217349  0.16653003
   0.43900878  0.45844598  0.34397025
   0.81106465  0.21179723  0.74461387
   0.43957252  0.96837246  0.87600461
   0.56639011  0.87480793  0.56683018
   0.80833035  0.02738471  0.12398408
   0.42878865  0.62362034  0.29942000
   0.81682820  0.72333797  0.87625330
   0.68825822  0.45849537  0.61148876
   0.55884651  0.38746482  0.83352249
   0.80360639  0.37351513  0.29950751
   0.18607203  0.29110374  0.38836959
   0.81953688  0.54949591  0.78893854
   0.18282138  0.78962321  0.52247683
   0.30363614  0.87388645  0.29956717
   0.17946599  0.95121529  0.21121751
   0.18511842  0.46263123  0.74487507
   0.43284241  0.28911556  0.52229160
   0.06455601  0.70862359  0.34388397
   0.18530676  0.79065577  0.65585939
   0.44430962  0.79930957  0.78882688
   0.68407531  0.12497609  0.43292425
   0.93287809  0.78916360  0.52247644
   0.69131175  0.61269141  0.16663196
   0.81410291  0.70801247  0.34382232
   0.93491590  0.46268953  0.74485820
   0.18939894  0.45875343  0.34403999
   0.56950557  0.54980721  0.78899112
   0.56617896  0.36256062  0.16636422
   0.56424209  0.70864608  0.34397516
   0.55370858  0.37365040  0.29959143
   0.18962658  0.46848850  0.87603299
   0.19204093  0.11206524  0.16651018
   0.44422852  0.29908820  0.78881393
   0.69028499  0.78734481  0.25543163
   0.93415998  0.13762149  0.83362871
   0.44202715  0.96044279  0.47752070
   0.56725593  0.72405860  0.87615157
   0.19206799  0.46062478  0.47751150
   0.93566256  0.28201225  0.12428205
   0.31153807  0.04144011  0.38841926
   0.06055383  0.04052573  0.65599845
   0.55889782  0.37492026  0.43307742
   0.68473234  0.46271510  0.74489073
   0.56058913  0.21264553  0.74477831
   0.94644037  0.12638128  0.70036415
   0.56015624  0.04074886  0.65583309
   0.55773240  0.53951571  0.52246169
   0.17867288  0.12346235  0.29955721
   0.44118228  0.11211692  0.16646391
   0.67831685  0.62357935  0.29962770
   0.92884011  0.12331486  0.29963724
   0.81625408  0.37499734  0.56691160
   0.05366639  0.87373997  0.29951633
   0.19128433  0.62493726  0.56690843
   0.94431107  0.79950764  0.78883197
   0.30887921  0.38730444  0.83360455
   0.93970804  0.46888616  0.87603464
   0.43405100  0.63774448  0.83361152
   0.06422684  0.20849855  0.34387410
   0.18957715  0.96847158  0.87602629
   0.93577449  0.78187532  0.12420285
   0.68645173  0.79147806  0.38842988
   0.93521606  0.79070976  0.65586866
   0.94129048  0.11207807  0.16637252
   0.43546066  0.29088611  0.65602862
   0.05509156  0.20095259  0.21118541
   0.67945081  0.95154179  0.21133207
   0.17898439  0.62356470  0.29946150
   0.82135211  0.87620898  0.70039650
   0.94620464  0.62646397  0.70048896
   0.19647780  0.12633545  0.70035270
   0.94182674  0.46047996  0.47731634
   0.81343413  0.20827439  0.61155513
   0.18377729  0.62500132  0.43310862
   0.42863957  0.12350319  0.29952295
   0.67863678  0.12354908  0.29954436
   0.56132215  0.54172861  0.38843395
   0.81423944  0.20825526  0.34392801
   0.43982595  0.46847171  0.87585314
   0.55887705  0.88743399  0.83360050
   0.31714148  0.21019908  0.47739704
   0.19195290  0.96046242  0.47745763
   0.05898315  0.88762538  0.83359144
   0.05783634  0.53927880  0.52244747
   0.94216050  0.96033978  0.47737863
   0.06351768  0.70821676  0.61156920
   0.55775279  0.03932917  0.52248739
   0.69465962  0.29912704  0.78878146
   0.81721839  0.36193751  0.16654134
   0.43368466  0.12485541  0.43295843
   0.06731817  0.21031807  0.47747582
   0.31026912  0.04072518  0.65588666
   0.43233115  0.78941940  0.52240348
   0.18401412  0.13771340  0.83368112
   0.18617177  0.28220862  0.12428480
   0.93944464  0.45933272  0.34401589
   0.56708673  0.86223601  0.16650356
   0.30454212  0.70099000  0.21116731
   0.94099680  0.61244364  0.16653964
   0.18837584  0.45850481  0.61149518
   0.07155179  0.87649545  0.70034560
   0.06022568  0.54075539  0.65589172
   0.30871748  0.52669240  0.12398191
   0.93613379  0.79139270  0.38843718
   0.94453291  0.29877417  0.78878496
   0.18514536  0.29072870  0.65588223
   0.93825261  0.95828536  0.61148843
   0.81045524  0.71222212  0.74478190
   0.69048964  0.28742814  0.25528994
   0.05997066  0.71241973  0.74491214
   0.67947841  0.45131805  0.21123770
   0.81712768  0.21032109  0.47750977
   0.56705575  0.71039130  0.47748541
   0.06646190  0.86248954  0.16652229
   0.93279639  0.28914626  0.52245781
   0.68509574  0.79054902  0.65586314
   0.05894457  0.87515177  0.43303033
   0.06778191  0.22262626  0.87611221
   0.81024855  0.04067527  0.65590982
   0.55883659  0.02696102  0.12405456
   0.30912250  0.37488967  0.43291166
   0.31619653  0.37490300  0.56684401
   0.31699802  0.71028616  0.47733429
   0.05761363  0.03941619  0.52244300
   0.32122941  0.87637836  0.70051975
   0.06488796  0.53766157  0.25528908
   0.68388068  0.13759992  0.83361337
   0.81447306  0.03765172  0.25519724
   0.18385136  0.12500406  0.43307877
   0.69659672  0.12632210  0.70041809
   0.18309618  0.28967763  0.52246331
   0.44035939  0.78751111  0.25540793
   0.44125600  0.61122774  0.16646267
   0.06354899  0.20843309  0.61153772
   0.18615705  0.79128549  0.38830631
   0.30758013  0.53908433  0.52239052
   0.82122761  0.37623827  0.70023553
   0.68663507  0.29156220  0.38840973
   0.19130738  0.12499965  0.56692789
   0.68972391  0.96885403  0.87600352
   0.69113835  0.12495866  0.56686676
   0.43957243  0.95889529  0.34407021
   0.18459625  0.96267361  0.74471505
   0.94005373  0.78775481  0.25524438
   0.55936914  0.87513193  0.43299021
   0.30902482  0.87532184  0.43302099
   0.80775490  0.53960596  0.52246197
   0.92973996  0.45147883  0.21125566
   0.31483170  0.53760076  0.25520260
   0.56149184  0.04165189  0.38839981
   0.93839710  0.45823134  0.61157183
   0.06129952  0.04158089  0.38841115
   0.06139654  0.54161164  0.38841660
   0.43614306  0.29132811  0.38838166
   0.69222811  0.46048848  0.47738112
   0.06621482  0.37495809  0.56688112
   0.55478345  0.70075916  0.21117836
   0.94003313  0.28736780  0.25525935
   0.81892323  0.04959491  0.78903234
   0.18955321  0.95873568  0.34402760
   0.55359335  0.87379969  0.29959619
   0.05902211  0.37480254  0.43289433
   0.31447580  0.70911647  0.34401576
   0.31434158  0.20882382  0.34397857
   0.94131960  0.12512310  0.56676100
   0.43865206  0.95870000  0.61154017
   0.56455538  0.03766471  0.25515729
   0.18603887  0.78244291  0.12429256
   0.06495838  0.03759032  0.25518878
   0.69121647  0.62495422  0.56689598
   0.05770050  0.52738640  0.12413384
   0.30783940  0.03882665  0.52225815
   0.68731135  0.28183003  0.12429200
   0.81725580  0.71050411  0.47753780
   0.43392926  0.13755217  0.83359530
   0.32165141  0.37638152  0.70040377
   0.68409596  0.63763863  0.83359498
   0.56038990  0.71207751  0.74480000
   0.93664006  0.29156336  0.38846453
   0.93961780  0.96879536  0.87606287
   0.56307249  0.20807652  0.61142559
   0.81636935  0.87507124  0.56690895
   0.80393856  0.87341993  0.29944691
   0.31472348  0.03772444  0.25528532
   0.43635001  0.28265129  0.12403856
   0.31341737  0.70832079  0.61154478
   0.43412246  0.62484223  0.43291394
   0.93352311  0.62511491  0.43316365
   0.68240081  0.62428352  0.43305251
   0.07015440  0.54934212  0.78879448
   0.93412230  0.12535425  0.43312260
   0.31814412  0.36282507  0.16580502
   0.93402376  0.96225462  0.74468181
   0.81555847  0.53768321  0.25530622
Direct configuration=     3
   0.05610158  0.70096448  0.21117299
   0.31707205  0.72186457  0.87597053
   0.68839837  0.95816960  0.61147467
   0.43845565  0.45818922  0.61152134
   0.43838479  0.28700146  0.25535334
   0.05999911  0.38753858  0.83390870
   0.31009999  0.88713377  0.83393239
   0.44431678  0.62642268  0.70039053
   0.06206552  0.21302027  0.74467720
   0.18090217  0.45147084  0.21133534
   0.56551976  0.20957428  0.47769696
   0.06521728  0.87485596  0.56685189
   0.56680465  0.22161930  0.87587067
   0.80953585  0.52923464  0.12429797
   0.43110785  0.95125303  0.21126320
   0.56522515  0.37480287  0.56681357
   0.81148586  0.04200096  0.38833005
   0.68429948  0.78998185  0.52222754
   0.44046919  0.45977418  0.47768826
   0.43627364  0.96273704  0.74461286
   0.44014851  0.62475199  0.56685084
   0.56920750  0.87638511  0.70042122
   0.30896796  0.02889918  0.12423693
   0.68807651  0.95850078  0.34398108
   0.68651135  0.78071279  0.12439167
   0.05549473  0.37353928  0.29960924
   0.68936159  0.46984093  0.87573321
   0.43131454  0.45142860  0.21132211
   0.81004970  0.37529509  0.43301086
   0.56336429  0.70822628  0.61153324
   0.56156751  0.54102036  0.65583280
   0.81546308  0.86322307  0.16624827
   0.56301341  0.53718283  0.25537095
   0.68785162  0.45846273  0.34402886
   0.18964859  0.61212234  0.16634899
   0.19298264  0.79935765  0.78878246
   0.44455186  0.12632445  0.70041252
   0.93072435  0.62338714  0.29963261
   0.31630613  0.22157057  0.87588833
   0.31514040  0.87462704  0.56678104
   0.81631366  0.22164274  0.87591385
   0.81152492  0.54123304  0.65579359
   0.55926417  0.52910242  0.12416943
   0.56794015  0.04968291  0.78895795
   0.18836493  0.28709589  0.25537251
   0.80990327  0.87512546  0.43303170
   0.56938431  0.37643046  0.70043625
   0.05915673  0.02823952  0.12422965
   0.31160107  0.54093849  0.65585220
   0.56308949  0.20857782  0.34407294
   0.18831176  0.95825134  0.61147961
   0.30562485  0.37378170  0.29965284
   0.43654759  0.79116386  0.65588219
   0.19313104  0.29867398  0.78883909
   0.06576121  0.36309623  0.16626663
   0.69427886  0.62644330  0.70039055
   0.31134902  0.54155527  0.38841491
   0.06641485  0.72139815  0.87602002
   0.93521642  0.63714112  0.83413572
   0.31840303  0.54975665  0.78894565
   0.30620893  0.20066941  0.21117037
   0.06567574  0.70965433  0.47767092
   0.55612595  0.20099091  0.21109256
   0.31203979  0.21296622  0.74463240
   0.06934561  0.37669232  0.70044257
   0.18498651  0.63717930  0.83385480
   0.06800749  0.04937879  0.78896319
   0.44011584  0.12482422  0.56687471
   0.93671090  0.29123757  0.65575714
   0.80611672  0.20132171  0.21113442
   0.93103519  0.95150151  0.21125317
   0.94011685  0.62498968  0.56680572
   0.80984121  0.38709323  0.83390336
   0.19429532  0.62641400  0.70034440
   0.81005997  0.88705616  0.83396033
   0.68674406  0.29107836  0.65590827
   0.31338801  0.20814240  0.61150453
   0.43669257  0.46269654  0.74461706
   0.43644479  0.79140387  0.38840422
   0.68635502  0.96272299  0.74466400
   0.80598813  0.70098219  0.21121006
   0.81334327  0.70818434  0.61149717
   0.43694690  0.78090662  0.12449695
   0.31168286  0.71261836  0.74458706
   0.31847483  0.04951180  0.78892936
   0.81148777  0.54188650  0.38835947
   0.68446112  0.28980903  0.52233562
   0.69329186  0.79937562  0.78889634
   0.18834377  0.78759545  0.25541745
   0.69001833  0.11250936  0.16627052
   0.69042217  0.95972186  0.47762066
   0.93834016  0.95866235  0.34407290
   0.80946515  0.03984817  0.52231962
   0.31536766  0.86273148  0.16623423
   0.43779011  0.45836662  0.34400538
   0.81211826  0.21261670  0.74455072
   0.43930657  0.96995458  0.87576223
   0.56526027  0.87458047  0.56680496
   0.80920800  0.02863655  0.12418668
   0.43058429  0.62348131  0.29955846
   0.81600574  0.72188508  0.87604961
   0.68826380  0.45816148  0.61146201
   0.56005150  0.38719796  0.83379597
   0.80553753  0.37330956  0.29955241
   0.18627457  0.29142191  0.38837519
   0.81804421  0.54955578  0.78900876
   0.18449078  0.79013681  0.52232451
   0.30565606  0.87367549  0.29963428
   0.18099475  0.95124804  0.21122135
   0.18687436  0.46277561  0.74465765
   0.43445250  0.28994527  0.52217225
   0.06334170  0.70858060  0.34404456
   0.18674450  0.79089014  0.65578633
   0.44305794  0.79944989  0.78880701
   0.68455726  0.12507560  0.43299908
   0.93454482  0.78977530  0.52236478
   0.69003837  0.61318731  0.16638074
   0.81288263  0.70842128  0.34403843
   0.93663200  0.46268281  0.74464178
   0.18810146  0.45857521  0.34408452
   0.56845005  0.54950862  0.78898871
   0.56541490  0.36318668  0.16608307
   0.56292816  0.70852433  0.34411102
   0.55578825  0.37352026  0.29957723
   0.18928321  0.46986467  0.87580332
   0.19052601  0.11255670  0.16627289
   0.44305319  0.29894676  0.78881837
   0.68825312  0.78734466  0.25546743
   0.93545864  0.13711912  0.83387101
   0.44040153  0.95982282  0.47766713
   0.56641107  0.72209281  0.87593667
   0.19039478  0.45982281  0.47765223
   0.93593850  0.28082320  0.12441758
   0.31149974  0.04156561  0.38842496
   0.06174770  0.04077345  0.65587869
   0.55996209  0.37479917  0.43306608
   0.68619260  0.46257709  0.74469204
   0.56206887  0.21308229  0.74461220
   0.94452535  0.12664158  0.70037323
   0.56161965  0.04094780  0.65582069
   0.55938460  0.54013756  0.52228397
   0.18064099  0.12344038  0.29956328
   0.43969855  0.11235609  0.16630723
   0.68030820  0.62345694  0.29964719
   0.93066100  0.12313911  0.29962509
   0.81515533  0.37492521  0.56690823
   0.05579338  0.87352948  0.29957095
   0.19013902  0.62487240  0.56688952
   0.94268932  0.79930870  0.78888063
   0.31009614  0.38705900  0.83390328
   0.93951773  0.47020526  0.87580804
   0.43535887  0.63744227  0.83386308
   0.06296965  0.20841873  0.34402200
   0.18924357  0.96977896  0.87576390
   0.93618478  0.78062255  0.12438223
   0.68640579  0.79167874  0.38839774
   0.93662650  0.79112885  0.65582442
   0.94010769  0.11245469  0.16624092
   0.43663228  0.29118225  0.65593843
   0.05659995  0.20105907  0.21112234
   0.68112221  0.95154266  0.21130861
   0.18072026  0.62360138  0.29959015
   0.81922719  0.87636910  0.70037146
   0.94434592  0.62660467  0.70044647
   0.19438217  0.12663322  0.70036747
   0.94036967  0.45961088  0.47756035
   0.81334473  0.20813538  0.61149500
   0.18479132  0.62513884  0.43305257
   0.43064006  0.12346353  0.29960455
   0.68058000  0.12322275  0.29960293
   0.56136877  0.54153220  0.38838636
   0.81306766  0.20823479  0.34409541
   0.43950651  0.46996187  0.87566489
   0.56003620  0.88702451  0.83390431
   0.31556837  0.20974368  0.47760901
   0.19020970  0.95983865  0.47764680
   0.05996255  0.88720716  0.83390546
   0.05945250  0.53992027  0.52223455
   0.94060420  0.95958809  0.47761375
   0.06342943  0.70811726  0.61148433
   0.55932497  0.03995767  0.52228195
   0.69333693  0.29892927  0.78877191
   0.81587797  0.36269126  0.16626277
   0.43459023  0.12479951  0.43300446
   0.06563212  0.20971844  0.47768658
   0.31170252  0.04101542  0.65583617
   0.43424443  0.79002565  0.52226510
   0.18538219  0.13724593  0.83389876
   0.18644206  0.28054446  0.12435971
   0.93818266  0.45880864  0.34403672
   0.56605275  0.86291964  0.16624446
   0.30604481  0.70083387  0.21115302
   0.93966547  0.61307213  0.16637277
   0.18836540  0.45827382  0.61146953
   0.06941403  0.87655592  0.70030203
   0.06162131  0.54106791  0.65588448
   0.30960191  0.52850234  0.12406202
   0.93615984  0.79168245  0.38843631
   0.94305451  0.29872768  0.78880948
   0.18655430  0.29111606  0.65586682
   0.93836675  0.95814472  0.61148776
   0.81202523  0.71260796  0.74466930
   0.68843267  0.28742572  0.25537826
   0.06196627  0.71267201  0.74467354
   0.68104521  0.45125232  0.21123554
   0.81545214  0.20950829  0.47767674