 288 288   0   0
  0.1280206E+02  0.9726678E-09  0.8423550E-09  0.4500000E-08  0.2500000E-15
  1.000000000000000E-004
  CAR 
 unknown system                          
      6.74348036     -6.06265151  301      4.30112119      1.00000000
     -6.063  0.0000E+00  0.0000E+00
     -6.020  0.0000E+00  0.0000E+00
     -5.977  0.0000E+00  0.0000E+00
     -5.935  0.0000E+00  0.0000E+00
     -5.892  0.0000E+00  0.0000E+00
     -5.849  0.0000E+00  0.0000E+00
     -5.807  0.0000E+00  0.0000E+00
     -5.764  0.0000E+00  0.0000E+00
     -5.721  0.0000E+00  0.0000E+00
     -5.678  0.0000E+00  0.0000E+00
     -5.636  0.0000E+00  0.0000E+00
     -5.593  0.0000E+00  0.0000E+00
     -5.550  0.0000E+00  0.0000E+00
     -5.508  0.0000E+00  0.0000E+00
     -5.465  0.0000E+00  0.0000E+00
     -5.422  0.1626E-15  0.6939E-17
     -5.380  0.3739E-14  0.1665E-15
     -5.337  0.8020E-13  0.3590E-14
     -5.294  0.1463E-11  0.6603E-13
     -5.252  0.2273E-10  0.1036E-11
     -5.209  0.3009E-09  0.1388E-10
     -5.166  0.3395E-08  0.1588E-09
     -5.124  0.3265E-07  0.1552E-08
     -5.081  0.2677E-06  0.1298E-07
     -5.038  0.1873E-05  0.9294E-07
     -4.995  0.1119E-04  0.5707E-06
     -4.953  0.5719E-04  0.3012E-05
     -4.910  0.2503E-03  0.1370E-04
     -4.867  0.9418E-03  0.5390E-04
     -4.825  0.3059E-02  0.1845E-03
     -4.782  0.8632E-02  0.5529E-03
     -4.739  0.2135E-01  0.1465E-02
     -4.697  0.4685E-01  0.3465E-02
     -4.654  0.9238E-01  0.7408E-02
     -4.611  0.1659E+00  0.1449E-01
     -4.569  0.2745E+00  0.2621E-01
     -4.526  0.4220E+00  0.4422E-01
     -4.483  0.6064E+00  0.7011E-01
     -4.441  0.8187E+00  0.1051E+00
     -4.398  0.1043E+01  0.1496E+00
     -4.355  0.1260E+01  0.2034E+00
     -4.312  0.1450E+01  0.2653E+00
     -4.270  0.1601E+01  0.3336E+00
     -4.227  0.1709E+01  0.4066E+00
     -4.184  0.1789E+01  0.4830E+00
     -4.142  0.1863E+01  0.5625E+00
     -4.099  0.1956E+01  0.6460E+00
     -4.056  0.2091E+01  0.7352E+00
     -4.014  0.2275E+01  0.8323E+00
     -3.971  0.2496E+01  0.9388E+00
     -3.928  0.2727E+01  0.1055E+01
     -3.886  0.2931E+01  0.1180E+01
     -3.843  0.3077E+01  0.1312E+01
     -3.800  0.3145E+01  0.1446E+01
     -3.758  0.3144E+01  0.1580E+01
     -3.715  0.3102E+01  0.1713E+01
     -3.672  0.3065E+01  0.1843E+01
     -3.629  0.3075E+01  0.1975E+01
     -3.587  0.3158E+01  0.2109E+01
     -3.544  0.3314E+01  0.2251E+01
     -3.501  0.3525E+01  0.2401E+01
     -3.459  0.3752E+01  0.2562E+01
     -3.416  0.3957E+01  0.2731E+01
     -3.373  0.4107E+01  0.2906E+01
     -3.331  0.4188E+01  0.3085E+01
     -3.288  0.4206E+01  0.3264E+01
     -3.245  0.4191E+01  0.3443E+01
     -3.203  0.4184E+01  0.3622E+01
     -3.160  0.4227E+01  0.3802E+01
     -3.117  0.4346E+01  0.3988E+01
     -3.075  0.4540E+01  0.4181E+01
     -3.032  0.4783E+01  0.4386E+01
     -2.989  0.5032E+01  0.4600E+01
     -2.946  0.5238E+01  0.4824E+01
     -2.904  0.5366E+01  0.5053E+01
     -2.861  0.5407E+01  0.5284E+01
     -2.818  0.5394E+01  0.5514E+01
     -2.776  0.5383E+01  0.5744E+01
     -2.733  0.5420E+01  0.5975E+01
     -2.690  0.5509E+01  0.6210E+01
     -2.648  0.5606E+01  0.6450E+01
     -2.605  0.5653E+01  0.6691E+01
     -2.562  0.5624E+01  0.6931E+01
     -2.520  0.5561E+01  0.7168E+01
     -2.477  0.5556E+01  0.7406E+01
     -2.434  0.5712E+01  0.7649E+01
     -2.392  0.6078E+01  0.7909E+01
     -2.349  0.6608E+01  0.8191E+01
     -2.306  0.7153E+01  0.8496E+01
     -2.263  0.7521E+01  0.8817E+01
     -2.221  0.7580E+01  0.9141E+01
     -2.178  0.7350E+01  0.9455E+01
     -2.135  0.7003E+01  0.9754E+01
     -2.093  0.6773E+01  0.1004E+02
     -2.050  0.6834E+01  0.1033E+02
     -2.007  0.7219E+01  0.1064E+02
     -1.965  0.7811E+01  0.1098E+02
     -1.922  0.8407E+01  0.1133E+02
     -1.879  0.8812E+01  0.1171E+02
     -1.837  0.8934E+01  0.1209E+02
     -1.794  0.8831E+01  0.1247E+02
     -1.751  0.8663E+01  0.1284E+02
     -1.709  0.8590E+01  0.1321E+02
     -1.666  0.8687E+01  0.1358E+02
     -1.623  0.8929E+01  0.1396E+02
     -1.581  0.9239E+01  0.1435E+02
     -1.538  0.9547E+01  0.1476E+02
     -1.495  0.9824E+01  0.1518E+02
     -1.452  0.1007E+02  0.1561E+02
     -1.410  0.1028E+02  0.1605E+02
     -1.367  0.1045E+02  0.1649E+02
     -1.324  0.1061E+02  0.1695E+02
     -1.282  0.1085E+02  0.1741E+02
     -1.239  0.1132E+02  0.1789E+02
     -1.196  0.1211E+02  0.1841E+02
     -1.154  0.1316E+02  0.1897E+02
     -1.111  0.1423E+02  0.1958E+02
     -1.068  0.1501E+02  0.2022E+02
     -1.026  0.1536E+02  0.2088E+02
     -0.983  0.1539E+02  0.2153E+02
     -0.940  0.1545E+02  0.2219E+02
     -0.898  0.1592E+02  0.2287E+02
     -0.855  0.1702E+02  0.2360E+02
     -0.812  0.1870E+02  0.2440E+02
     -0.769  0.2080E+02  0.2528E+02
     -0.727  0.2328E+02  0.2628E+02
     -0.684  0.2627E+02  0.2740E+02
     -0.641  0.2995E+02  0.2868E+02
     -0.599  0.3429E+02  0.3014E+02
     -0.556  0.3891E+02  0.3180E+02
     -0.513  0.4324E+02  0.3365E+02
     -0.471  0.4682E+02  0.3565E+02
     -0.428  0.4952E+02  0.3776E+02
     -0.385  0.5152E+02  0.3996E+02
     -0.343  0.5314E+02  0.4223E+02
     -0.300  0.5456E+02  0.4456E+02
     -0.257  0.5581E+02  0.4694E+02
     -0.215  0.5677E+02  0.4936E+02
     -0.172  0.5732E+02  0.5181E+02
     -0.129  0.5752E+02  0.5427E+02
     -0.086  0.5757E+02  0.5672E+02
     -0.044  0.5771E+02  0.5919E+02
     -0.001  0.5817E+02  0.6167E+02
      0.042  0.5914E+02  0.6419E+02
      0.084  0.6078E+02  0.6679E+02
      0.127  0.6318E+02  0.6949E+02
      0.170  0.6627E+02  0.7231E+02
      0.212  0.6977E+02  0.7529E+02
      0.255  0.7329E+02  0.7842E+02
      0.298  0.7653E+02  0.8169E+02
      0.340  0.7932E+02  0.8507E+02
      0.383  0.8166E+02  0.8856E+02
      0.426  0.8356E+02  0.9213E+02
      0.468  0.8504E+02  0.9576E+02
      0.511  0.8608E+02  0.9943E+02
      0.554  0.8668E+02  0.1031E+03
      0.597  0.8684E+02  0.1068E+03
      0.639  0.8658E+02  0.1105E+03
      0.682  0.8588E+02  0.1142E+03
      0.725  0.8470E+02  0.1178E+03
      0.767  0.8304E+02  0.1214E+03
      0.810  0.8106E+02  0.1248E+03
      0.853  0.7909E+02  0.1282E+03
      0.895  0.7747E+02  0.1315E+03
      0.938  0.7644E+02  0.1348E+03
      0.981  0.7594E+02  0.1380E+03
      1.023  0.7573E+02  0.1412E+03
      1.066  0.7548E+02  0.1445E+03
      1.109  0.7499E+02  0.1477E+03
      1.151  0.7430E+02  0.1508E+03
      1.194  0.7368E+02  0.1540E+03
      1.237  0.7339E+02  0.1571E+03
      1.280  0.7347E+02  0.1603E+03
      1.322  0.7365E+02  0.1634E+03
      1.365  0.7350E+02  0.1665E+03
      1.408  0.7271E+02  0.1696E+03
      1.450  0.7138E+02  0.1727E+03
      1.493  0.6993E+02  0.1757E+03
      1.536  0.6893E+02  0.1786E+03
      1.578  0.6882E+02  0.1815E+03
      1.621  0.6974E+02  0.1845E+03
      1.664  0.7154E+02  0.1876E+03
      1.706  0.7388E+02  0.1907E+03
      1.749  0.7640E+02  0.1940E+03
      1.792  0.7884E+02  0.1974E+03
      1.834  0.8105E+02  0.2008E+03
      1.877  0.8301E+02  0.2044E+03
      1.920  0.8472E+02  0.2080E+03
      1.963  0.8625E+02  0.2117E+03
      2.005  0.8764E+02  0.2154E+03
      2.048  0.8898E+02  0.2192E+03
      2.091  0.9036E+02  0.2231E+03
      2.133  0.9185E+02  0.2270E+03
      2.176  0.9347E+02  0.2310E+03
      2.219  0.9524E+02  0.2350E+03
      2.261  0.9726E+02  0.2392E+03
      2.304  0.9976E+02  0.2434E+03
      2.347  0.1029E+03  0.2478E+03
      2.389  0.1068E+03  0.2524E+03
      2.432  0.1112E+03  0.2571E+03
      2.475  0.1156E+03  0.2621E+03
      2.517  0.1196E+03  0.2672E+03
      2.560  0.1230E+03  0.2724E+03
      2.603  0.1255E+03  0.2778E+03
      2.646  0.1271E+03  0.2832E+03
      2.688  0.1280E+03  0.2887E+03
      2.731  0.1286E+03  0.2942E+03
      2.774  0.1293E+03  0.2997E+03
      2.816  0.1308E+03  0.3053E+03
      2.859  0.1334E+03  0.3110E+03
      2.902  0.1367E+03  0.3168E+03
      2.944  0.1396E+03  0.3228E+03
      2.987  0.1405E+03  0.3288E+03
      3.030  0.1381E+03  0.3347E+03
      3.072  0.1322E+03  0.3403E+03
      3.115  0.1236E+03  0.3456E+03
      3.158  0.1142E+03  0.3504E+03
      3.200  0.1055E+03  0.3549E+03
      3.243  0.9886E+02  0.3592E+03
      3.286  0.9465E+02  0.3632E+03
      3.329  0.9262E+02  0.3672E+03
      3.371  0.9206E+02  0.3711E+03
      3.414  0.9207E+02  0.3750E+03
      3.457  0.9180E+02  0.3789E+03
      3.499  0.9072E+02  0.3828E+03
      3.542  0.8880E+02  0.3866E+03
      3.585  0.8655E+02  0.3903E+03
      3.627  0.8481E+02  0.3939E+03
      3.670  0.8440E+02  0.3975E+03
      3.713  0.8565E+02  0.4012E+03
      3.755  0.8827E+02  0.4049E+03
      3.798  0.9152E+02  0.4089E+03
      3.841  0.9463E+02  0.4129E+03
      3.883  0.9717E+02  0.4170E+03
      3.926  0.9917E+02  0.4213E+03
      3.969  0.1008E+03  0.4256E+03
      4.012  0.1022E+03  0.4299E+03
      4.054  0.1032E+03  0.4343E+03
      4.097  0.1036E+03  0.4388E+03
      4.140  0.1031E+03  0.4432E+03
      4.182  0.1021E+03  0.4475E+03
      4.225  0.1008E+03  0.4518E+03
      4.268  0.9962E+02  0.4561E+03
      4.310  0.9888E+02  0.4603E+03
      4.353  0.9873E+02  0.4645E+03
      4.396  0.9914E+02  0.4688E+03
      4.438  0.9984E+02  0.4730E+03
      4.481  0.1004E+03  0.4773E+03
      4.524  0.1005E+03  0.4816E+03
      4.566  0.1001E+03  0.4859E+03
      4.609  0.9940E+02  0.4901E+03
      4.652  0.9891E+02  0.4943E+03
      4.694  0.9917E+02  0.4986E+03
      4.737  0.1005E+03  0.5029E+03
      4.780  0.1029E+03  0.5072E+03
      4.823  0.1059E+03  0.5118E+03
      4.865  0.1090E+03  0.5164E+03
      4.908  0.1118E+03  0.5212E+03
      4.951  0.1136E+03  0.5260E+03
      4.993  0.1137E+03  0.5309E+03
      5.036  0.1111E+03  0.5356E+03
      5.079  0.1048E+03  0.5401E+03
      5.121  0.9403E+02  0.5441E+03
      5.164  0.7903E+02  0.5475E+03
      5.207  0.6134E+02  0.5501E+03
      5.249  0.4339E+02  0.5520E+03
      5.292  0.2767E+02  0.5531E+03
      5.335  0.1576E+02  0.5538E+03
      5.377  0.7955E+01  0.5542E+03
      5.420  0.3539E+01  0.5543E+03
      5.463  0.1381E+01  0.5544E+03
      5.506  0.4710E+00  0.5544E+03
      5.548  0.1400E+00  0.5544E+03
      5.591  0.3615E-01  0.5544E+03
      5.634  0.8099E-02  0.5544E+03
      5.676  0.1571E-02  0.5544E+03
      5.719  0.2636E-03  0.5544E+03
      5.762  0.3820E-04  0.5544E+03
      5.804  0.4774E-05  0.5544E+03
      5.847  0.5140E-06  0.5544E+03
      5.890  0.4764E-07  0.5544E+03
      5.932  0.3797E-08  0.5544E+03
      5.975  0.2600E-09  0.5544E+03
      6.018  0.1529E-10  0.5544E+03
      6.060  0.7704E-12  0.5544E+03
      6.103  0.3258E-13  0.5544E+03
      6.146  0.7152E-15  0.5544E+03
      6.189  0.0000E+00  0.5544E+03
      6.231  0.0000E+00  0.5544E+03
      6.274  0.0000E+00  0.5544E+03
      6.317  0.0000E+00  0.5544E+03
      6.359  0.0000E+00  0.5544E+03
      6.402  0.0000E+00  0.5544E+03
      6.445  0.0000E+00  0.5544E+03
      6.487  0.0000E+00  0.5544E+03
      6.530  0.0000E+00  0.5544E+03
      6.573  0.0000E+00  0.5544E+03
      6.615  0.0000E+00  0.5544E+03
      6.658  0.0000E+00  0.5544E+03
      6.701  0.0000E+00  0.5544E+03
      6.743  0.0000E+00  0.5544E+03
