       N       E                     dE             d eps       ncg     rms          rms(c)
DAV:   1     0.292352601990E+05    0.29235E+05   -0.86593E+05 27944   0.197E+03
DAV:   2     0.119802209634E+04   -0.28037E+05   -0.27424E+05 27720   0.605E+02
DAV:   3    -0.194062400592E+04   -0.31386E+04   -0.27275E+04 39130   0.280E+02
DAV:   4    -0.261044901583E+04   -0.66983E+03   -0.60996E+03 50862   0.978E+01
DAV:   5    -0.273055424520E+04   -0.12011E+03   -0.11256E+03 48342   0.399E+01    0.203E+02
RMM:   6    -0.517417203291E+04   -0.24436E+04   -0.10164E+04 48087   0.228E+02    0.582E+02
RMM:   7    -0.370250697771E+04    0.14717E+04   -0.38132E+03 29237   0.128E+02    0.376E+02
RMM:   8    -0.102757905107E+05   -0.65733E+04   -0.14963E+04 41353   0.325E+02    0.933E+02
RMM:   9    -0.132714728997E+05   -0.29957E+04   -0.14848E+04 49544   0.155E+02    0.757E+02
RMM:  10    -0.819153666586E+04    0.50799E+04   -0.35703E+03 45577   0.132E+02    0.522E+02
RMM:  11    -0.605262573078E+04    0.21389E+04   -0.14202E+04 46981   0.295E+02    0.846E+02
RMM:  12    -0.813159068995E+04   -0.20790E+04   -0.15461E+04 50461   0.158E+02    0.880E+02
RMM:  13    -0.910977331718E+04   -0.97818E+03   -0.68857E+03 49235   0.170E+02    0.680E+02
RMM:  14    -0.601432377708E+04    0.30954E+04   -0.40949E+03 37855   0.173E+02    0.539E+02
RMM:  15    -0.448627015671E+04    0.15281E+04   -0.28796E+03 33550   0.111E+02    0.409E+02
RMM:  16    -0.363006837701E+04    0.85620E+03   -0.10699E+03 31389   0.580E+01    0.364E+02
RMM:  17    -0.347095724187E+04    0.15911E+03   -0.15862E+03 33083   0.692E+01    0.363E+02
RMM:  18    -0.250157177461E+04    0.96939E+03   -0.11884E+03 34214   0.520E+01    0.223E+02
RMM:  19    -0.245946834098E+04    0.42103E+02   -0.12892E+03 43942   0.381E+01    0.169E+02
RMM:  20    -0.262007875473E+04   -0.16061E+03   -0.13154E+03 47164   0.386E+01    0.197E+02
RMM:  21    -0.249618514078E+04    0.12389E+03   -0.86862E+02 43553   0.283E+01    0.140E+02
RMM:  22    -0.248198385896E+04    0.14201E+02   -0.48130E+02 34384   0.259E+01    0.139E+02
RMM:  23    -0.244427381313E+04    0.37710E+02   -0.41655E+02 41399   0.184E+01    0.123E+02
RMM:  24    -0.238694024932E+04    0.57334E+02   -0.17921E+02 33428   0.177E+01    0.106E+02
RMM:  25    -0.235284422522E+04    0.34096E+02   -0.10854E+02 32171   0.156E+01    0.818E+01
RMM:  26    -0.233917244443E+04    0.13672E+02   -0.13577E+02 38612   0.110E+01    0.621E+01
RMM:  27    -0.234053253718E+04   -0.13601E+01   -0.64907E+01 36509   0.756E+00    0.625E+01
RMM:  28    -0.234634403332E+04   -0.58115E+01   -0.37407E+01 41162   0.467E+00    0.669E+01
RMM:  29    -0.234491373325E+04    0.14303E+01   -0.19832E+01 43507   0.235E+00    0.645E+01
RMM:  30    -0.234521944853E+04   -0.30572E+00   -0.74124E+00 44759   0.112E+00    0.667E+01
RMM:  31    -0.235090911419E+04   -0.56897E+01   -0.56230E+00 38229   0.120E+00    0.732E+01
RMM:  32    -0.234340293893E+04    0.75062E+01   -0.22992E+00 31636   0.227E+00    0.665E+01
RMM:  33    -0.233414181383E+04    0.92611E+01   -0.67777E+00 30407   0.408E+00    0.523E+01
RMM:  34    -0.233321350094E+04    0.92831E+00   -0.91889E+00 36536   0.310E+00    0.500E+01
RMM:  35    -0.233259359990E+04    0.61990E+00   -0.45950E+00 40203   0.201E+00    0.487E+01
RMM:  36    -0.233240105948E+04    0.19254E+00   -0.24969E+00 32043   0.229E+00    0.485E+01
RMM:  37    -0.233041598755E+04    0.19851E+01   -0.30329E+00 30949   0.287E+00    0.443E+01
RMM:  38    -0.232677390670E+04    0.36421E+01   -0.36807E+00 29269   0.362E+00    0.391E+01
RMM:  39    -0.232441584423E+04    0.23581E+01   -0.49469E+00 36734   0.267E+00    0.379E+01
RMM:  40    -0.232264283295E+04    0.17730E+01   -0.24365E+00 40893   0.159E+00    0.357E+01
RMM:  41    -0.232304447282E+04   -0.40164E+00   -0.20100E+00 31711   0.209E+00    0.407E+01
RMM:  42    -0.232271257555E+04    0.33190E+00   -0.23737E+00 36514   0.168E+00    0.387E+01
RMM:  43    -0.232309399843E+04   -0.38142E+00   -0.14875E+00 37619   0.123E+00    0.381E+01
RMM:  44    -0.232302703496E+04    0.66963E-01   -0.69240E-01 32838   0.116E+00    0.369E+01
RMM:  45    -0.232128733747E+04    0.17397E+01   -0.95056E-01 29966   0.169E+00    0.332E+01
RMM:  46    -0.232042021562E+04    0.86712E+00   -0.14423E+00 32511   0.175E+00    0.345E+01
RMM:  47    -0.232005689883E+04    0.36332E+00   -0.17827E+00 37235   0.149E+00    0.343E+01
RMM:  48    -0.231969816947E+04    0.35873E+00   -0.98702E-01 43948   0.611E-01    0.329E+01
RMM:  49    -0.231970398791E+04   -0.58184E-02   -0.41479E-01 45478   0.211E-01    0.328E+01
RMM:  50    -0.231971430147E+04   -0.10314E-01   -0.49980E-02 40141   0.104E-01    0.328E+01
RMM:  51    -0.242039415878E+04   -0.10068E+03   -0.63535E+01 32160   0.118E+01    0.124E+02
RMM:  52    -0.243345310507E+04   -0.13059E+02   -0.73565E+01 43194   0.624E+00    0.136E+02
RMM:  53    -0.243640148135E+04   -0.29484E+01   -0.36838E+01 41325   0.428E+00    0.141E+02
RMM:  54    -0.243898552294E+04   -0.25840E+01   -0.27496E+01 46383   0.173E+00    0.147E+02
RMM:  55    -0.243799801843E+04    0.98750E+00   -0.55914E+00 34172   0.153E+00    0.149E+02
RMM:  56    -0.239283631106E+04    0.45162E+02   -0.16380E+02 33027   0.193E+01    0.115E+02
RMM:  57    -0.241829000081E+04   -0.25454E+02   -0.18109E+02 43795   0.963E+00    0.124E+02
RMM:  58    -0.243124232254E+04   -0.12952E+02   -0.82848E+01 43867   0.637E+00    0.133E+02
RMM:  59    -0.243343377595E+04   -0.21915E+01   -0.47829E+01 47068   0.243E+00    0.139E+02
RMM:  60    -0.250743709243E+04   -0.74003E+02   -0.45145E+01 35801   0.787E+00    0.176E+02
RMM:  61    -0.253062896730E+04   -0.23192E+02   -0.65130E+01 28744   0.149E+01    0.174E+02
RMM:  62    -0.250241765451E+04    0.28211E+02   -0.11566E+02 44712   0.475E+00    0.167E+02
RMM:  63    -0.251313522220E+04   -0.10718E+02   -0.44023E+01 35603   0.681E+00    0.177E+02
RMM:  64    -0.246989201544E+04    0.43243E+02   -0.36246E+01 33072   0.853E+00    0.165E+02
RMM:  65    -0.245911554071E+04    0.10776E+02   -0.32695E+01 41783   0.409E+00    0.160E+02
RMM:  66    -0.258487264413E+04   -0.12576E+03   -0.65412E+01 32580   0.107E+01    0.207E+02
RMM:  67    -0.256382890922E+04    0.21044E+02   -0.47232E+01 42839   0.523E+00    0.203E+02
RMM:  68    -0.256584074678E+04   -0.20118E+01   -0.33734E+01 45377   0.228E+00    0.207E+02
RMM:  69    -0.254695682677E+04    0.18884E+02   -0.94415E+00 34406   0.234E+00    0.204E+02
RMM:  70    -0.255097241260E+04   -0.40156E+01   -0.10275E+01 44336   0.113E+00    0.207E+02
RMM:  71    -0.256628034572E+04   -0.15308E+02   -0.14707E+01 30639   0.625E+00    0.205E+02
RMM:  72    -0.253020091652E+04    0.36079E+02   -0.76141E+00 28703   0.613E+00    0.197E+02
RMM:  73    -0.250927447214E+04    0.20926E+02   -0.57760E+00 35611   0.288E+00    0.192E+02
RMM:  74    -0.250351172336E+04    0.57627E+01   -0.33406E+00 31712   0.261E+00    0.192E+02
RMM:  75    -0.248634537276E+04    0.17166E+02   -0.26645E+01 28493   0.987E+00    0.184E+02
RMM:  76    -0.245020426192E+04    0.36141E+02   -0.59657E+01 27985   0.164E+01    0.157E+02
RMM:  77    -0.238729175058E+04    0.62913E+02   -0.47800E+01 27747   0.151E+01    0.119E+02
RMM:  78    -0.237452858224E+04    0.12763E+02   -0.51308E+01 30368   0.118E+01    0.110E+02
RMM:  79    -0.235867734331E+04    0.15851E+02   -0.33975E+01 33597   0.796E+00    0.933E+01
RMM:  80    -0.235779828650E+04    0.87906E+00   -0.15973E+01 31627   0.611E+00    0.920E+01
RMM:  81    -0.236725487388E+04   -0.94566E+01   -0.34470E+01 30853   0.922E+00    0.976E+01
RMM:  82    -0.235317326225E+04    0.14082E+02   -0.11763E+01 27771   0.776E+00    0.836E+01
RMM:  83    -0.235076375928E+04    0.24095E+01   -0.10135E+01 30382   0.522E+00    0.808E+01
RMM:  84    -0.234504461017E+04    0.57191E+01   -0.56771E+00 29636   0.426E+00    0.743E+01
RMM:  85    -0.234272636014E+04    0.23183E+01   -0.43698E+00 29331   0.386E+00    0.712E+01
RMM:  86    -0.235462652123E+04   -0.11900E+02   -0.20007E+01 28749   0.860E+00    0.843E+01
RMM:  87    -0.234520097840E+04    0.94255E+01   -0.10178E+01 27720   0.826E+00    0.721E+01
RMM:  88    -0.234406863212E+04    0.11323E+01   -0.58187E+00 33059   0.334E+00    0.700E+01
RMM:  89    -0.234345074867E+04    0.61788E+00   -0.38930E+00 35205   0.244E+00    0.683E+01
RMM:  90    -0.234479171771E+04   -0.13410E+01   -0.24614E+00 41055   0.151E+00    0.697E+01
RMM:  91    -0.234019847744E+04    0.45932E+01   -0.75705E+00 27998   0.548E+00    0.658E+01
RMM:  92    -0.233870377030E+04    0.14947E+01   -0.35537E+00 27720   0.506E+00    0.629E+01
RMM:  93    -0.234585949740E+04   -0.71557E+01   -0.35572E+00 27802   0.404E+00    0.726E+01
RMM:  94    -0.235176420043E+04   -0.59047E+01   -0.31131E+00 27981   0.370E+00    0.784E+01
RMM:  95    -0.235294798036E+04   -0.11838E+01   -0.25029E+00 30166   0.268E+00    0.801E+01
RMM:  96    -0.236832066539E+04   -0.15373E+02   -0.25753E+01 28572   0.952E+00    0.968E+01
RMM:  97    -0.237857956803E+04   -0.10259E+02   -0.13224E+01 27760   0.837E+00    0.106E+02
RMM:  98    -0.237561429747E+04    0.29653E+01   -0.12281E+01 36243   0.368E+00    0.105E+02
RMM:  99    -0.237979107426E+04   -0.41768E+01   -0.43358E+00 29401   0.393E+00    0.108E+02
RMM: 100    -0.236821711861E+04    0.11574E+02   -0.33545E+00 30824   0.297E+00
   1 F= -.23682171E+04 E0= -.23653004E+04  d E =-.236822E+04
       N       E                     dE             d eps       ncg     rms          rms(c)
DAV:   1    -0.255381719962E+04   -0.17403E+03   -0.19946E+03 48300   0.107E+02    0.198E+02
RMM:   2    -0.204107885928E+05   -0.17857E+05   -0.49381E+04 49736   0.467E+02    0.204E+03
RMM:   3    -0.180804104789E+05    0.23304E+04   -0.28120E+04 49617   0.254E+02    0.138E+03
RMM:   4    -0.131098363399E+05    0.49706E+04   -0.11678E+04 48008   0.208E+02    0.979E+02
RMM:   5    -0.202278209800E+05   -0.71180E+04   -0.22351E+04 45328   0.380E+02    0.112E+03
RMM:   6    -0.142381803383E+05    0.59896E+04   -0.13203E+04 48109   0.202E+02    0.991E+02
RMM:   7    -0.128480060706E+05    0.13902E+04   -0.10518E+04 49938   0.176E+02    0.114E+03
RMM:   8    -0.139225930878E+05   -0.10746E+04   -0.12758E+04 50372   0.160E+02    0.111E+03
RMM:   9    -0.102754639289E+05    0.36471E+04   -0.75021E+03 47919   0.127E+02    0.840E+02
RMM:  10    -0.927167033934E+04    0.10038E+04   -0.94210E+03 44501   0.213E+02    0.681E+02
RMM:  11    -0.394990206288E+04    0.53218E+04   -0.74727E+03 32854   0.180E+02    0.486E+02
RMM:  12    -0.248638806349E+04    0.14635E+04   -0.44879E+03 44649   0.949E+01    0.357E+02
RMM:  13    -0.205018296480E+04    0.43621E+03   -0.44457E+03 48194   0.928E+01    0.263E+02
RMM:  14    -0.209323989928E+04   -0.43057E+02   -0.33365E+03 49965   0.704E+01    0.205E+02
RMM:  15    -0.233616575910E+04   -0.24293E+03   -0.31246E+03 49965   0.681E+01    0.186E+02
RMM:  16    -0.246144998278E+04   -0.12528E+03   -0.24374E+03 50168   0.547E+01    0.162E+02
RMM:  17    -0.259977001892E+04   -0.13832E+03   -0.12724E+03 48288   0.474E+01    0.178E+02
RMM:  18    -0.264139012914E+04   -0.41620E+02   -0.96181E+02 46120   0.377E+01    0.170E+02
RMM:  19    -0.252741892016E+04    0.11397E+03   -0.10342E+03 45296   0.377E+01    0.141E+02
RMM:  20    -0.248538825614E+04    0.42031E+02   -0.93355E+02 46142   0.267E+01    0.140E+02
RMM:  21    -0.247114587577E+04    0.14242E+02   -0.70986E+02 42829   0.235E+01    0.133E+02
RMM:  22    -0.248097073795E+04   -0.98249E+01   -0.56396E+02 42935   0.178E+01    0.117E+02
RMM:  23    -0.244824683030E+04    0.32724E+02   -0.36760E+02 43828   0.120E+01    0.114E+02
RMM:  24    -0.240452996913E+04    0.43717E+02   -0.15080E+02 42777   0.925E+00    0.107E+02
RMM:  25    -0.238083581200E+04    0.23694E+02   -0.84545E+01 46706   0.451E+00    0.969E+01
RMM:  26    -0.235980755468E+04    0.21028E+02   -0.33688E+01 34869   0.678E+00    0.876E+01
RMM:  27    -0.237445741236E+04   -0.14650E+02   -0.80759E+01 37371   0.111E+01    0.956E+01
RMM:  28    -0.235645188835E+04    0.18006E+02   -0.35630E+01 32904   0.841E+00    0.831E+01
RMM:  29    -0.234090861229E+04    0.15543E+02   -0.20420E+01 30412   0.767E+00    0.660E+01
RMM:  30    -0.233269905159E+04    0.82096E+01   -0.22580E+01 42273   0.391E+00    0.548E+01
RMM:  31    -0.233500060525E+04   -0.23016E+01   -0.12924E+01 31638   0.542E+00    0.578E+01
RMM:  32    -0.232799766997E+04    0.70029E+01   -0.97768E+00 35717   0.370E+00    0.463E+01
RMM:  33    -0.233322315692E+04   -0.52255E+01   -0.58056E+00 30385   0.411E+00    0.532E+01
RMM:  34    -0.232868344773E+04    0.45397E+01   -0.12693E+01 33245   0.472E+00    0.455E+01
RMM:  35    -0.232381134172E+04    0.48721E+01   -0.82553E+00 31864   0.443E+00    0.355E+01
RMM:  36    -0.232133894308E+04    0.24724E+01   -0.65552E+00 34622   0.320E+00    0.296E+01
RMM:  37    -0.232072950255E+04    0.60944E+00   -0.50725E+00 39407   0.231E+00    0.271E+01
RMM:  38    -0.232201716615E+04   -0.12877E+01   -0.33269E+00 32151   0.251E+00    0.309E+01
RMM:  39    -0.232301802778E+04   -0.10009E+01   -0.30660E+00 32544   0.250E+00    0.329E+01
RMM:  40    -0.232106373071E+04    0.19543E+01   -0.13970E+00 29671   0.219E+00    0.267E+01
RMM:  41    -0.232125799926E+04   -0.19427E+00   -0.15462E+00 29644   0.231E+00    0.274E+01
RMM:  42    -0.232178015586E+04   -0.52216E+00   -0.17210E+00 31798   0.198E+00    0.292E+01
RMM:  43    -0.232140271424E+04    0.37744E+00   -0.11528E+00 31009   0.172E+00    0.279E+01
RMM:  44    -0.232109281908E+04    0.30990E+00   -0.13664E+00 38012   0.134E+00    0.261E+01
RMM:  45    -0.232036740211E+04    0.72542E+00   -0.50095E-01 32790   0.991E-01    0.234E+01
RMM:  46    -0.231989012416E+04    0.47728E+00   -0.47063E-01 30541   0.115E+00    0.213E+01
RMM:  47    -0.232538058440E+04   -0.54905E+01   -0.65768E+00 35308   0.313E+00    0.390E+01
RMM:  48    -0.232278802579E+04    0.25926E+01   -0.27084E+00 32027   0.251E+00    0.318E+01
RMM:  49    -0.232491125601E+04   -0.21232E+01   -0.38275E+00 30730   0.327E+00    0.369E+01
RMM:  50    -0.232356614537E+04    0.13451E+01   -0.28538E+00 33199   0.248E+00    0.332E+01
RMM:  51    -0.232323881907E+04    0.32733E+00   -0.23816E+00 34447   0.203E+00    0.325E+01
RMM:  52    -0.234646096389E+04   -0.23222E+02   -0.53935E+00 32348   0.297E+00    0.701E+01
RMM:  53    -0.234237845684E+04    0.40825E+01   -0.51965E+00 40447   0.179E+00    0.647E+01
RMM:  54    -0.233944476451E+04    0.29337E+01   -0.18464E+00 35744   0.144E+00    0.621E+01
RMM:  55    -0.233553799536E+04    0.39068E+01   -0.97155E-01 30225   0.171E+00    0.565E+01
RMM:  56    -0.232947172252E+04    0.60663E+01   -0.12575E+00 28416   0.233E+00    0.461E+01
RMM:  57    -0.236847118699E+04   -0.38999E+02   -0.55331E+00 29823   0.426E+00    0.941E+01
RMM:  58    -0.235660632076E+04    0.11865E+02   -0.43728E+00 37637   0.246E+00    0.830E+01
RMM:  59    -0.233611522978E+04    0.20491E+02   -0.28743E+00 28109   0.348E+00    0.579E+01
RMM:  60    -0.233019518282E+04    0.59200E+01   -0.34991E+00 29782   0.343E+00    0.483E+01
RMM:  61    -0.232620247731E+04    0.39927E+01   -0.35500E+00 37322   0.224E+00    0.399E+01
RMM:  62    -0.232194051052E+04    0.42620E+01   -0.86084E+00 30705   0.462E+00    0.292E+01
RMM:  63    -0.231939409196E+04    0.25464E+01   -0.32464E+00 28005   0.397E+00    0.191E+01
RMM:  64    -0.232014495935E+04   -0.75087E+00   -0.31413E+00 28810   0.361E+00    0.223E+01
RMM:  65    -0.231833880887E+04    0.18062E+01   -0.17699E+00 28251   0.279E+00    0.133E+01
RMM:  66    -0.231810650748E+04    0.23230E+00   -0.15489E+00 30296   0.213E+00    0.114E+01
RMM:  67    -0.232045038965E+04   -0.23439E+01   -0.56277E+00 31221   0.360E+00    0.225E+01
RMM:  68    -0.231869304670E+04    0.17573E+01   -0.17363E+00 27964   0.284E+00    0.140E+01
RMM:  69    -0.231814326859E+04    0.54978E+00   -0.14795E+00 33988   0.156E+00    0.971E+00
RMM:  70    -0.231789391029E+04    0.24936E+00   -0.72032E-01 32645   0.121E+00    0.709E+00
RMM:  71    -0.231777626130E+04    0.11765E+00   -0.28516E-01 29939   0.961E-01    0.537E+00
RMM:  72    -0.231801341116E+04   -0.23715E+00   -0.41987E-01 29784   0.117E+00    0.815E+00
RMM:  73    -0.231795862663E+04    0.54785E-01   -0.22001E-01 28700   0.100E+00    0.760E+00
RMM:  74    -0.231787186838E+04    0.86758E-01   -0.20661E-01 30266   0.802E-01    0.637E+00
RMM:  75    -0.231771237199E+04    0.15950E+00   -0.12963E-01 30363   0.625E-01    0.332E+00
RMM:  76    -0.231770161715E+04    0.10755E-01   -0.10115E-01 30570   0.543E-01    0.290E+00
RMM:  77    -0.231779886024E+04   -0.97243E-01   -0.26863E-01 28975   0.987E-01    0.510E+00
RMM:  78    -0.231769294010E+04    0.10592E+00   -0.10606E-01 27727   0.848E-01    0.248E+00
RMM:  79    -0.231768236622E+04    0.10574E-01   -0.47094E-02 31446   0.332E-01    0.197E+00
RMM:  80    -0.231768440966E+04   -0.20434E-02   -0.40847E-02 34115   0.255E-01    0.193E+00
RMM:  81    -0.231768003008E+04    0.43796E-02   -0.31195E-02 33910   0.232E-01    0.163E+00
RMM:  82    -0.231768799643E+04   -0.79664E-02   -0.38151E-02 30166   0.337E-01    0.198E+00
RMM:  83    -0.231767416286E+04    0.13834E-01   -0.13772E-02 28041   0.280E-01    0.118E+00
RMM:  84    -0.231767066082E+04    0.35020E-02   -0.11104E-02 34572   0.125E-01    0.812E-01
RMM:  85    -0.231766932865E+04    0.13322E-02   -0.58508E-03 34229   0.958E-02    0.590E-01
RMM:  86    -0.231766882033E+04    0.50832E-03   -0.29518E-03 31358   0.837E-02    0.471E-01
RMM:  87    -0.231766929824E+04   -0.47791E-03   -0.40827E-03 33980   0.868E-02    0.520E-01
RMM:  88    -0.231766846989E+04    0.82835E-03   -0.14081E-03 29190   0.771E-02    0.324E-01
RMM:  89    -0.231766856363E+04   -0.93747E-04   -0.20690E-03 38121   0.454E-02    0.301E-01
RMM:  90    -0.231766857757E+04   -0.13940E-04   -0.97536E-04 31651   0.482E-02    0.271E-01
RMM:  91    -0.231766878770E+04   -0.21013E-03   -0.11839E-03 35817   0.421E-02    0.307E-01
RMM:  92    -0.231766864982E+04    0.13788E-03   -0.68535E-04 30226   0.465E-02    0.256E-01
RMM:  93    -0.231766850078E+04    0.14904E-03   -0.33581E-04 30148   0.340E-02    0.170E-01
RMM:  94    -0.231766851603E+04   -0.15242E-04   -0.35845E-04 33444   0.246E-02    0.154E-01
RMM:  95    -0.231766847120E+04    0.44828E-04   -0.16423E-04 31452   0.194E-02    0.983E-02
RMM:  96    -0.231766849137E+04   -0.20168E-04   -0.12847E-04 31276   0.179E-02    0.997E-02
RMM:  97    -0.231766857614E+04   -0.84773E-04   -0.18757E-04 30702   0.227E-02    0.139E-01
RMM:  98    -0.231766849952E+04    0.76617E-04   -0.77512E-05 28145   0.202E-02    0.645E-02
RMM:  99    -0.231766850701E+04   -0.74922E-05   -0.58485E-05 31011   0.120E-02    0.497E-02
RMM: 100    -0.231766852131E+04   -0.14294E-04   -0.48333E-05 33489   0.869E-03
   2 F= -.23176685E+04 E0= -.23148679E+04  d E =0.505486E+02
       N       E                     dE             d eps       ncg     rms          rms(c)
DAV:   1    -0.231781299552E+04   -0.14449E+00   -0.27455E+01 28224   0.547E+00    0.134E+00
RMM:   2    -0.232831772770E+04   -0.10505E+02   -0.24670E+00 31801   0.248E+00    0.433E+01
RMM:   3    -0.232093328992E+04    0.73844E+01   -0.89718E-01 34636   0.134E+00    0.236E+01
RMM:   4    -0.232235043859E+04   -0.14171E+01   -0.46027E-01 30037   0.114E+00    0.286E+01
RMM:   5    -0.231864744041E+04    0.37030E+01   -0.30636E-01 28562   0.105E+00    0.118E+01
RMM:   6    -0.231804798694E+04    0.59945E+00   -0.27922E-01 28350   0.102E+00    0.649E+00
RMM:   7    -0.231914137929E+04   -0.10934E+01   -0.91362E-01 35797   0.113E+00    0.157E+01
RMM:   8    -0.231802747559E+04    0.11139E+01   -0.32270E-01 27929   0.112E+00    0.567E+00
RMM:   9    -0.231788074823E+04    0.14673E+00   -0.12171E-01 27876   0.735E-01    0.313E+00
RMM:  10    -0.231784940610E+04    0.31342E-01   -0.11269E-01 33955   0.415E-01    0.203E+00
RMM:  11    -0.231784459744E+04    0.48087E-02   -0.64058E-02 31862   0.378E-01    0.165E+00
RMM:  12    -0.231783862889E+04    0.59686E-02   -0.28163E-02 29646   0.300E-01    0.128E+00
RMM:  13    -0.231783298859E+04    0.56403E-02   -0.15320E-02 30797   0.200E-01    0.779E-01
RMM:  14    -0.231783318857E+04   -0.19998E-03   -0.13048E-02 38899   0.112E-01    0.716E-01
RMM:  15    -0.231783190238E+04    0.12862E-02   -0.49681E-03 32033   0.102E-01    0.504E-01
RMM:  16    -0.231783111892E+04    0.78346E-03   -0.21752E-03 30945   0.761E-02    0.311E-01
RMM:  17    -0.231783118517E+04   -0.66249E-04   -0.22207E-03 32659   0.682E-02    0.317E-01
RMM:  18    -0.231783109279E+04    0.92380E-04   -0.11528E-03 29057   0.645E-02    0.277E-01
RMM:  19    -0.231783089109E+04    0.20169E-03   -0.49283E-04 28318   0.493E-02    0.205E-01
RMM:  20    -0.231783089040E+04    0.69587E-06   -0.57012E-04 32227   0.350E-02    0.195E-01
RMM:  21    -0.231783078645E+04    0.10395E-03   -0.35718E-04 32173   0.279E-02    0.123E-01
RMM:  22    -0.231783074238E+04    0.44063E-04   -0.17899E-04 31386   0.209E-02    0.845E-02
RMM:  23    -0.231783074658E+04   -0.42002E-05   -0.19049E-04 39392   0.120E-02    0.740E-02
RMM:  24    -0.231783073721E+04    0.93718E-05   -0.80393E-05 33648   0.113E-02    0.482E-02
RMM:  25    -0.231783073209E+04    0.51230E-05   -0.46768E-05 33792   0.846E-03    0.279E-02
RMM:  26    -0.231783073433E+04   -0.22459E-05   -0.34528E-05 35336   0.548E-03    0.272E-02
RMM:  27    -0.231783073473E+04   -0.39829E-06   -0.12081E-05 26982   0.511E-03    0.234E-02
RMM:  28    -0.231783073351E+04    0.12198E-05   -0.50226E-06 20641   0.372E-03    0.159E-02
RMM:  29    -0.231783073363E+04   -0.11479E-06   -0.34575E-06 19269   0.286E-03
   3 F= -.23178307E+04 E0= -.23150351E+04  d E =0.503864E+02
       N       E                     dE             d eps       ncg     rms          rms(c)
DAV:   1    -0.231791453232E+04   -0.83799E-01   -0.13632E+01 28126   0.385E+00    0.941E-01
RMM:   2    -0.232377746615E+04   -0.58629E+01   -0.12326E+00 32040   0.173E+00    0.324E+01
RMM:   3    -0.231948591771E+04    0.42915E+01   -0.43382E-01 33939   0.966E-01    0.167E+01
RMM:   4    -0.232017547320E+04   -0.68956E+00   -0.24187E-01 30012   0.821E-01    0.202E+01
RMM:   5    -0.231833142100E+04    0.18441E+01   -0.15965E-01 28439   0.773E-01    0.835E+00
RMM:   6    -0.231804292702E+04    0.28849E+00   -0.14899E-01 28517   0.736E-01    0.481E+00
RMM:   7    -0.231862093741E+04   -0.57801E+00   -0.47672E-01 35523   0.827E-01    0.114E+01
RMM:   8    -0.231801964047E+04    0.60130E+00   -0.16456E-01 27896   0.807E-01    0.397E+00
RMM:   9    -0.231794517148E+04    0.74469E-01   -0.62076E-02 27955   0.520E-01    0.211E+00
RMM:  10    -0.231793288685E+04    0.12285E-01   -0.59551E-02 34910   0.284E-01    0.148E+00
RMM:  11    -0.231793032399E+04    0.25629E-02   -0.31363E-02 31876   0.264E-01    0.120E+00
RMM:  12    -0.231792732869E+04    0.29953E-02   -0.14460E-02 29793   0.210E-01    0.932E-01
RMM:  13    -0.231792384275E+04    0.34859E-02   -0.72676E-03 30478   0.141E-01    0.500E-01
RMM:  14    -0.231792392242E+04   -0.79671E-04   -0.64515E-03 38558   0.788E-02    0.450E-01
RMM:  15    -0.231792358811E+04    0.33431E-03   -0.24914E-03 31677   0.750E-02    0.360E-01
RMM:  16    -0.231792308117E+04    0.50693E-03   -0.95720E-04 29842   0.574E-02    0.183E-01
RMM:  17    -0.231792312348E+04   -0.42308E-04   -0.10538E-03 33634   0.432E-02    0.187E-01
RMM:  18    -0.231792316149E+04   -0.38011E-04   -0.64227E-04 30042   0.439E-02    0.193E-01
RMM:  19    -0.231792302633E+04    0.13517E-03   -0.24180E-04 28113   0.351E-02    0.119E-01
RMM:  20    -0.231792302344E+04    0.28892E-05   -0.24672E-04 33182   0.215E-02    0.109E-01
RMM:  21    -0.231792301119E+04    0.12243E-04   -0.18602E-04 33480   0.184E-02    0.885E-02
RMM:  22    -0.231792298625E+04    0.24947E-04   -0.76699E-05 30746   0.146E-02    0.589E-02
RMM:  23    -0.231792298799E+04   -0.17453E-05   -0.86729E-05 38900   0.752E-03    0.509E-02
RMM:  24    -0.231792298334E+04    0.46483E-05   -0.36118E-05 33581   0.721E-03    0.348E-02
RMM:  25    -0.231792297908E+04    0.42621E-05   -0.17275E-05 29254   0.559E-03    0.152E-02
RMM:  26    -0.231792297964E+04   -0.55481E-06   -0.11233E-05 25671   0.339E-03    0.145E-02
RMM:  27    -0.231792297951E+04    0.12602E-06   -0.40722E-06 19795   0.367E-03
   4 F= -.23179230E+04 E0= -.23151308E+04  d E =0.502941E+02
       N       E                     dE             d eps       ncg     rms          rms(c)
DAV:   1    -0.231790084705E+04    0.22133E-01   -0.23508E+02 27734   0.161E+01    0.439E+00
RMM:   2    -0.242398332556E+04   -0.10608E+03   -0.46220E+01 33041   0.960E+00    0.128E+02
RMM:   3    -0.234817087800E+04    0.75812E+02   -0.10513E+01 35375   0.432E+00    0.737E+01
RMM:   4    -0.236587717900E+04   -0.17706E+02   -0.78219E+00 32196   0.363E+00    0.920E+01
RMM:   5    -0.232609861156E+04    0.39779E+02   -0.39160E+00 28868   0.348E+00    0.359E+01
RMM:   6    -0.231971410533E+04    0.63845E+01   -0.29362E+00 28400   0.331E+00    0.182E+01
RMM:   7    -0.233048664038E+04   -0.10773E+02   -0.94012E+00 36918   0.346E+00    0.489E+01
RMM:   8    -0.232052720764E+04    0.99594E+01   -0.30984E+00 28054   0.340E+00    0.203E+01
RMM:   9    -0.231861417641E+04    0.19130E+01   -0.11237E+00 27753   0.230E+00    0.985E+00
RMM:  10    -0.231828401509E+04    0.33016E+00   -0.93177E-01 30609   0.153E+00    0.632E+00
RMM:  11    -0.231825868771E+04    0.25327E-01   -0.82840E-01 32925   0.128E+00    0.547E+00
RMM:  12    -0.231820192447E+04    0.56763E-01   -0.38757E-01 30331   0.101E+00    0.446E+00
RMM:  13    -0.231814802370E+04    0.53901E-01   -0.21897E-01 33499   0.611E-01    0.282E+00
RMM:  14    -0.231815865036E+04   -0.10627E-01   -0.16889E-01 38471   0.411E-01    0.304E+00
RMM:  15    -0.231812835439E+04    0.30296E-01   -0.39749E-02 30704   0.329E-01    0.172E+00
RMM:  16    -0.231811987026E+04    0.84841E-02   -0.24958E-02 31343   0.244E-01    0.117E+00
RMM:  17    -0.231811893811E+04    0.93215E-03   -0.26679E-02 35999   0.198E-01    0.100E+00
RMM:  18    -0.231812224278E+04   -0.33047E-02   -0.10225E-02 29830   0.185E-01    0.126E+00
RMM:  19    -0.231812133343E+04    0.90935E-03   -0.81231E-03 29511   0.171E-01    0.116E+00
RMM:  20    -0.231811762695E+04    0.37065E-02   -0.76493E-03 30231   0.148E-01    0.776E-01
RMM:  21    -0.231811690311E+04    0.72384E-03   -0.33680E-03 29372   0.115E-01    0.717E-01
RMM:  22    -0.231811690107E+04    0.20388E-05   -0.34467E-03 33451   0.773E-02    0.707E-01
RMM:  23    -0.231811578213E+04    0.11189E-02   -0.17157E-03 31818   0.620E-02    0.509E-01
RMM:  24    -0.231811523197E+04    0.55016E-03   -0.11100E-03 30979   0.549E-02    0.380E-01
RMM:  25    -0.231811499146E+04    0.24051E-03   -0.13373E-03 32531   0.531E-02    0.293E-01
RMM:  26    -0.231811465654E+04    0.33492E-03   -0.51049E-04 29353   0.437E-02    0.150E-01
RMM:  27    -0.231811465133E+04    0.52152E-05   -0.62414E-04 39644   0.225E-02    0.117E-01
RMM:  28    -0.231811466355E+04   -0.12218E-04   -0.23616E-04 39136   0.142E-02    0.117E-01
RMM:  29    -0.231811467997E+04   -0.16419E-04   -0.89399E-05 32576   0.121E-02    0.127E-01
RMM:  30    -0.231811467013E+04    0.98369E-05   -0.84837E-05 31588   0.140E-02    0.116E-01
RMM:  31    -0.231811461792E+04    0.52206E-04   -0.37471E-05 29118   0.118E-02    0.595E-02
RMM:  32    -0.231811461142E+04    0.65017E-05   -0.31149E-05 32006   0.697E-03    0.457E-02
RMM:  33    -0.231811461331E+04   -0.18864E-05   -0.21384E-05 30805   0.468E-03    0.454E-02
RMM:  34    -0.231811461564E+04   -0.23365E-05   -0.82293E-06 23684   0.433E-03    0.484E-02
RMM:  35    -0.231811461236E+04    0.32829E-05   -0.66745E-06 23927   0.446E-03    0.405E-02
RMM:  36    -0.231811460650E+04    0.58574E-05   -0.60908E-06 22680   0.442E-03    0.227E-02
RMM:  37    -0.231811460655E+04   -0.42375E-07   -0.37268E-06 18914   0.394E-03
   5 F= -.23181146E+04 E0= -.23153373E+04  d E =0.501025E+02
