<?xml version="1.0" encoding="ISO-8859-1"?>
<modeling>
 <generator>
  <i name="program" type="string">vasp </i>
  <i name="version" type="string">5.4.4.18Apr17-6-g9f103f2a35  </i>
  <i name="subversion" type="string">(build Sep 27 2018 12:46:37) complex + VL-xray_ parallel </i>
  <i name="platform" type="string">LLNL_Quartz_ifc </i>
  <i name="date" type="string">2021 09 26 </i>
  <i name="time" type="string">21:25:28 </i>
 </generator>
 <incar>
  <i type="int" name="ISTART">     2</i>
  <i type="string" name="PREC">accurate</i>
  <i type="string" name="ALGO"> Fast</i>
  <i type="int" name="ICHARG">     2</i>
  <i type="int" name="INIWAV">     1</i>
  <i type="int" name="NELM">   100</i>
  <i type="int" name="NELMIN">     4</i>
  <i type="int" name="IBRION">     2</i>
  <i name="EDIFF">      0.00000100</i>
  <i type="int" name="NSW">     5</i>
  <i type="int" name="ISIF">     2</i>
  <i type="int" name="ISYM">     2</i>
  <i name="ENCUT">    450.00000000</i>
  <i name="POTIM">      0.25000000</i>
  <i type="string" name="LREAL"> Auto</i>
  <i type="int" name="ISMEAR">     0</i>
  <i name="SIGMA">      0.15000000</i>
  <i type="logical" name="LWAVE"> F  </i>
  <i type="logical" name="LCHARG"> F  </i>
  <i type="int" name="ICORELEVEL">     0</i>
  <i type="int" name="CLNT">     1</i>
  <i type="int" name="CLN">     1</i>
  <i type="int" name="INCAR     ">     0</i>
  <i name="CLZ">      0.00000000</i>
  <v type="int" name="KPOINT_BSE">    -1     0     0     0</v>
  <i type="int" name="NELM">   100</i>
 </incar>
 <structure name="primitive_cell" >
  <crystal>
   <varray name="basis" >
    <v>       9.72667804       0.00000000       0.00000000 </v>
    <v>       0.00000000       8.42355028       0.00000000 </v>
    <v>       0.00000000       0.00000000      45.00000000 </v>
   </varray>
   <i name="volume">   3686.99226691 </i>
   <varray name="rec_basis" >
    <v>       0.10281002       0.00000000       0.00000000 </v>
    <v>       0.00000000       0.11871479       0.00000000 </v>
    <v>       0.00000000       0.00000000       0.02222222 </v>
   </varray>
  </crystal>
  <varray name="positions" >
   <v>       0.06120317       0.03468134       0.12454993 </v>
   <v>      -0.05692639       0.11429631       0.16697141 </v>
   <v>       0.19273687       0.11227672       0.16613621 </v>
   <v>       0.18736627       0.27898410       0.12491942 </v>
   <v>       0.06767248      -0.13894496       0.16673873 </v>
   <v>      -0.06472985       0.27986082       0.12466592 </v>
   <v>      -0.18894210       0.03328370       0.12442085 </v>
   <v>       0.31392657       0.03399698       0.12443269 </v>
   <v>      -0.06463552      -0.21936605       0.12461529 </v>
   <v>       0.18804187      -0.21899214       0.12445405 </v>
   <v>       0.06722032       0.36098974       0.16667119 </v>
   <v>      -0.18356741      -0.13812673       0.16698956 </v>
   <v>       0.31768331      -0.14093685       0.16605806 </v>
   <v>      -0.18375284       0.36251318       0.16702682 </v>
   <v>      -0.30749992       0.11239744       0.16723440 </v>
   <v>       0.31624639       0.35997516       0.16647571 </v>
   <v>       0.17987072      -0.04821849       0.21197987 </v>
   <v>       0.05503227       0.20261176       0.21187259 </v>
   <v>      -0.06923315      -0.04685424       0.21185576 </v>
   <v>      -0.31252047       0.28097002       0.12416380 </v>
   <v>      -0.05837600      -0.38655221       0.16699241 </v>
   <v>      -0.31172547      -0.21857925       0.12445468 </v>
   <v>       0.06283148      -0.46565351       0.12457455 </v>
   <v>       0.44175213       0.11194284       0.16668590 </v>
   <v>       0.43886269       0.28033311       0.12447809 </v>
   <v>       0.19270378      -0.38978509       0.16585595 </v>
   <v>       0.43758098      -0.21876332       0.12421202 </v>
   <v>       0.30540973       0.20245559       0.21189246 </v>
   <v>       0.05562686      -0.29753117       0.21197973 </v>
   <v>      -0.43604982       0.03382132       0.12429017 </v>
   <v>       0.31225884      -0.46413648       0.12416177 </v>
   <v>      -0.18914916      -0.46565470       0.12447110 </v>
   <v>      -0.19462018       0.20311073       0.21189437 </v>
   <v>       0.43013051      -0.04729043       0.21182509 </v>
   <v>      -0.43339912      -0.13715264       0.16691700 </v>
   <v>       0.30577956      -0.29770539       0.21198386 </v>
   <v>       0.18091119       0.45213897       0.21166839 </v>
   <v>      -0.30816955      -0.38781167       0.16695613 </v>
   <v>      -0.19415538      -0.29771036       0.21169921 </v>
   <v>      -0.07017166       0.45326765       0.21192829 </v>
   <v>      -0.31976639      -0.04713802       0.21168795 </v>
   <v>       0.44167543      -0.38733121       0.16686036 </v>
   <v>      -0.43263846       0.36245025       0.16691064 </v>
   <v>       0.06507866       0.03556475       0.25600815 </v>
   <v>      -0.44448536       0.20243280       0.21168749 </v>
   <v>       0.43068889       0.45230026       0.21174463 </v>
   <v>      -0.18441511       0.03525916       0.25600943 </v>
   <v>      -0.05999794      -0.21457957       0.25601059 </v>
   <v>      -0.05953193       0.28525558       0.25605384 </v>
   <v>       0.19024196      -0.21409857       0.25592245 </v>
   <v>      -0.43607358      -0.46652691       0.12452763 </v>
   <v>       0.18998366       0.28573015       0.25603999 </v>
   <v>       0.31523271       0.03574606       0.25600265 </v>
   <v>      -0.31964788       0.45302851       0.21173677 </v>
   <v>      -0.44508162      -0.29747571       0.21176809 </v>
   <v>      -0.30990907      -0.21464758       0.25601912 </v>
   <v>      -0.31010392       0.28527016       0.25602867 </v>
   <v>       0.06570073      -0.46445421       0.25595474 </v>
   <v>       0.43997363      -0.21413838       0.25590816 </v>
   <v>       0.44067018       0.28539558       0.25601963 </v>
   <v>      -0.43504179       0.03541289       0.25602727 </v>
   <v>      -0.18447912      -0.46470251       0.25603935 </v>
   <v>       0.31562239      -0.46429280       0.25597373 </v>
   <v>       0.05455831      -0.12747704       0.30011406 </v>
   <v>       0.17934558       0.12308864       0.30029405 </v>
   <v>      -0.07144420       0.12235505       0.30025563 </v>
   <v>       0.30362869      -0.12796871       0.30034620 </v>
   <v>      -0.19563422      -0.12767052       0.30019446 </v>
   <v>       0.05374060       0.37194404       0.30034190 </v>
   <v>       0.42874766       0.12211755       0.30031703 </v>
   <v>      -0.43482346      -0.46465600       0.25601208 </v>
   <v>       0.17903567      -0.37773518       0.30035415 </v>
   <v>       0.30364070       0.37252462       0.30026554 </v>
   <v>      -0.07111264      -0.37769976       0.30024081 </v>
   <v>      -0.19642026       0.37183137       0.30031405 </v>
   <v>      -0.32124545       0.12220157       0.30028302 </v>
   <v>       0.42879702      -0.37774738       0.30025960 </v>
   <v>      -0.44613553      -0.12779254       0.30032720 </v>
   <v>      -0.32124970      -0.37773392       0.30026956 </v>
   <v>      -0.44613023       0.37189527       0.30021950 </v>
   <v>      -0.05874912      -0.04789089       0.34492369 </v>
   <v>       0.19135521      -0.04803326       0.34497890 </v>
   <v>       0.06612082       0.20232307       0.34508762 </v>
   <v>      -0.18379117       0.20178042       0.34495531 </v>
   <v>       0.06637232      -0.29837128       0.34493036 </v>
   <v>       0.31634927       0.20168588       0.34490750 </v>
   <v>      -0.30877614      -0.04824217       0.34494291 </v>
   <v>      -0.18369266      -0.29788293       0.34489053 </v>
   <v>      -0.05864548       0.45209496       0.34490995 </v>
   <v>       0.19133943       0.45166797       0.34492953 </v>
   <v>       0.31630927      -0.29829466       0.34496069 </v>
   <v>       0.44139837      -0.04813195       0.34497816 </v>
   <v>      -0.43379273       0.20190208       0.34494046 </v>
   <v>      -0.30886029       0.45222632       0.34500453 </v>
   <v>       0.44152928       0.45226376       0.34502212 </v>
   <v>       0.06410925       0.04265689      -0.12442214 </v>
   <v>      -0.43359461      -0.29807664       0.34485985 </v>
   <v>      -0.05910920      -0.20438371      -0.12432814 </v>
   <v>       0.19365522      -0.20305135      -0.12413467 </v>
   <v>      -0.18555177       0.04265097      -0.12434656 </v>
   <v>      -0.05894223       0.29681805      -0.12418612 </v>
   <v>       0.31485524       0.04177073      -0.12434316 </v>
   <v>       0.19082696       0.29598590      -0.12422698 </v>
   <v>       0.05861840       0.03741817       0.38907737 </v>
   <v>      -0.30719818      -0.20382103      -0.12438941 </v>
   <v>       0.06435198      -0.45772268      -0.12435213 </v>
   <v>      -0.30615761       0.29709200      -0.12419241 </v>
   <v>       0.44124767      -0.20314291      -0.12428840 </v>
   <v>       0.44302619       0.29642313      -0.12430881 </v>
   <v>       0.18361356      -0.21282230       0.38905315 </v>
   <v>       0.30870002       0.03750560       0.38907815 </v>
   <v>      -0.06633419      -0.21284981       0.38905188 </v>
   <v>       0.18344734       0.28764733       0.38910367 </v>
   <v>      -0.19135324       0.03762071       0.38905176 </v>
   <v>      -0.06625863       0.28744062       0.38903130 </v>
   <v>      -0.18539652      -0.45765700      -0.12435680 </v>
   <v>       0.31429644      -0.45752175      -0.12445844 </v>
   <v>      -0.43480522       0.04293107      -0.12444408 </v>
   <v>       0.05834094      -0.46208602       0.38898188 </v>
   <v>       0.43358476      -0.21246480       0.38910124 </v>
   <v>       0.43367510       0.28733179       0.38905373 </v>
   <v>      -0.31637555      -0.21249079       0.38908706 </v>
   <v>      -0.31626818       0.28748275       0.38902315 </v>
   <v>       0.30851916      -0.46244526       0.38906317 </v>
   <v>      -0.44137913       0.03766329       0.38906901 </v>
   <v>      -0.19134113      -0.46241147       0.38907434 </v>
   <v>      -0.43476583      -0.45822282      -0.12441865 </v>
   <v>       0.18394767      -0.03649629      -0.16679449 </v>
   <v>      -0.06669820      -0.03634583      -0.16691511 </v>
   <v>       0.05866121       0.21352214      -0.16667414 </v>
   <v>       0.05876782      -0.28686177      -0.16676339 </v>
   <v>       0.30888297       0.21392413      -0.16671947 </v>
   <v>      -0.19133866       0.21303617      -0.16686669 </v>
   <v>      -0.44150896      -0.46263398       0.38905501 </v>
   <v>       0.30807594      -0.28510042      -0.16609928 </v>
   <v>       0.43287846      -0.03702324      -0.16681413 </v>
   <v>      -0.19161089      -0.28632339      -0.16691818 </v>
   <v>      -0.31621220      -0.03637217      -0.16693710 </v>
   <v>       0.18371716       0.46434400      -0.16677676 </v>
   <v>      -0.06638960       0.46333488      -0.16697627 </v>
   <v>       0.06306479      -0.12946973       0.43440109 </v>
   <v>       0.18790930       0.12071535       0.43436438 </v>
   <v>      -0.06197374       0.12041303       0.43447269 </v>
   <v>      -0.44098400       0.21342225      -0.16676463 </v>
   <v>       0.43354833       0.46426270      -0.16679694 </v>
   <v>      -0.31653451       0.46320927      -0.16695287 </v>
   <v>      -0.18695181      -0.12953891       0.43440408 </v>
   <v>       0.31318264      -0.12936635       0.43437545 </v>
   <v>       0.06288844       0.37039360       0.43442687 </v>
   <v>      -0.44106714      -0.28680142      -0.16675054 </v>
   <v>      -0.31183208       0.12032842       0.43438407 </v>
   <v>       0.18803367      -0.37959601       0.43442586 </v>
   <v>      -0.06197372      -0.37987510       0.43449133 </v>
   <v>      -0.18692809       0.37043956       0.43443282 </v>
   <v>       0.43810074       0.12030228       0.43444067 </v>
   <v>       0.31296879       0.37037891       0.43444876 </v>
   <v>      -0.31217082      -0.37952159       0.43440554 </v>
   <v>      -0.43709776      -0.12963077       0.43442145 </v>
   <v>       0.43826222      -0.37948141       0.43431205 </v>
   <v>      -0.43697022       0.37043194       0.43443293 </v>
   <v>      -0.05439082       0.12484931      -0.21150641 </v>
   <v>       0.07080779      -0.12541535      -0.21159350 </v>
   <v>       0.19563052       0.12509221      -0.21150446 </v>
   <v>      -0.17912581      -0.12557018      -0.21163073 </v>
   <v>       0.07073863       0.37446628      -0.21158862 </v>
   <v>       0.32075568      -0.12530361      -0.21161107 </v>
   <v>      -0.05468338      -0.37509258      -0.21140611 </v>
   <v>      -0.30429232       0.12468313      -0.21156912 </v>
   <v>      -0.17925033       0.37449461      -0.21159713 </v>
   <v>       0.19513768      -0.37529413      -0.21162848 </v>
   <v>       0.44534741       0.12503755      -0.21141422 </v>
   <v>       0.32074694       0.37459323      -0.21158356 </v>
   <v>      -0.30476492      -0.37539021      -0.21145750 </v>
   <v>      -0.42958433      -0.12579004      -0.21165119 </v>
   <v>       0.44599858      -0.37532125      -0.21163751 </v>
   <v>      -0.06219001      -0.04420982       0.47861199 </v>
   <v>       0.18775741      -0.04418283       0.47863259 </v>
   <v>       0.06281029       0.20572901       0.47864240 </v>
   <v>      -0.42912821       0.37445884      -0.21161067 </v>
   <v>       0.06281236      -0.29418746       0.47860823 </v>
   <v>      -0.18720801       0.20577301       0.47861659 </v>
   <v>       0.31279850       0.20586654       0.47863357 </v>
   <v>      -0.18722680      -0.29429697       0.47863119 </v>
   <v>      -0.31220528      -0.04405760       0.47861889 </v>
   <v>       0.31279897      -0.29425280       0.47863841 </v>
   <v>       0.43786016      -0.04406461       0.47860417 </v>
   <v>      -0.06225586       0.45580440       0.47861195 </v>
   <v>       0.18780377       0.45580502       0.47862498 </v>
   <v>      -0.43721539       0.20573427       0.47859714 </v>
   <v>      -0.31217341       0.45586642       0.47862020 </v>
   <v>       0.43783064       0.45590524       0.47859350 </v>
   <v>      -0.43724580      -0.29421271       0.47862975 </v>
   <v>       0.06057241       0.04211559      -0.25581113 </v>
   <v>       0.18595176      -0.20837515      -0.25584478 </v>
   <v>      -0.06415809      -0.20824619      -0.25585455 </v>
   <v>       0.31069619       0.04224113      -0.25591026 </v>
   <v>      -0.18925715       0.04227482      -0.25595686 </v>
   <v>       0.18568990       0.29180523      -0.25585920 </v>
   <v>      -0.06397823       0.29178318      -0.25586146 </v>
   <v>       0.06053354      -0.45768619      -0.25581767 </v>
   <v>       0.43584071      -0.20829056      -0.25583735 </v>
   <v>      -0.31424978      -0.20804498      -0.25583523 </v>
   <v>       0.43579854       0.29192047      -0.25588823 </v>
   <v>      -0.31438471       0.29168495      -0.25592928 </v>
   <v>       0.31080886      -0.45754788      -0.25576192 </v>
   <v>      -0.18930214      -0.45774211      -0.25587622 </v>
   <v>      -0.43951110       0.04221284      -0.25581796 </v>
   <v>       0.06346815      -0.12798082      -0.47869466 </v>
   <v>      -0.06150682       0.12197896      -0.47868772 </v>
   <v>       0.18843939       0.12201829      -0.47870247 </v>
   <v>      -0.18650572      -0.12803525      -0.47868113 </v>
   <v>       0.31353440      -0.12794036      -0.47870255 </v>
   <v>       0.06343498       0.37203846      -0.47868152 </v>
   <v>      -0.06149691      -0.37796758      -0.47869012 </v>
   <v>       0.18847585      -0.37802034      -0.47868221 </v>
   <v>      -0.31146767       0.12199010      -0.47868613 </v>
   <v>      -0.18648311       0.37209043      -0.47870204 </v>
   <v>       0.43849909       0.12204642      -0.47867261 </v>
   <v>       0.31348159       0.37204353      -0.47869990 </v>
   <v>      -0.43925088      -0.45763722      -0.25591397 </v>
   <v>      -0.31154100      -0.37794752      -0.47869526 </v>
   <v>      -0.43649695      -0.12793150      -0.47868916 </v>
   <v>       0.43849160      -0.37806661      -0.47868848 </v>
   <v>      -0.43651238       0.37199418      -0.47869756 </v>
   <v>      -0.05949559      -0.04159424      -0.30028083 </v>
   <v>       0.19066548      -0.04150407      -0.30029066 </v>
   <v>       0.06538461       0.20843066      -0.30031510 </v>
   <v>       0.06542428      -0.29159615      -0.30031767 </v>
   <v>      -0.18462171       0.20843969      -0.30030347 </v>
   <v>       0.31534714       0.20842363      -0.30031143 </v>
   <v>      -0.18447339      -0.29167442      -0.30029524 </v>
   <v>      -0.30921867      -0.04177679      -0.30027749 </v>
   <v>       0.31534754      -0.29164888      -0.30031676 </v>
   <v>       0.44041945      -0.04162460      -0.30029331 </v>
   <v>      -0.05954536       0.45838055      -0.30028150 </v>
   <v>       0.19036322       0.45827694      -0.30030867 </v>
   <v>      -0.43444071       0.20830452      -0.30029675 </v>
   <v>      -0.30934975       0.45840925      -0.30029538 </v>
   <v>       0.44038726       0.45831025      -0.30030543 </v>
   <v>      -0.06121399      -0.04227008      -0.43455905 </v>
   <v>       0.18883171      -0.04232124      -0.43456716 </v>
   <v>       0.06383475       0.20768810      -0.43456392 </v>
   <v>      -0.43459744      -0.29157066      -0.30031940 </v>
   <v>       0.06378350      -0.29222214      -0.43455979 </v>
   <v>      -0.18620227       0.20776398      -0.43456359 </v>
   <v>       0.31380930       0.20775342      -0.43455391 </v>
   <v>      -0.18619854      -0.29229562      -0.43456997 </v>
   <v>      -0.31117774      -0.04227967      -0.43456293 </v>
   <v>       0.31388932      -0.29231405      -0.43455793 </v>
   <v>       0.43880432      -0.04226050      -0.43457463 </v>
   <v>      -0.06122013       0.45768479      -0.43456955 </v>
   <v>       0.18883360       0.45772598      -0.43454177 </v>
   <v>      -0.43619651       0.20766502      -0.43457740 </v>
   <v>      -0.31119915       0.45768241      -0.43453994 </v>
   <v>       0.43878775       0.45773284      -0.43455026 </v>
   <v>      -0.43623896      -0.29226683      -0.43456123 </v>
   <v>       0.05889318      -0.12440666      -0.34507881 </v>
   <v>       0.18389093       0.12582537      -0.34507914 </v>
   <v>      -0.06605046       0.12582404      -0.34505466 </v>
   <v>       0.30884997      -0.12437196      -0.34508144 </v>
   <v>      -0.19115818      -0.12437752      -0.34509777 </v>
   <v>       0.05885168       0.37567762      -0.34509187 </v>
   <v>       0.18389611      -0.37417527      -0.34507146 </v>
   <v>      -0.06610027      -0.37416288      -0.34507394 </v>
   <v>       0.43385741       0.12576547      -0.34509856 </v>
   <v>       0.30888576       0.37562002      -0.34508323 </v>
   <v>      -0.31615995       0.12575734      -0.34509450 </v>
   <v>      -0.19116709       0.37562112      -0.34508721 </v>
   <v>       0.43398800      -0.37393103      -0.34504652 </v>
   <v>      -0.44112595      -0.12433973      -0.34508536 </v>
   <v>      -0.31600373      -0.37402210      -0.34504809 </v>
   <v>      -0.44126348       0.37543202      -0.34505623 </v>
   <v>       0.06263428       0.04195431      -0.38914711 </v>
   <v>      -0.06223361      -0.20812643      -0.38916542 </v>
   <v>       0.18774610      -0.20823519      -0.38916743 </v>
   <v>      -0.18718368       0.04183598      -0.38920885 </v>
   <v>       0.31273733       0.04185831      -0.38918749 </v>
   <v>      -0.06228036       0.29186708      -0.38916395 </v>
   <v>       0.18778506       0.29187256      -0.38918146 </v>
   <v>       0.06269519      -0.45815411      -0.38914374 </v>
   <v>      -0.31226360      -0.20819202      -0.38917751 </v>
   <v>       0.43768128      -0.20813472      -0.38915019 </v>
   <v>      -0.31230552       0.29183145      -0.38917507 </v>
   <v>       0.43776863       0.29182342      -0.38916547 </v>
   <v>      -0.18735282      -0.45815962      -0.38913562 </v>
   <v>       0.31281545      -0.45817276      -0.38920868 </v>
   <v>      -0.43726725       0.04185937      -0.38916685 </v>
   <v>      -0.43726244      -0.45818062      -0.38914469 </v>
  </varray>
 </structure>
 <varray name="primitive_index" >
  <v type="int" >        1 </v>
  <v type="int" >       26 </v>
  <v type="int" >      282 </v>
  <v type="int" >      288 </v>
  <v type="int" >       60 </v>
  <v type="int" >      155 </v>
  <v type="int" >      202 </v>
  <v type="int" >      256 </v>
  <v type="int" >      212 </v>
  <v type="int" >       83 </v>
  <v type="int" >       51 </v>
  <v type="int" >      102 </v>
  <v type="int" >      284 </v>
  <v type="int" >      252 </v>
  <v type="int" >      166 </v>
  <v type="int" >        5 </v>
  <v type="int" >      146 </v>
  <v type="int" >       50 </v>
  <v type="int" >      273 </v>
  <v type="int" >      145 </v>
  <v type="int" >      104 </v>
  <v type="int" >      163 </v>
  <v type="int" >      176 </v>
  <v type="int" >      182 </v>
  <v type="int" >      117 </v>
  <v type="int" >      287 </v>
  <v type="int" >       48 </v>
  <v type="int" >      123 </v>
  <v type="int" >      250 </v>
  <v type="int" >      251 </v>
  <v type="int" >       91 </v>
  <v type="int" >      205 </v>
  <v type="int" >      167 </v>
  <v type="int" >      229 </v>
  <v type="int" >      277 </v>
  <v type="int" >      276 </v>
  <v type="int" >      189 </v>
  <v type="int" >       97 </v>
  <v type="int" >      213 </v>
  <v type="int" >      175 </v>
  <v type="int" >       92 </v>
  <v type="int" >      174 </v>
  <v type="int" >       30 </v>
  <v type="int" >      185 </v>
  <v type="int" >      103 </v>
  <v type="int" >      139 </v>
  <v type="int" >       24 </v>
  <v type="int" >       52 </v>
  <v type="int" >      127 </v>
  <v type="int" >      200 </v>
  <v type="int" >      164 </v>
  <v type="int" >       35 </v>
  <v type="int" >      179 </v>
  <v type="int" >      261 </v>
  <v type="int" >      243 </v>
  <v type="int" >      118 </v>
  <v type="int" >       58 </v>
  <v type="int" >      168 </v>
  <v type="int" >      137 </v>
  <v type="int" >      265 </v>
  <v type="int" >      281 </v>
  <v type="int" >       81 </v>
  <v type="int" >      275 </v>
  <v type="int" >      214 </v>
  <v type="int" >      215 </v>
  <v type="int" >      135 </v>
  <v type="int" >       98 </v>
  <v type="int" >       72 </v>
  <v type="int" >      226 </v>
  <v type="int" >      159 </v>
  <v type="int" >       28 </v>
  <v type="int" >      285 </v>
  <v type="int" >      242 </v>
  <v type="int" >      178 </v>
  <v type="int" >      220 </v>
  <v type="int" >      109 </v>
  <v type="int" >      101 </v>
  <v type="int" >      210 </v>
  <v type="int" >      130 </v>
  <v type="int" >      171 </v>
  <v type="int" >       20 </v>
  <v type="int" >      258 </v>
  <v type="int" >       47 </v>
  <v type="int" >      207 </v>
  <v type="int" >      216 </v>
  <v type="int" >       86 </v>
  <v type="int" >       25 </v>
  <v type="int" >       73 </v>
  <v type="int" >       12 </v>
  <v type="int" >      116 </v>
  <v type="int" >      208 </v>
  <v type="int" >      172 </v>
  <v type="int" >      219 </v>
  <v type="int" >      279 </v>
  <v type="int" >      206 </v>
  <v type="int" >       84 </v>
  <v type="int" >       62 </v>
  <v type="int" >      105 </v>
  <v type="int" >      268 </v>
  <v type="int" >        2 </v>
  <v type="int" >      280 </v>
  <v type="int" >      245 </v>
  <v type="int" >      120 </v>
  <v type="int" >      124 </v>
  <v type="int" >       29 </v>
  <v type="int" >      266 </v>
  <v type="int" >      191 </v>
  <v type="int" >      150 </v>
  <v type="int" >      255 </v>
  <v type="int" >        7 </v>
  <v type="int" >      165 </v>
  <v type="int" >      190 </v>
  <v type="int" >      248 </v>
  <v type="int" >       38 </v>
  <v type="int" >       13 </v>
  <v type="int" >      247 </v>
  <v type="int" >       18 </v>
  <v type="int" >      161 </v>
  <v type="int" >      286 </v>
  <v type="int" >      264 </v>
  <v type="int" >        4 </v>
  <v type="int" >       45 </v>
  <v type="int" >       55 </v>
  <v type="int" >       67 </v>
  <v type="int" >       16 </v>
  <v type="int" >      270 </v>
  <v type="int" >       64 </v>
  <v type="int" >      173 </v>
  <v type="int" >       17 </v>
  <v type="int" >      259 </v>
  <v type="int" >      134 </v>
  <v type="int" >       39 </v>
  <v type="int" >        6 </v>
  <v type="int" >      222 </v>
  <v type="int" >      283 </v>
  <v type="int" >      110 </v>
  <v type="int" >      253 </v>
  <v type="int" >       88 </v>
  <v type="int" >      181 </v>
  <v type="int" >       36 </v>
  <v type="int" >      204 </v>
  <v type="int" >      160 </v>
  <v type="int" >      158 </v>
  <v type="int" >      143 </v>
  <v type="int" >       74 </v>
  <v type="int" >       82 </v>
  <v type="int" >      263 </v>
  <v type="int" >       23 </v>
  <v type="int" >      218 </v>
  <v type="int" >      241 </v>
  <v type="int" >      257 </v>
  <v type="int" >      238 </v>
  <v type="int" >      131 </v>
  <v type="int" >       80 </v>
  <v type="int" >      201 </v>
  <v type="int" >      113 </v>
  <v type="int" >      232 </v>
  <v type="int" >       69 </v>
  <v type="int" >      249 </v>
  <v type="int" >      235 </v>
  <v type="int" >      149 </v>
  <v type="int" >      197 </v>
  <v type="int" >        3 </v>
  <v type="int" >      112 </v>
  <v type="int" >      254 </v>
  <v type="int" >      224 </v>
  <v type="int" >      132 </v>
  <v type="int" >      188 </v>
  <v type="int" >       57 </v>
  <v type="int" >      272 </v>
  <v type="int" >       49 </v>
  <v type="int" >      138 </v>
  <v type="int" >       66 </v>
  <v type="int" >       33 </v>
  <v type="int" >      184 </v>
  <v type="int" >      236 </v>
  <v type="int" >      111 </v>
  <v type="int" >      223 </v>
  <v type="int" >      106 </v>
  <v type="int" >      157 </v>
  <v type="int" >       21 </v>
  <v type="int" >      230 </v>
  <v type="int" >      234 </v>
  <v type="int" >       75 </v>
  <v type="int" >       99 </v>
  <v type="int" >      221 </v>
  <v type="int" >      269 </v>
  <v type="int" >      244 </v>
  <v type="int" >      237 </v>
  <v type="int" >      199 </v>
  <v type="int" >      156 </v>
  <v type="int" >      169 </v>
  <v type="int" >        9 </v>
  <v type="int" >      262 </v>
  <v type="int" >       46 </v>
  <v type="int" >      239 </v>
  <v type="int" >      151 </v>
  <v type="int" >       11 </v>
  <v type="int" >      187 </v>
  <v type="int" >      211 </v>
  <v type="int" >       31 </v>
  <v type="int" >       43 </v>
  <v type="int" >       71 </v>
  <v type="int" >       19 </v>
  <v type="int" >       94 </v>
  <v type="int" >       87 </v>
  <v type="int" >      267 </v>
  <v type="int" >      180 </v>
  <v type="int" >       27 </v>
  <v type="int" >      140 </v>
  <v type="int" >       10 </v>
  <v type="int" >      144 </v>
  <v type="int" >      107 </v>
  <v type="int" >      203 </v>
  <v type="int" >       68 </v>
  <v type="int" >       34 </v>
  <v type="int" >      177 </v>
  <v type="int" >      152 </v>
  <v type="int" >      183 </v>
  <v type="int" >      278 </v>
  <v type="int" >      195 </v>
  <v type="int" >       77 </v>
  <v type="int" >       14 </v>
  <v type="int" >      108 </v>
  <v type="int" >      225 </v>
  <v type="int" >      119 </v>
  <v type="int" >       37 </v>
  <v type="int" >      274 </v>
  <v type="int" >      233 </v>
  <v type="int" >       63 </v>
  <v type="int" >      141 </v>
  <v type="int" >       54 </v>
  <v type="int" >      154 </v>
  <v type="int" >      125 </v>
  <v type="int" >      136 </v>
  <v type="int" >      246 </v>
  <v type="int" >       53 </v>
  <v type="int" >       76 </v>
  <v type="int" >      193 </v>
  <v type="int" >      129 </v>
  <v type="int" >      162 </v>
  <v type="int" >      170 </v>
  <v type="int" >      133 </v>
  <v type="int" >       65 </v>
  <v type="int" >      271 </v>
  <v type="int" >       93 </v>
  <v type="int" >       32 </v>
  <v type="int" >       95 </v>
  <v type="int" >       90 </v>
  <v type="int" >       56 </v>
  <v type="int" >       42 </v>
  <v type="int" >       59 </v>
  <v type="int" >        8 </v>
  <v type="int" >      228 </v>
  <v type="int" >       70 </v>
  <v type="int" >      186 </v>
  <v type="int" >      196 </v>
  <v type="int" >      121 </v>
  <v type="int" >      122 </v>
  <v type="int" >       44 </v>
  <v type="int" >       79 </v>
  <v type="int" >      198 </v>
  <v type="int" >      153 </v>
  <v type="int" >      240 </v>
  <v type="int" >      231 </v>
  <v type="int" >       85 </v>
  <v type="int" >      209 </v>
  <v type="int" >      194 </v>
  <v type="int" >       40 </v>
  <v type="int" >       89 </v>
  <v type="int" >      227 </v>
  <v type="int" >       78 </v>
  <v type="int" >      142 </v>
  <v type="int" >      114 </v>
  <v type="int" >       15 </v>
  <v type="int" >      217 </v>
  <v type="int" >      148 </v>
  <v type="int" >      100 </v>
  <v type="int" >       61 </v>
  <v type="int" >      126 </v>
  <v type="int" >      192 </v>
  <v type="int" >       96 </v>
  <v type="int" >      147 </v>
  <v type="int" >      115 </v>
  <v type="int" >       22 </v>
  <v type="int" >       41 </v>
  <v type="int" >      260 </v>
  <v type="int" >      128 </v>
 </varray>
 <kpoints>
  <generation param="Gamma">
   <v type="int" name="divisions">       4        4        1 </v>
   <v name="usershift">      0.00000000       0.00000000       0.00000000 </v>
   <v name="genvec1">      0.25000000       0.00000000       0.00000000 </v>
   <v name="genvec2">      0.00000000       0.25000000       0.00000000 </v>
   <v name="genvec3">      0.00000000       0.00000000       1.00000000 </v>
   <v name="shift">      0.00000000       0.00000000       0.00000000 </v>
  </generation>
  <varray name="kpointlist" >
   <v>       0.00000000       0.00000000       0.00000000 </v>
   <v>       0.25000000       0.00000000       0.00000000 </v>
   <v>       0.50000000       0.00000000       0.00000000 </v>
   <v>       0.00000000       0.25000000       0.00000000 </v>
   <v>       0.25000000       0.25000000       0.00000000 </v>
   <v>       0.50000000       0.25000000       0.00000000 </v>
   <v>      -0.25000000       0.25000000       0.00000000 </v>
   <v>       0.00000000       0.50000000       0.00000000 </v>
   <v>       0.25000000       0.50000000       0.00000000 </v>
   <v>       0.50000000       0.50000000       0.00000000 </v>
  </varray>
  <varray name="weights" >
   <v>       0.06250000 </v>
   <v>       0.12500000 </v>
   <v>       0.06250000 </v>
   <v>       0.12500000 </v>
   <v>       0.12500000 </v>
   <v>       0.12500000 </v>
   <v>       0.12500000 </v>
   <v>       0.06250000 </v>
   <v>       0.12500000 </v>
   <v>       0.06250000 </v>
  </varray>
 </kpoints>
 <parameters>
  <separator name="general" >
   <i type="string" name="SYSTEM">unknown system</i>
   <i type="logical" name="LCOMPAT"> F  </i>
  </separator>
  <separator name="electronic" >
   <i type="string" name="PREC">accura</i>
   <i name="ENMAX">    450.00000000</i>
   <i name="ENAUG">    838.43500000</i>
   <i name="EDIFF">      0.00000100</i>
   <i type="int" name="IALGO">    68</i>
   <i type="int" name="IWAVPR">    11</i>
   <i type="int" name="NBANDS">  1386</i>
   <i name="NELECT">   2297.00000000</i>
   <i type="int" name="TURBO">     0</i>
   <i type="int" name="IRESTART">     0</i>
   <i type="int" name="NREBOOT">     0</i>
   <i type="int" name="NMIN">     0</i>
   <i name="EREF">      0.00000000</i>
   <separator name="electronic smearing" >
    <i type="int" name="ISMEAR">     0</i>
    <i name="SIGMA">      0.15000000</i>
    <i name="KSPACING">      0.50000000</i>
    <i type="logical" name="KGAMMA"> T  </i>
   </separator>
   <separator name="electronic projectors" >
    <i type="logical" name="LREAL"> T  </i>
    <v name="ROPT">     -0.00025000     -0.00025000</v>
    <i type="int" name="LMAXPAW">  -100</i>
    <i type="int" name="LMAXMIX">     2</i>
    <i type="logical" name="NLSPLINE"> F  </i>
   </separator>
   <separator name="electronic startup" >
    <i type="int" name="ISTART">     0</i>
    <i type="int" name="ICHARG">     2</i>
    <i type="int" name="INIWAV">     1</i>
   </separator>
   <separator name="electronic spin" >
    <i type="int" name="ISPIN">     1</i>
    <i type="logical" name="LNONCOLLINEAR"> F  </i>
    <v name="MAGMOM">      1.00000000      1.00000000      1.00000000      1.00000000      1.00000000      1.00000000      1.00000000      1.00000000      1.00000000      1.00000000      1.00000000      1.00000000      1.00000000      1.00000000      1.00000000      1.00000000      1.00000000      1.00000000      1.00000000      1.00000000
      1.00000000      1.00000000      1.00000000      1.00000000      1.00000000      1.00000000      1.00000000      1.00000000      1.00000000      1.00000000      1.00000000      1.00000000      1.00000000      1.00000000      1.00000000      1.00000000      1.00000000      1.00000000      1.00000000      1.00000000
      1.00000000      1.00000000      1.00000000      1.00000000      1.00000000      1.00000000      1.00000000      1.00000000      1.00000000      1.00000000      1.00000000      1.00000000      1.00000000      1.00000000      1.00000000      1.00000000      1.00000000      1.00000000      1.00000000      1.00000000
      1.00000000      1.00000000      1.00000000      1.00000000      1.00000000      1.00000000      1.00000000      1.00000000      1.00000000      1.00000000      1.00000000      1.00000000      1.00000000      1.00000000      1.00000000      1.00000000      1.00000000      1.00000000      1.00000000      1.00000000
      1.00000000      1.00000000      1.00000000      1.00000000      1.00000000      1.00000000      1.00000000      1.00000000      1.00000000      1.00000000      1.00000000      1.00000000      1.00000000      1.00000000      1.00000000      1.00000000      1.00000000      1.00000000      1.00000000      1.00000000
      1.00000000      1.00000000      1.00000000      1.00000000      1.00000000      1.00000000      1.00000000      1.00000000      1.00000000      1.00000000      1.00000000      1.00000000      1.00000000      1.00000000      1.00000000      1.00000000      1.00000000      1.00000000      1.00000000      1.00000000
      1.00000000      1.00000000      1.00000000      1.00000000      1.00000000      1.00000000      1.00000000      1.00000000      1.00000000      1.00000000      1.00000000      1.00000000      1.00000000      1.00000000      1.00000000      1.00000000      1.00000000      1.00000000      1.00000000      1.00000000
      1.00000000      1.00000000      1.00000000      1.00000000      1.00000000      1.00000000      1.00000000      1.00000000      1.00000000      1.00000000      1.00000000      1.00000000      1.00000000      1.00000000      1.00000000      1.00000000      1.00000000      1.00000000      1.00000000      1.00000000
      1.00000000      1.00000000      1.00000000      1.00000000      1.00000000      1.00000000      1.00000000      1.00000000      1.00000000      1.00000000      1.00000000      1.00000000      1.00000000      1.00000000      1.00000000      1.00000000      1.00000000      1.00000000      1.00000000      1.00000000
      1.00000000      1.00000000      1.00000000      1.00000000      1.00000000      1.00000000      1.00000000      1.00000000      1.00000000      1.00000000      1.00000000      1.00000000      1.00000000      1.00000000      1.00000000      1.00000000      1.00000000      1.00000000      1.00000000      1.00000000
      1.00000000      1.00000000      1.00000000      1.00000000      1.00000000      1.00000000      1.00000000      1.00000000      1.00000000      1.00000000      1.00000000      1.00000000      1.00000000      1.00000000      1.00000000      1.00000000      1.00000000      1.00000000      1.00000000      1.00000000
      1.00000000      1.00000000      1.00000000      1.00000000      1.00000000      1.00000000      1.00000000      1.00000000      1.00000000      1.00000000      1.00000000      1.00000000      1.00000000      1.00000000      1.00000000      1.00000000      1.00000000      1.00000000      1.00000000      1.00000000
      1.00000000      1.00000000      1.00000000      1.00000000      1.00000000      1.00000000      1.00000000      1.00000000      1.00000000      1.00000000      1.00000000      1.00000000      1.00000000      1.00000000      1.00000000      1.00000000      1.00000000      1.00000000      1.00000000      1.00000000
      1.00000000      1.00000000      1.00000000      1.00000000      1.00000000      1.00000000      1.00000000      1.00000000      1.00000000      1.00000000      1.00000000      1.00000000      1.00000000      1.00000000      1.00000000      1.00000000      1.00000000      1.00000000      1.00000000      1.00000000
      1.00000000      1.00000000      1.00000000      1.00000000      1.00000000      1.00000000      1.00000000      1.00000000</v>
    <i name="NUPDOWN">     -1.00000000</i>
    <i type="logical" name="LSORBIT"> F  </i>
    <v name="SAXIS">      0.00000000      0.00000000      1.00000000</v>
    <i type="logical" name="LSPIRAL"> F  </i>
    <v name="QSPIRAL">      0.00000000      0.00000000      0.00000000</v>
    <i type="logical" name="LZEROZ"> F  </i>
   </separator>
   <separator name="electronic exchange-correlation" >
    <i type="logical" name="LASPH"> F  </i>
    <i type="logical" name="LMETAGGA"> F  </i>
   </separator>
   <separator name="electronic convergence" >
    <i type="int" name="NELM">   100</i>
    <i type="int" name="NELMDL">     0</i>
    <i type="int" name="NELMIN">     4</i>
    <i name="ENINI">    450.00000000</i>
    <separator name="electronic convergence detail" >
     <i type="logical" name="LDIAG"> T  </i>
     <i type="logical" name="LSUBROT"> F  </i>
     <i name="WEIMIN">      0.00100000</i>
     <i name="EBREAK">      0.00000000</i>
     <i name="DEPER">      0.30000000</i>
     <i type="int" name="NRMM">     4</i>
     <i name="TIME">      0.40000000</i>
    </separator>
   </separator>
   <separator name="electronic mixer" >
    <i name="AMIX">      0.40000000</i>
    <i name="BMIX">      1.00000000</i>
    <i name="AMIN">      0.10000000</i>
    <i name="AMIX_MAG">      1.60000000</i>
    <i name="BMIX_MAG">      1.00000000</i>
    <separator name="electronic mixer details" >
     <i type="int" name="IMIX">     4</i>
     <i type="logical" name="MIXFIRST"> F  </i>
     <i type="int" name="MAXMIX">   -45</i>
     <i name="WC">    100.00000000</i>
     <i type="int" name="INIMIX">     1</i>
     <i type="int" name="MIXPRE">     1</i>
     <i type="int" name="MREMOVE">     5</i>
    </separator>
   </separator>
   <separator name="electronic dipolcorrection" >
    <i type="logical" name="LDIPOL"> F  </i>
    <i type="logical" name="LMONO"> F  </i>
    <i type="int" name="IDIPOL">     0</i>
    <i name="EPSILON">      1.00000000</i>
    <v name="DIPOL">   -100.00000000   -100.00000000   -100.00000000</v>
    <i name="EFIELD">      0.00000000</i>
   </separator>
  </separator>
  <separator name="grids" >
   <i type="int" name="NGX">    70</i>
   <i type="int" name="NGY">    60</i>
   <i type="int" name="NGZ">   320</i>
   <i type="int" name="NGXF">   140</i>
   <i type="int" name="NGYF">   120</i>
   <i type="int" name="NGZF">   640</i>
   <i type="logical" name="ADDGRID"> F  </i>
  </separator>
  <separator name="ionic" >
   <i type="int" name="NSW">     5</i>
   <i type="int" name="IBRION">     2</i>
   <i type="int" name="MDALGO">     0</i>
   <i type="int" name="ISIF">     2</i>
   <i name="PSTRESS">      0.00000000</i>
   <i name="EDIFFG">      0.00001000</i>
   <i type="int" name="NFREE">     1</i>
   <i name="POTIM">      0.25000000</i>
   <i name="SMASS">     -3.00000000</i>
   <i name="SCALEE">      1.00000000</i>
  </separator>
  <separator name="ionic md" >
   <i name="TEBEG">      0.00010000</i>
   <i name="TEEND">      0.00010000</i>
   <i type="int" name="NBLOCK">     1</i>
   <i type="int" name="KBLOCK">     5</i>
   <i type="int" name="NPACO">   256</i>
   <i name="APACO">     16.00000000</i>
  </separator>
  <separator name="symmetry" >
   <i type="int" name="ISYM">     2</i>
   <i name="SYMPREC">      0.00001000</i>
  </separator>
  <separator name="dos" >
   <i type="int" name="LORBIT">     0</i>
   <v name="RWIGS">     -1.00000000     -1.00000000</v>
   <i type="int" name="NEDOS">   301</i>
   <i name="EMIN">     10.00000000</i>
   <i name="EMAX">    -10.00000000</i>
   <i name="EFERMI">      0.00000000</i>
  </separator>
  <separator name="writing" >
   <i type="int" name="NWRITE">     2</i>
   <i type="logical" name="LWAVE"> F  </i>
   <i type="logical" name="LDOWNSAMPLE"> F  </i>
   <i type="logical" name="LCHARG"> F  </i>
   <i type="logical" name="LPARD"> F  </i>
   <i type="logical" name="LVTOT"> F  </i>
   <i type="logical" name="LVHAR"> F  </i>
   <i type="logical" name="LELF"> F  </i>
   <i type="logical" name="LOPTICS"> F  </i>
   <v name="STM">      0.00000000      0.00000000      0.00000000      0.00000000      0.00000000      0.00000000      0.00000000</v>
  </separator>
  <separator name="performance" >
   <i type="int" name="NPAR">    14</i>
   <i type="int" name="NSIM">     4</i>
   <i type="int" name="NBLK">    -1</i>
   <i type="logical" name="LPLANE"> T  </i>
   <i type="logical" name="LSCALAPACK"> T  </i>
   <i type="logical" name="LSCAAWARE"> T  </i>
   <i type="logical" name="LSCALU"> F  </i>
   <i type="logical" name="LASYNC"> F  </i>
   <i type="logical" name="LORBITALREAL"> F  </i>
  </separator>
  <separator name="miscellaneous" >
   <i type="int" name="IDIOT">     3</i>
   <i type="int" name="ISPECIAL">     0</i>
   <i type="logical" name="LMUSIC"> F  </i>
   <v name="POMASS">     55.84700000     54.93800000</v>
   <v name="DARWINR">      0.00000000      0.00000000</v>
   <v name="DARWINV">      1.00000000      1.00000000</v>
   <i type="logical" name="LCORR"> T  </i>
  </separator>
  <i type="logical" name="GGA_COMPAT"> T  </i>
  <i type="logical" name="LBERRY"> F  </i>
  <i type="int" name="ICORELEVEL">     0</i>
  <i type="logical" name="LDAU"> F  </i>
  <i type="int" name="I_CONSTRAINED_M">     0</i>
  <separator name="electronic exchange-correlation" >
   <i type="string" name="GGA">--</i>
   <i type="int" name="VOSKOWN">     0</i>
   <i type="logical" name="LHFCALC"> F  </i>
   <i type="string" name="PRECFOCK"></i>
   <i type="logical" name="LSYMGRAD"> F  </i>
   <i type="logical" name="LHFONE"> F  </i>
   <i type="logical" name="LRHFCALC"> F  </i>
   <i type="logical" name="LTHOMAS"> F  </i>
   <i type="logical" name="LMODELHF"> F  </i>
   <i name="ENCUT4O">     -1.00000000</i>
   <i type="int" name="EXXOEP">     0</i>
   <i type="int" name="FOURORBIT">     0</i>
   <i name="AEXX">      0.00000000</i>
   <i name="HFALPHA">      0.00000000</i>
   <i name="MCALPHA">      0.00000000</i>
   <i name="ALDAX">      1.00000000</i>
   <i name="AGGAX">      1.00000000</i>
   <i name="ALDAC">      1.00000000</i>
   <i name="AGGAC">      1.00000000</i>
   <i type="int" name="NKREDX">     1</i>
   <i type="int" name="NKREDY">     1</i>
   <i type="int" name="NKREDZ">     1</i>
   <i type="logical" name="SHIFTRED"> F  </i>
   <i type="logical" name="ODDONLY"> F  </i>
   <i type="logical" name="EVENONLY"> F  </i>
   <i type="int" name="LMAXFOCK">     0</i>
   <i type="int" name="NMAXFOCKAE">     0</i>
   <i type="logical" name="LFOCKAEDFT"> F  </i>
   <i name="HFSCREEN">      0.00000000</i>
   <i name="HFSCREENC">      0.00000000</i>
   <i type="int" name="NBANDSGWLOW">     0</i>
  </separator>
  <separator name="vdW DFT" >
   <i type="logical" name="LUSE_VDW"> F  </i>
   <i name="Zab_VDW">     -0.84910000</i>
   <i name="PARAM1">      0.12340000</i>
   <i name="PARAM2">      1.00000000</i>
   <i name="PARAM3">      0.00000000</i>
  </separator>
  <separator name="model GW" >
   <i type="int" name="MODEL_GW">     0</i>
   <i name="MODEL_EPS0">      7.68123389</i>
   <i name="MODEL_ALPHA">      1.00000000</i>
  </separator>
  <separator name="linear response parameters" >
   <i type="logical" name="LEPSILON"> F  </i>
   <i type="logical" name="LRPA"> F  </i>
   <i type="logical" name="LNABLA"> F  </i>
   <i type="logical" name="LVEL"> F  </i>
   <i type="int" name="KINTER">     0</i>
   <i name="CSHIFT">      0.10000000</i>
   <i name="OMEGAMAX">     -1.00000000</i>
   <i name="DEG_THRESHOLD">      0.00200000</i>
   <i name="RTIME">     -0.10000000</i>
   <i name="WPLASMAI">      0.00000000</i>
   <v name="DFIELD">      0.00000000      0.00000000      0.00000000</v>
   <v name="WPLASMA">      0.00000000      0.00000000      0.00000000      0.00000000      0.00000000      0.00000000      0.00000000      0.00000000      0.00000000</v>
  </separator>
  <separator name="orbital magnetization" >
   <i type="logical" name="NUCIND"> F  </i>
   <v name="MAGPOS">      0.00000000      0.00000000      0.00000000</v>
   <i type="logical" name="LNICSALL"> T  </i>
   <i type="logical" name="ORBITALMAG"> F  </i>
   <i type="logical" name="LMAGBLOCH"> F  </i>
   <i type="logical" name="LCHIMAG"> F  </i>
   <i type="logical" name="LGAUGE"> T  </i>
   <i type="int" name="MAGATOM">     0</i>
   <v name="MAGDIPOL">      0.00000000      0.00000000      0.00000000</v>
   <v name="AVECCONST">      0.00000000      0.00000000      0.00000000</v>
  </separator>
  <separator name="response functions" >
   <i type="logical" name="LADDER"> F  </i>
   <i type="logical" name="LRPAFORCE"> F  </i>
   <i type="logical" name="LFXC"> F  </i>
   <i type="logical" name="LHARTREE"> T  </i>
   <i type="int" name="IBSE">     0</i>
   <v type="int" name="KPOINT">    -1     0     0     0</v>
   <i type="logical" name="LTCTE"> F  </i>
   <i type="logical" name="LTETE"> F  </i>
   <i type="logical" name="LTRIPLET"> F  </i>
   <i type="logical" name="LFXCEPS"> F  </i>
   <i type="logical" name="LFXHEG"> F  </i>
   <i type="int" name="NATURALO">     2</i>
   <i type="logical" name="L2ORDER"> F  </i>
   <i type="logical" name="LMP2LT"> F  </i>
   <i type="logical" name="LUSEW"> F  </i>
   <i name="ENCUTGW">     -2.00000000</i>
   <i name="ENCUTGWSOFT">     -2.00000000</i>
   <i name="ENCUTLF">     -1.00000000</i>
   <i type="int" name="LMAXMP2">    -1</i>
   <i name="SCISSOR">      0.00000000</i>
   <i type="int" name="NOMEGA">     0</i>
   <i type="int" name="NOMEGAR">     0</i>
   <i type="int" name="NBANDSGW">    -1</i>
   <i type="int" name="NBANDSO">    -1</i>
   <i type="int" name="NBANDSV">    -1</i>
   <i type="int" name="NELM">   100</i>
   <i type="int" name="NELMHF">     1</i>
   <i type="int" name="DIM">     3</i>
   <i type="int" name="ANTIRES">     0</i>
   <i name="OMEGAMAX">    -30.00000000</i>
   <i name="OMEGAMIN">    -30.00000000</i>
   <i name="OMEGATL">   -200.00000000</i>
   <i type="int" name="OMEGAGRID">   140</i>
   <i name="CSHIFT">     -0.10000000</i>
   <i type="logical" name="SELFENERGY"> F  </i>
   <i type="logical" name="LSPECTRAL"> F  </i>
   <i type="logical" name="LSPECTRALGW"> F  </i>
   <i type="logical" name="LSINGLES"> F  </i>
   <i type="logical" name="LFERMIGW"> F  </i>
   <i type="logical" name="ODDONLYGW"> F  </i>
   <i type="logical" name="EVENONLYGW"> F  </i>
   <i type="int" name="NKREDLFX">     1</i>
   <i type="int" name="NKREDLFY">     1</i>
   <i type="int" name="NKREDLFZ">     1</i>
   <i type="int" name="MAXMEM">  2800</i>
   <i type="int" name="TELESCOPE">     0</i>
   <i type="int" name="TAUPAR">     1</i>
   <i type="int" name="OMEGAPAR">    -1</i>
   <i name="LAMBDA">      1.00000000</i>
  </separator>
  <separator name="External order field" >
   <i name="OFIELD_KAPPA">      0.00000000</i>
   <v name="OFIELD_K">      0.00000000      0.00000000      0.00000000</v>
   <i name="OFIELD_Q6_NEAR">      0.00000000</i>
   <i name="OFIELD_Q6_FAR">      0.00000000</i>
   <i name="OFIELD_A">      0.00000000</i>
  </separator>
 </parameters>
 <atominfo>
  <atoms>     288 </atoms>
  <types>       2 </types>
  <array name="atoms" >
   <dimension dim="1">ion</dimension>
   <field type="string">element</field>
   <field type="int">atomtype</field>
   <set>
    <rc><c>Fe</c><c>   1</c></rc>
    <rc><c>Fe</c><c>   1</c></rc>
    <rc><c>Fe</c><c>   1</c></rc>
    <rc><c>Fe</c><c>   1</c></rc>
    <rc><c>Fe</c><c>   1</c></rc>
    <rc><c>Fe</c><c>   1</c></rc>
    <rc><c>Fe</c><c>   1</c></rc>
    <rc><c>Fe</c><c>   1</c></rc>
    <rc><c>Fe</c><c>   1</c></rc>
    <rc><c>Fe</c><c>   1</c></rc>
    <rc><c>Fe</c><c>   1</c></rc>
    <rc><c>Fe</c><c>   1</c></rc>
    <rc><c>Fe</c><c>   1</c></rc>
    <rc><c>Fe</c><c>   1</c></rc>
    <rc><c>Fe</c><c>   1</c></rc>
    <rc><c>Fe</c><c>   1</c></rc>
    <rc><c>Fe</c><c>   1</c></rc>
    <rc><c>Fe</c><c>   1</c></rc>
    <rc><c>Fe</c><c>   1</c></rc>
    <rc><c>Fe</c><c>   1</c></rc>
    <rc><c>Fe</c><c>   1</c></rc>
    <rc><c>Fe</c><c>   1</c></rc>
    <rc><c>Fe</c><c>   1</c></rc>
    <rc><c>Fe</c><c>   1</c></rc>
    <rc><c>Fe</c><c>   1</c></rc>
    <rc><c>Fe</c><c>   1</c></rc>
    <rc><c>Fe</c><c>   1</c></rc>
    <rc><c>Fe</c><c>   1</c></rc>
    <rc><c>Fe</c><c>   1</c></rc>
    <rc><c>Fe</c><c>   1</c></rc>
    <rc><c>Fe</c><c>   1</c></rc>
    <rc><c>Fe</c><c>   1</c></rc>
    <rc><c>Fe</c><c>   1</c></rc>
    <rc><c>Fe</c><c>   1</c></rc>
    <rc><c>Fe</c><c>   1</c></rc>
    <rc><c>Fe</c><c>   1</c></rc>
    <rc><c>Fe</c><c>   1</c></rc>
    <rc><c>Fe</c><c>   1</c></rc>
    <rc><c>Fe</c><c>   1</c></rc>
    <rc><c>Fe</c><c>   1</c></rc>
    <rc><c>Fe</c><c>   1</c></rc>
    <rc><c>Fe</c><c>   1</c></rc>
    <rc><c>Fe</c><c>   1</c></rc>
    <rc><c>Fe</c><c>   1</c></rc>
    <rc><c>Fe</c><c>   1</c></rc>
    <rc><c>Fe</c><c>   1</c></rc>
    <rc><c>Fe</c><c>   1</c></rc>
    <rc><c>Fe</c><c>   1</c></rc>
    <rc><c>Fe</c><c>   1</c></rc>
    <rc><c>Fe</c><c>   1</c></rc>
    <rc><c>Fe</c><c>   1</c></rc>
    <rc><c>Fe</c><c>   1</c></rc>
    <rc><c>Fe</c><c>   1</c></rc>
    <rc><c>Fe</c><c>   1</c></rc>
    <rc><c>Fe</c><c>   1</c></rc>
    <rc><c>Fe</c><c>   1</c></rc>
    <rc><c>Fe</c><c>   1</c></rc>
    <rc><c>Fe</c><c>   1</c></rc>
    <rc><c>Fe</c><c>   1</c></rc>
    <rc><c>Fe</c><c>   1</c></rc>
    <rc><c>Fe</c><c>   1</c></rc>
    <rc><c>Fe</c><c>   1</c></rc>
    <rc><c>Fe</c><c>   1</c></rc>
    <rc><c>Fe</c><c>   1</c></rc>
    <rc><c>Fe</c><c>   1</c></rc>
    <rc><c>Fe</c><c>   1</c></rc>
    <rc><c>Fe</c><c>   1</c></rc>
    <rc><c>Fe</c><c>   1</c></rc>
    <rc><c>Fe</c><c>   1</c></rc>
    <rc><c>Fe</c><c>   1</c></rc>
    <rc><c>Fe</c><c>   1</c></rc>
    <rc><c>Fe</c><c>   1</c></rc>
    <rc><c>Fe</c><c>   1</c></rc>
    <rc><c>Fe</c><c>   1</c></rc>
    <rc><c>Fe</c><c>   1</c></rc>
    <rc><c>Fe</c><c>   1</c></rc>
    <rc><c>Fe</c><c>   1</c></rc>
    <rc><c>Fe</c><c>   1</c></rc>
    <rc><c>Fe</c><c>   1</c></rc>
    <rc><c>Fe</c><c>   1</c></rc>
    <rc><c>Fe</c><c>   1</c></rc>
    <rc><c>Fe</c><c>   1</c></rc>
    <rc><c>Fe</c><c>   1</c></rc>
    <rc><c>Fe</c><c>   1</c></rc>
    <rc><c>Fe</c><c>   1</c></rc>
    <rc><c>Fe</c><c>   1</c></rc>
    <rc><c>Fe</c><c>   1</c></rc>
    <rc><c>Fe</c><c>   1</c></rc>
    <rc><c>Fe</c><c>   1</c></rc>
    <rc><c>Fe</c><c>   1</c></rc>
    <rc><c>Fe</c><c>   1</c></rc>
    <rc><c>Fe</c><c>   1</c></rc>
    <rc><c>Fe</c><c>   1</c></rc>
    <rc><c>Fe</c><c>   1</c></rc>
    <rc><c>Fe</c><c>   1</c></rc>
    <rc><c>Fe</c><c>   1</c></rc>
    <rc><c>Fe</c><c>   1</c></rc>
    <rc><c>Fe</c><c>   1</c></rc>
    <rc><c>Fe</c><c>   1</c></rc>
    <rc><c>Fe</c><c>   1</c></rc>
    <rc><c>Fe</c><c>   1</c></rc>
    <rc><c>Fe</c><c>   1</c></rc>
    <rc><c>Fe</c><c>   1</c></rc>
    <rc><c>Fe</c><c>   1</c></rc>
    <rc><c>Fe</c><c>   1</c></rc>
    <rc><c>Fe</c><c>   1</c></rc>
    <rc><c>Fe</c><c>   1</c></rc>
    <rc><c>Fe</c><c>   1</c></rc>
    <rc><c>Fe</c><c>   1</c></rc>
    <rc><c>Fe</c><c>   1</c></rc>
    <rc><c>Fe</c><c>   1</c></rc>
    <rc><c>Fe</c><c>   1</c></rc>
    <rc><c>Fe</c><c>   1</c></rc>
    <rc><c>Fe</c><c>   1</c></rc>
    <rc><c>Fe</c><c>   1</c></rc>
    <rc><c>Fe</c><c>   1</c></rc>
    <rc><c>Fe</c><c>   1</c></rc>
    <rc><c>Fe</c><c>   1</c></rc>
    <rc><c>Fe</c><c>   1</c></rc>
    <rc><c>Fe</c><c>   1</c></rc>
    <rc><c>Fe</c><c>   1</c></rc>
    <rc><c>Fe</c><c>   1</c></rc>
    <rc><c>Fe</c><c>   1</c></rc>
    <rc><c>Fe</c><c>   1</c></rc>
    <rc><c>Fe</c><c>   1</c></rc>
    <rc><c>Fe</c><c>   1</c></rc>
    <rc><c>Fe</c><c>   1</c></rc>
    <rc><c>Fe</c><c>   1</c></rc>
    <rc><c>Fe</c><c>   1</c></rc>
    <rc><c>Fe</c><c>   1</c></rc>
    <rc><c>Fe</c><c>   1</c></rc>
    <rc><c>Fe</c><c>   1</c></rc>
    <rc><c>Fe</c><c>   1</c></rc>
    <rc><c>Fe</c><c>   1</c></rc>
    <rc><c>Fe</c><c>   1</c></rc>
    <rc><c>Fe</c><c>   1</c></rc>
    <rc><c>Fe</c><c>   1</c></rc>
    <rc><c>Fe</c><c>   1</c></rc>
    <rc><c>Fe</c><c>   1</c></rc>
    <rc><c>Fe</c><c>   1</c></rc>
    <rc><c>Fe</c><c>   1</c></rc>
    <rc><c>Fe</c><c>   1</c></rc>
    <rc><c>Fe</c><c>   1</c></rc>
    <rc><c>Fe</c><c>   1</c></rc>
    <rc><c>Fe</c><c>   1</c></rc>
    <rc><c>Fe</c><c>   1</c></rc>
    <rc><c>Fe</c><c>   1</c></rc>
    <rc><c>Fe</c><c>   1</c></rc>
    <rc><c>Fe</c><c>   1</c></rc>
    <rc><c>Fe</c><c>   1</c></rc>
    <rc><c>Fe</c><c>   1</c></rc>
    <rc><c>Fe</c><c>   1</c></rc>
    <rc><c>Fe</c><c>   1</c></rc>
    <rc><c>Fe</c><c>   1</c></rc>
    <rc><c>Fe</c><c>   1</c></rc>
    <rc><c>Fe</c><c>   1</c></rc>
    <rc><c>Fe</c><c>   1</c></rc>
    <rc><c>Fe</c><c>   1</c></rc>
    <rc><c>Fe</c><c>   1</c></rc>
    <rc><c>Fe</c><c>   1</c></rc>
    <rc><c>Fe</c><c>   1</c></rc>
    <rc><c>Fe</c><c>   1</c></rc>
    <rc><c>Fe</c><c>   1</c></rc>
    <rc><c>Fe</c><c>   1</c></rc>
    <rc><c>Fe</c><c>   1</c></rc>
    <rc><c>Fe</c><c>   1</c></rc>
    <rc><c>Fe</c><c>   1</c></rc>
    <rc><c>Fe</c><c>   1</c></rc>
    <rc><c>Fe</c><c>   1</c></rc>
    <rc><c>Fe</c><c>   1</c></rc>
    <rc><c>Fe</c><c>   1</c></rc>
    <rc><c>Fe</c><c>   1</c></rc>
    <rc><c>Fe</c><c>   1</c></rc>
    <rc><c>Fe</c><c>   1</c></rc>
    <rc><c>Fe</c><c>   1</c></rc>
    <rc><c>Fe</c><c>   1</c></rc>
    <rc><c>Fe</c><c>   1</c></rc>
    <rc><c>Fe</c><c>   1</c></rc>
    <rc><c>Fe</c><c>   1</c></rc>
    <rc><c>Fe</c><c>   1</c></rc>
    <rc><c>Fe</c><c>   1</c></rc>
    <rc><c>Fe</c><c>   1</c></rc>
    <rc><c>Fe</c><c>   1</c></rc>
    <rc><c>Fe</c><c>   1</c></rc>
    <rc><c>Fe</c><c>   1</c></rc>
    <rc><c>Fe</c><c>   1</c></rc>
    <rc><c>Fe</c><c>   1</c></rc>
    <rc><c>Fe</c><c>   1</c></rc>
    <rc><c>Fe</c><c>   1</c></rc>
    <rc><c>Fe</c><c>   1</c></rc>
    <rc><c>Fe</c><c>   1</c></rc>
    <rc><c>Fe</c><c>   1</c></rc>
    <rc><c>Fe</c><c>   1</c></rc>
    <rc><c>Fe</c><c>   1</c></rc>
    <rc><c>Fe</c><c>   1</c></rc>
    <rc><c>Fe</c><c>   1</c></rc>
    <rc><c>Fe</c><c>   1</c></rc>
    <rc><c>Fe</c><c>   1</c></rc>
    <rc><c>Fe</c><c>   1</c></rc>
    <rc><c>Fe</c><c>   1</c></rc>
    <rc><c>Fe</c><c>   1</c></rc>
    <rc><c>Fe</c><c>   1</c></rc>
    <rc><c>Fe</c><c>   1</c></rc>
    <rc><c>Fe</c><c>   1</c></rc>
    <rc><c>Fe</c><c>   1</c></rc>
    <rc><c>Fe</c><c>   1</c></rc>
    <rc><c>Fe</c><c>   1</c></rc>
    <rc><c>Fe</c><c>   1</c></rc>
    <rc><c>Fe</c><c>   1</c></rc>
    <rc><c>Fe</c><c>   1</c></rc>
    <rc><c>Fe</c><c>   1</c></rc>
    <rc><c>Fe</c><c>   1</c></rc>
    <rc><c>Fe</c><c>   1</c></rc>
    <rc><c>Fe</c><c>   1</c></rc>
    <rc><c>Fe</c><c>   1</c></rc>
    <rc><c>Fe</c><c>   1</c></rc>
    <rc><c>Fe</c><c>   1</c></rc>
    <rc><c>Fe</c><c>   1</c></rc>
    <rc><c>Fe</c><c>   1</c></rc>
    <rc><c>Fe</c><c>   1</c></rc>
    <rc><c>Fe</c><c>   1</c></rc>
    <rc><c>Fe</c><c>   1</c></rc>
    <rc><c>Fe</c><c>   1</c></rc>
    <rc><c>Fe</c><c>   1</c></rc>
    <rc><c>Fe</c><c>   1</c></rc>
    <rc><c>Fe</c><c>   1</c></rc>
    <rc><c>Fe</c><c>   1</c></rc>
    <rc><c>Fe</c><c>   1</c></rc>
    <rc><c>Fe</c><c>   1</c></rc>
    <rc><c>Fe</c><c>   1</c></rc>
    <rc><c>Fe</c><c>   1</c></rc>
    <rc><c>Fe</c><c>   1</c></rc>
    <rc><c>Fe</c><c>   1</c></rc>
    <rc><c>Fe</c><c>   1</c></rc>
    <rc><c>Fe</c><c>   1</c></rc>
    <rc><c>Fe</c><c>   1</c></rc>
    <rc><c>Fe</c><c>   1</c></rc>
    <rc><c>Fe</c><c>   1</c></rc>
    <rc><c>Fe</c><c>   1</c></rc>
    <rc><c>Fe</c><c>   1</c></rc>
    <rc><c>Fe</c><c>   1</c></rc>
    <rc><c>Fe</c><c>   1</c></rc>
    <rc><c>Fe</c><c>   1</c></rc>
    <rc><c>Fe</c><c>   1</c></rc>
    <rc><c>Fe</c><c>   1</c></rc>
    <rc><c>Fe</c><c>   1</c></rc>
    <rc><c>Fe</c><c>   1</c></rc>
    <rc><c>Fe</c><c>   1</c></rc>
    <rc><c>Fe</c><c>   1</c></rc>
    <rc><c>Fe</c><c>   1</c></rc>
    <rc><c>Fe</c><c>   1</c></rc>
    <rc><c>Fe</c><c>   1</c></rc>
    <rc><c>Fe</c><c>   1</c></rc>
    <rc><c>Fe</c><c>   1</c></rc>
    <rc><c>Fe</c><c>   1</c></rc>
    <rc><c>Fe</c><c>   1</c></rc>
    <rc><c>Fe</c><c>   1</c></rc>
    <rc><c>Fe</c><c>   1</c></rc>
    <rc><c>Fe</c><c>   1</c></rc>
    <rc><c>Fe</c><c>   1</c></rc>
    <rc><c>Fe</c><c>   1</c></rc>
    <rc><c>Fe</c><c>   1</c></rc>
    <rc><c>Fe</c><c>   1</c></rc>
    <rc><c>Fe</c><c>   1</c></rc>
    <rc><c>Fe</c><c>   1</c></rc>
    <rc><c>Fe</c><c>   1</c></rc>
    <rc><c>Fe</c><c>   1</c></rc>
    <rc><c>Fe</c><c>   1</c></rc>
    <rc><c>Fe</c><c>   1</c></rc>
    <rc><c>Fe</c><c>   1</c></rc>
    <rc><c>Fe</c><c>   1</c></rc>
    <rc><c>Fe</c><c>   1</c></rc>
    <rc><c>Fe</c><c>   1</c></rc>
    <rc><c>Fe</c><c>   1</c></rc>
    <rc><c>Fe</c><c>   1</c></rc>
    <rc><c>Fe</c><c>   1</c></rc>
    <rc><c>Fe</c><c>   1</c></rc>
    <rc><c>Fe</c><c>   1</c></rc>
    <rc><c>Fe</c><c>   1</c></rc>
    <rc><c>Fe</c><c>   1</c></rc>
    <rc><c>Fe</c><c>   1</c></rc>
    <rc><c>Mn</c><c>   2</c></rc>
    <rc><c>Mn</c><c>   2</c></rc>
    <rc><c>Mn</c><c>   2</c></rc>
    <rc><c>Mn</c><c>   2</c></rc>
    <rc><c>Mn</c><c>   2</c></rc>
    <rc><c>Mn</c><c>   2</c></rc>
    <rc><c>Mn</c><c>   2</c></rc>
   </set>
  </array>
  <array name="atomtypes" >
   <dimension dim="1">type</dimension>
   <field type="int">atomspertype</field>
   <field type="string">element</field>
   <field>mass</field>
   <field>valence</field>
   <field type="string">pseudopotential</field>
   <set>
    <rc><c> 281</c><c>Fe</c><c>     55.84700000</c><c>      8.00000000</c><c>  PAW_PBE Fe_GW 31Mar2010               </c></rc>
    <rc><c>   7</c><c>Mn</c><c>     54.93800000</c><c>      7.00000000</c><c>  PAW_PBE Mn_GW 31Mar2010               </c></rc>
   </set>
  </array>
 </atominfo>
 <structure name="initialpos" >
  <crystal>
   <varray name="basis" >
    <v>       9.72667804       0.00000000       0.00000000 </v>
    <v>       0.00000000       8.42355028       0.00000000 </v>
    <v>       0.00000000       0.00000000      45.00000000 </v>
   </varray>
   <i name="volume">   3686.99226691 </i>
   <varray name="rec_basis" >
    <v>       0.10281002       0.00000000       0.00000000 </v>
    <v>       0.00000000       0.11871479       0.00000000 </v>
    <v>       0.00000000       0.00000000       0.02222222 </v>
   </varray>
  </crystal>
  <varray name="positions" >
   <v>       0.06120317       0.03468134       0.12454993 </v>
   <v>       0.81444823       0.04265097       0.87565344 </v>
   <v>       0.19563052       0.12509221       0.78849554 </v>
   <v>       0.43367510       0.28733179       0.38905373 </v>
   <v>       0.31624639       0.35997516       0.16647571 </v>
   <v>       0.80866134       0.21303617       0.83313331 </v>
   <v>       0.18361356       0.78717770       0.38905315 </v>
   <v>       0.56380349       0.20766502       0.56542260 </v>
   <v>       0.06057241       0.04211559       0.74418887 </v>
   <v>       0.81349428       0.87196475       0.52131887 </v>
   <v>       0.18568990       0.29180523       0.74414080 </v>
   <v>       0.94135452       0.45209496       0.34490995 </v>
   <v>       0.93374137       0.28744062       0.38903130 </v>
   <v>       0.43849160       0.62193339       0.52131152 </v>
   <v>       0.18774610       0.79176481       0.61083257 </v>
   <v>       0.55862087       0.03766329       0.38906901 </v>
   <v>       0.93330180       0.96365417       0.83308489 </v>
   <v>       0.31429644       0.54247825       0.87554156 </v>
   <v>       0.68561529       0.29168495       0.74407072 </v>
   <v>       0.94125088       0.95210911       0.34492369 </v>
   <v>       0.81279199       0.20577301       0.47861659 </v>
   <v>       0.81264718       0.54184038       0.61086438 </v>
   <v>       0.31318264       0.87063365       0.43437545 </v>
   <v>       0.81558489       0.03525916       0.25600943 </v>
   <v>       0.69122386       0.95175783       0.34494291 </v>
   <v>       0.94307361       0.11429631       0.16697141 </v>
   <v>       0.93849318       0.12197896       0.52131228 </v>
   <v>       0.56517654       0.53534400       0.25601208 </v>
   <v>       0.69280182       0.79617897       0.87561059 </v>
   <v>       0.56736154       0.36245025       0.16691064 </v>
   <v>       0.43584071       0.79170944       0.74416265 </v>
   <v>       0.81380146       0.70770438       0.56543003 </v>
   <v>       0.57041567       0.87420996       0.78834881 </v>
   <v>       0.68853233       0.12199010       0.52131387 </v>
   <v>       0.18998366       0.28573015       0.25603999 </v>
   <v>       0.93361040       0.46333488       0.83302373 </v>
   <v>       0.06538461       0.20843066       0.69968490 </v>
   <v>       0.80864676       0.03762071       0.38905176 </v>
   <v>       0.30888297       0.21392413       0.83328053 </v>
   <v>       0.43398800       0.62606897       0.65495348 </v>
   <v>       0.31281545       0.54182724       0.61079132 </v>
   <v>       0.93877987       0.45768479       0.56543045 </v>
   <v>       0.68575022       0.79195502       0.74416477 </v>
   <v>       0.30884997       0.87562804       0.65491856 </v>
   <v>       0.68362445       0.78750921       0.38908706 </v>
   <v>       0.93584191       0.79175381       0.74414545 </v>
   <v>       0.06612082       0.20232307       0.34508762 </v>
   <v>       0.43758098       0.78123668       0.12421202 </v>
   <v>       0.44534741       0.12503755       0.78858578 </v>
   <v>       0.05503227       0.20261176       0.21187259 </v>
   <v>       0.06722032       0.36098974       0.16667119 </v>
   <v>       0.94000206       0.78542043       0.25601059 </v>
   <v>       0.56555929       0.20830452       0.69970325 </v>
   <v>       0.69078133       0.95822321       0.69972251 </v>
   <v>       0.68373182       0.28748275       0.38902315 </v>
   <v>       0.43880432       0.95773950       0.56542537 </v>
   <v>       0.82074967       0.37449461       0.78840287 </v>
   <v>       0.68989608       0.28527016       0.25602867 </v>
   <v>       0.18883360       0.45772598       0.56545823 </v>
   <v>       0.06767248       0.86105504       0.16673873 </v>
   <v>       0.18778506       0.29187256       0.61081854 </v>
   <v>       0.56640539       0.70192336       0.34485985 </v>
   <v>       0.31534714       0.20842363       0.69968857 </v>
   <v>       0.56523417       0.54177718       0.87558135 </v>
   <v>       0.06378350       0.70777786       0.56544021 </v>
   <v>       0.69523508       0.62460979       0.78854250 </v>
   <v>       0.30851916       0.53755474       0.38906317 </v>
   <v>       0.18847585       0.62197966       0.52131779 </v>
   <v>       0.56290224       0.87036923       0.43442145 </v>
   <v>       0.43878775       0.45773284       0.56544974 </v>
   <v>       0.43579854       0.29192047       0.74411177 </v>
   <v>       0.80436578       0.87232948       0.30019446 </v>
   <v>       0.81630734       0.70211707       0.34489053 </v>
   <v>       0.43354833       0.46426270       0.83320306 </v>
   <v>       0.68779472       0.95594240       0.47861889 </v>
   <v>       0.69065025       0.45840925       0.69970462 </v>
   <v>       0.56350305       0.87206850       0.52131084 </v>
   <v>       0.55873652       0.37543202       0.65494377 </v>
   <v>       0.80884182       0.87562248       0.65490223 </v>
   <v>       0.81307191       0.37043956       0.43443282 </v>
   <v>       0.81552088       0.53529749       0.25603935 </v>
   <v>       0.68346549       0.46320927       0.83304713 </v>
   <v>       0.18804187       0.78100786       0.12445405 </v>
   <v>       0.06410925       0.04265689       0.87557786 </v>
   <v>       0.30888576       0.37562002       0.65491677 </v>
   <v>       0.31634927       0.20168588       0.34490750 </v>
   <v>       0.81069786       0.54225789       0.74412378 </v>
   <v>       0.68378780       0.96362783       0.83306290 </v>
   <v>       0.55887405       0.87566027       0.65491464 </v>
   <v>       0.31388932       0.70768595       0.56544207 </v>
   <v>       0.31225884       0.53586352       0.12416177 </v>
   <v>       0.68023361       0.95286198       0.21168795 </v>
   <v>       0.31380930       0.20775342       0.56544609 </v>
   <v>       0.31080886       0.54245212       0.74423808 </v>
   <v>       0.68882226       0.95772033       0.56543707 </v>
   <v>       0.43768128       0.79186528       0.61084981 </v>
   <v>       0.69183045       0.61218833       0.16695613 </v>
   <v>       0.30362869       0.87203129       0.30034620 </v>
   <v>       0.31279897       0.70574720       0.47863841 </v>
   <v>       0.93771964       0.29186708       0.61083605 </v>
   <v>       0.42879702       0.62225262       0.30025960 </v>
   <v>       0.81643259       0.86187327       0.16698956 </v>
   <v>       0.55551464       0.20243280       0.21168749 </v>
   <v>       0.94162400       0.61344779       0.16699241 </v>
   <v>       0.94089080       0.79561629       0.87567186 </v>
   <v>       0.57087179       0.37445884       0.78838933 </v>
   <v>       0.06343498       0.37203846       0.52131848 </v>
   <v>       0.56348762       0.37199418       0.52130244 </v>
   <v>       0.67875455       0.12220157       0.30028302 </v>
   <v>       0.43287846       0.96297676       0.83318587 </v>
   <v>       0.18775741       0.95581717       0.47863259 </v>
   <v>       0.82087419       0.87442982       0.78836927 </v>
   <v>       0.31296879       0.37037891       0.43444876 </v>
   <v>       0.93776639       0.79187357       0.61083458 </v>
   <v>       0.43776863       0.29182342       0.61083453 </v>
   <v>       0.19133943       0.45166797       0.34492953 </v>
   <v>       0.43886269       0.28033311       0.12447809 </v>
   <v>       0.69009093       0.78535242       0.25601912 </v>
   <v>       0.19066548       0.95849593       0.69970934 </v>
   <v>       0.19082696       0.29598590       0.87577302 </v>
   <v>       0.18389093       0.12582537       0.65492086 </v>
   <v>       0.93394954       0.12582404       0.65494534 </v>
   <v>       0.30540973       0.20245559       0.21189246 </v>
   <v>       0.05861840       0.03741817       0.38907737 </v>
   <v>       0.44041945       0.95837540       0.69970669 </v>
   <v>       0.06269519       0.54184589       0.61085626 </v>
   <v>       0.94046807       0.28525558       0.25605384 </v>
   <v>       0.56273756       0.54181938       0.61085531 </v>
   <v>       0.93878601       0.95772992       0.56544095 </v>
   <v>       0.67875030       0.62226608       0.30026956 </v>
   <v>       0.93802628       0.62012490       0.43449133 </v>
   <v>       0.94531662       0.62490742       0.78859389 </v>
   <v>       0.56540256       0.70842934       0.69968060 </v>
   <v>       0.05876782       0.71313823       0.83323661 </v>
   <v>       0.92855580       0.12235505       0.30025563 </v>
   <v>       0.94045464       0.45838055       0.69971850 </v>
   <v>       0.43997363       0.78586162       0.25590816 </v>
   <v>       0.32074694       0.37459323       0.78841644 </v>
   <v>       0.43068889       0.45230026       0.21174463 </v>
   <v>       0.18843939       0.12201829       0.52129753 </v>
   <v>       0.81552661       0.70832558       0.69970476 </v>
   <v>       0.06263428       0.04195431       0.61085289 </v>
   <v>       0.55901600       0.21342225       0.83323537 </v>
   <v>       0.31353440       0.87205964       0.52129745 </v>
   <v>       0.68747953       0.28097002       0.12416380 </v>
   <v>       0.17987072       0.95178151       0.21197987 </v>
   <v>       0.68769448       0.29183145       0.61082493 </v>
   <v>       0.31273733       0.04185831       0.61081251 </v>
   <v>       0.94560918       0.12484931       0.78849359 </v>
   <v>       0.44124767       0.79685709       0.87571160 </v>
   <v>       0.81074285       0.04227482       0.74404314 </v>
   <v>       0.43849909       0.12204642       0.52132739 </v>
   <v>       0.18389611       0.62582473       0.65492854 </v>
   <v>       0.31534754       0.70835112       0.69968324 </v>
   <v>       0.93527015       0.27986082       0.12466592 </v>
   <v>       0.43783064       0.45590524       0.47859350 </v>
   <v>       0.06281236       0.70581254       0.47860823 </v>
   <v>       0.93802626       0.12041303       0.43447269 </v>
   <v>       0.42874766       0.12211755       0.30031703 </v>
   <v>       0.18790930       0.12071535       0.43436438 </v>
   <v>       0.56519478       0.04293107       0.87555592 </v>
   <v>       0.18883171       0.95767876       0.56543284 </v>
   <v>       0.68827453       0.78142075       0.12445468 </v>
   <v>       0.56392642       0.53347309       0.12452763 </v>
   <v>       0.30870002       0.03750560       0.38907815 </v>
   <v>       0.69250008       0.11239744       0.16723440 </v>
   <v>       0.80537982       0.20311073       0.21189437 </v>
   <v>       0.06570073       0.53554579       0.25595474 </v>
   <v>       0.56275420       0.70578729       0.47862975 </v>
   <v>       0.06383475       0.20768810       0.56543608 </v>
   <v>       0.55386977       0.37189527       0.30021950 </v>
   <v>       0.44139837       0.95186805       0.34497816 </v>
   <v>       0.18394767       0.96350371       0.83320551 </v>
   <v>       0.44167543       0.61266879       0.16686036 </v>
   <v>       0.92982834       0.45326765       0.21192829 </v>
   <v>       0.06283148       0.53434649       0.12457455 </v>
   <v>       0.81351689       0.37209043       0.52129796 </v>
   <v>       0.92888736       0.62230024       0.30024081 </v>
   <v>       0.31523271       0.03574606       0.25600265 </v>
   <v>       0.06346815       0.87201918       0.52130534 </v>
   <v>       0.18371716       0.46434400       0.83322324 </v>
   <v>       0.44175213       0.11194284       0.16668590 </v>
   <v>       0.31348159       0.37204353       0.52130010 </v>
   <v>       0.44599858       0.62467875       0.78836249 </v>
   <v>       0.06507866       0.03556475       0.25600815 </v>
   <v>       0.56376104       0.70773317       0.56543877 </v>
   <v>       0.93602177       0.29178318       0.74413854 </v>
   <v>       0.69570768       0.12468313       0.78843088 </v>
   <v>       0.18091119       0.45213897       0.21166839 </v>
   <v>       0.93366581       0.78715019       0.38905188 </v>
   <v>       0.69384239       0.29709200       0.87580759 </v>
   <v>       0.68773640       0.79180798       0.61082249 </v>
   <v>       0.44038726       0.45831025       0.69969457 </v>
   <v>       0.80883291       0.37562112       0.65491279 </v>
   <v>       0.68845900       0.62205248       0.52130474 </v>
   <v>       0.05889318       0.87559334       0.65492119 </v>
   <v>       0.07080779       0.87458465       0.78840650 </v>
   <v>       0.05885168       0.37567762       0.65490813 </v>
   <v>       0.68782659       0.45586642       0.47862020 </v>
   <v>       0.19024196       0.78590143       0.25592245 </v>
   <v>       0.43810074       0.12030228       0.43444067 </v>
   <v>       0.81105790       0.03328370       0.12442085 </v>
   <v>       0.93850309       0.62203242       0.52130988 </v>
   <v>       0.06306479       0.87053027       0.43440109 </v>
   <v>       0.81085084       0.53434530       0.12447110 </v>
   <v>       0.44152928       0.45226376       0.34502212 </v>
   <v>       0.81620883       0.20178042       0.34495531 </v>
   <v>       0.31630927       0.70170534       0.34496069 </v>
   <v>       0.68384005       0.12575734       0.65490550 </v>
   <v>       0.55386447       0.87220746       0.30032720 </v>
   <v>       0.06053354       0.54231381       0.74418233 </v>
   <v>       0.93536448       0.78063395       0.12461529 </v>
   <v>       0.80584462       0.70228964       0.21169921 </v>
   <v>       0.05455831       0.87252296       0.30011406 </v>
   <v>       0.17934558       0.12308864       0.30029405 </v>
   <v>       0.06637232       0.70162872       0.34493036 </v>
   <v>       0.81281632       0.04183598       0.61079115 </v>
   <v>       0.06288844       0.37039360       0.43442687 </v>
   <v>       0.56620727       0.20190208       0.34494046 </v>
   <v>       0.80357974       0.37183137       0.30031405 </v>
   <v>       0.43786016       0.95593539       0.47860417 </v>
   <v>       0.55849104       0.53736602       0.38905501 </v>
   <v>       0.06281029       0.20572901       0.47864240 </v>
   <v>       0.32075568       0.87469639       0.78838893 </v>
   <v>       0.94050441       0.95840576       0.69971917 </v>
   <v>       0.05374060       0.37194404       0.30034190 </v>
   <v>       0.68399627       0.62597790       0.65495191 </v>
   <v>       0.68880085       0.45768241       0.56546006 </v>
   <v>       0.43013051       0.95270957       0.21182509 </v>
   <v>       0.31279850       0.20586654       0.47863357 </v>
   <v>       0.43385741       0.12576547       0.65490144 </v>
   <v>       0.68782918       0.62047841       0.43440554 </v>
   <v>       0.81537829       0.20843969       0.69969653 </v>
   <v>       0.81277320       0.70570303       0.47863119 </v>
   <v>       0.56302978       0.37043194       0.43443293 </v>
   <v>       0.93780999       0.95579018       0.47861199 </v>
   <v>       0.56278461       0.20573427       0.47859714 </v>
   <v>       0.18803367       0.62040399       0.43442586 </v>
   <v>       0.31069619       0.04224113       0.74408974 </v>
   <v>       0.93389973       0.62583712       0.65492606 </v>
   <v>       0.55893286       0.71319858       0.83324946 </v>
   <v>       0.30364070       0.37252462       0.30026554 </v>
   <v>       0.55491838       0.70252429       0.21176809 </v>
   <v>       0.18780377       0.45580502       0.47862498 </v>
   <v>       0.31485524       0.04177073       0.87565684 </v>
   <v>       0.19036322       0.45827694       0.69969133 </v>
   <v>       0.81460348       0.54234300       0.87564320 </v>
   <v>       0.18344734       0.28764733       0.38910367 </v>
   <v>       0.43826222       0.62051859       0.43431205 </v>
   <v>       0.05562686       0.70246883       0.21197973 </v>
   <v>       0.56395018       0.03382132       0.12429017 </v>
   <v>       0.81624716       0.36251318       0.16702682 </v>
   <v>       0.80838911       0.71367661       0.83308182 </v>
   <v>       0.07073863       0.37446628       0.78841138 </v>
   <v>       0.44302619       0.29642313       0.87569119 </v>
   <v>       0.31392657       0.03399698       0.12443269 </v>
   <v>       0.68816792       0.12032842       0.43438407 </v>
   <v>       0.19135521       0.95196674       0.34497890 </v>
   <v>       0.05866121       0.21352214       0.83332586 </v>
   <v>       0.56273275       0.04185937       0.61083315 </v>
   <v>       0.68035212       0.45302851       0.21173677 </v>
   <v>       0.18595176       0.79162485       0.74415522 </v>
   <v>       0.81304819       0.87046109       0.43440408 </v>
   <v>       0.43358476       0.78753520       0.38910124 </v>
   <v>       0.44067018       0.28539558       0.25601963 </v>
   <v>       0.06435198       0.54227732       0.87564787 </v>
   <v>       0.56048890       0.04221284       0.74418204 </v>
   <v>       0.19365522       0.79694865       0.87586533 </v>
   <v>       0.93774414       0.45580440       0.47861195 </v>
   <v>       0.80865887       0.53758853       0.38907434 </v>
   <v>       0.81379773       0.20776398       0.56543641 </v>
   <v>       0.19513768       0.62470587       0.78837152 </v>
   <v>       0.93076685       0.95314576       0.21185576 </v>
   <v>       0.06542428       0.70840385       0.69968233 </v>
   <v>       0.31562239       0.53570720       0.25597373 </v>
   <v>       0.30577956       0.70229461       0.21198386 </v>
   <v>       0.56660088       0.86284736       0.16691700 </v>
   <v>       0.56074912       0.54236278       0.74408603 </v>
   <v>       0.69113971       0.45222632       0.34500453 </v>
   <v>       0.94105777       0.29681805       0.87581388 </v>
   <v>       0.56495821       0.03541289       0.25602727 </v>
   <v>       0.19273687       0.11227672       0.16613621 </v>
   <v>       0.30807594       0.71489958       0.83390072 </v>
   <v>       0.31768331       0.85906315       0.16605806 </v>
   <v>       0.17903567       0.62226482       0.30035415 </v>
   <v>       0.05834094       0.53791398       0.38898188 </v>
   <v>       0.19270378       0.61021491       0.16585595 </v>
   <v>       0.18736627       0.27898410       0.12491942 </v>
  </varray>
 </structure>
 <calculation>
  <scstep>
   <time name="dav">   54.75   54.76</time>
   <time name="total">   54.90   54.95</time>
   <energy>
    <i name="alphaZ">  16403.00255340 </i>
    <i name="ewald"> 737427.16221466 </i>
    <i name="hartreedc">-929076.32430700 </i>
    <i name="XCdc">  -6388.70765560 </i>
    <i name="pawpsdc"> 163151.95320885 </i>
    <i name="pawaedc">-160818.84594568 </i>
    <i name="eentropy">     -1.03930309 </i>
    <i name="bandstr">  38623.46359584 </i>
    <i name="atom"> 169914.59583762 </i>
    <i name="e_fr_energy">  29235.26019901 </i>
    <i name="e_wo_entrp">  29236.29950209 </i>
    <i name="e_0_energy">  29235.77985055 </i>
   </energy>
  </scstep>
  <scstep>
   <time name="dav">   54.12   54.15</time>
   <time name="total">   54.12   54.16</time>
   <energy>
    <i name="e_fr_energy">   1198.02209634 </i>
    <i name="e_wo_entrp">   1199.49015239 </i>
    <i name="e_0_energy">   1198.75612437 </i>
   </energy>
  </scstep>
  <scstep>
   <time name="dav">   71.42   71.46</time>
   <time name="total">   71.43   71.47</time>
   <energy>
    <i name="e_fr_energy">  -1940.62400592 </i>
    <i name="e_wo_entrp">  -1937.03847259 </i>
    <i name="e_0_energy">  -1938.83123926 </i>
   </energy>
  </scstep>
  <scstep>
   <time name="dav">   89.11   89.16</time>
   <time name="total">   89.12   89.16</time>
   <energy>
    <i name="e_fr_energy">  -2610.44901583 </i>
    <i name="e_wo_entrp">  -2606.90156478 </i>
    <i name="e_0_energy">  -2608.67529030 </i>
   </energy>
  </scstep>
  <scstep>
   <time name="dav">   85.52   85.53</time>
   <time name="total">   87.60   87.61</time>
   <energy>
    <i name="e_fr_energy">  -2730.55424520 </i>
    <i name="e_wo_entrp">  -2726.88884775 </i>
    <i name="e_0_energy">  -2728.72154648 </i>
   </energy>
  </scstep>
  <scstep>
   <time name="diag">    8.25    8.25</time>
   <time name="diis">   37.76   37.77</time>
   <time name="orth">    2.30    2.30</time>
   <time name="total">   50.56   50.60</time>
   <energy>
    <i name="e_fr_energy">  -5174.17203291 </i>
    <i name="e_wo_entrp">  -5171.17376176 </i>
    <i name="e_0_energy">  -5172.67289733 </i>
   </energy>
  </scstep>
  <scstep>
   <time name="diag">    8.32    8.32</time>
   <time name="diis">   23.04   23.04</time>
   <time name="orth">    2.32    2.33</time>
   <time name="total">   35.75   35.80</time>
[...]
       <r>     5.8044     0.0000  2772.0000 </r>
       <r>     5.8471     0.0000  2772.0000 </r>
       <r>     5.8897     0.0000  2772.0000 </r>
       <r>     5.9324     0.0000  2772.0000 </r>
       <r>     5.9751     0.0000  2772.0000 </r>
       <r>     6.0178     0.0000  2772.0000 </r>
       <r>     6.0605     0.0000  2772.0000 </r>
       <r>     6.1032     0.0000  2772.0000 </r>
       <r>     6.1459     0.0000  2772.0000 </r>
       <r>     6.1885     0.0000  2772.0000 </r>
       <r>     6.2312     0.0000  2772.0000 </r>
       <r>     6.2739     0.0000  2772.0000 </r>
       <r>     6.3166     0.0000  2772.0000 </r>
       <r>     6.3593     0.0000  2772.0000 </r>
       <r>     6.4020     0.0000  2772.0000 </r>
       <r>     6.4447     0.0000  2772.0000 </r>
       <r>     6.4874     0.0000  2772.0000 </r>
       <r>     6.5300     0.0000  2772.0000 </r>
       <r>     6.5727     0.0000  2772.0000 </r>
       <r>     6.6154     0.0000  2772.0000 </r>
       <r>     6.6581     0.0000  2772.0000 </r>
       <r>     6.7008     0.0000  2772.0000 </r>
       <r>     6.7435     0.0000  2772.0000 </r>
      </set>
     </set>
    </array>
   </total>
  </dos>
 </calculation>
 <structure name="finalpos" >
  <crystal>
   <varray name="basis" >
    <v>       9.72667804       0.00000000       0.00000000 </v>
    <v>       0.00000000       8.42355028       0.00000000 </v>
    <v>       0.00000000       0.00000000      45.00000000 </v>
   </varray>
   <i name="volume">   3686.99226691 </i>
   <varray name="rec_basis" >
    <v>       0.10281002       0.00000000       0.00000000 </v>
    <v>       0.00000000       0.11871479       0.00000000 </v>
    <v>       0.00000000       0.00000000       0.02222222 </v>
   </varray>
  </crystal>
  <varray name="positions" >
   <v>       0.06113464       0.03429376       0.12441313 </v>
   <v>       0.81451862       0.04256268       0.87564728 </v>
   <v>       0.19548522       0.12478965       0.78845493 </v>
   <v>       0.43370874       0.28723232       0.38929092 </v>
   <v>       0.31542805       0.36082091       0.16638693 </v>
   <v>       0.80894273       0.21270364       0.83295537 </v>
   <v>       0.18396225       0.78751163       0.38934799 </v>
   <v>       0.56392918       0.20768371       0.56570547 </v>
   <v>       0.06081640       0.04187956       0.74410691 </v>
   <v>       0.81331584       0.87200619       0.52166255 </v>
   <v>       0.18597287       0.29176431       0.74404062 </v>
   <v>       0.94092889       0.45191455       0.34495382 </v>
   <v>       0.93379427       0.28697944       0.38933247 </v>
   <v>       0.43850749       0.62203996       0.52163529 </v>
   <v>       0.18740233       0.79177532       0.61052691 </v>
   <v>       0.55866031       0.03781695       0.38930208 </v>
   <v>       0.93395860       0.96336770       0.83297781 </v>
   <v>       0.31424890       0.54306732       0.87562576 </v>
   <v>       0.68556374       0.29152944       0.74405787 </v>
   <v>       0.94085508       0.95224991       0.34513377 </v>
   <v>       0.81263259       0.20564325       0.47846815 </v>
   <v>       0.81266472       0.54183564       0.61047295 </v>
   <v>       0.31322364       0.87072497       0.43454275 </v>
   <v>       0.81520821       0.03525402       0.25595889 </v>
   <v>       0.69065605       0.95215389       0.34509042 </v>
   <v>       0.94292910       0.11422480       0.16672356 </v>
   <v>       0.93842343       0.12200316       0.52166553 </v>
   <v>       0.56495243       0.53531179       0.25609185 </v>
   <v>       0.69211047       0.79615945       0.87560244 </v>
   <v>       0.56728718       0.36238611       0.16684696 </v>
   <v>       0.43583081       0.79181051       0.74407442 </v>
   <v>       0.81372547       0.70769237       0.56577056 </v>
   <v>       0.57013864       0.87439513       0.78823070 </v>
   <v>       0.68833441       0.12203827       0.52165942 </v>
   <v>       0.18982048       0.28615024       0.25596591 </v>
   <v>       0.93417424       0.46358317       0.83293196 </v>
   <v>       0.06537214       0.20820531       0.69956709 </v>
   <v>       0.80863089       0.03770693       0.38933361 </v>
   <v>       0.30909985       0.21343274       0.83328520 </v>
   <v>       0.43408575       0.62603161       0.65479556 </v>
   <v>       0.31276304       0.54161480       0.61046702 </v>
   <v>       0.93864802       0.45759654       0.56578338 </v>
   <v>       0.68577614       0.79215227       0.74408724 </v>
   <v>       0.30882386       0.87563094       0.65478800 </v>
   <v>       0.68356038       0.78770220       0.38932619 </v>
   <v>       0.93608026       0.79198867       0.74405006 </v>
   <v>       0.06616190       0.20259127       0.34527435 </v>
   <v>       0.43727393       0.78134370       0.12404031 </v>
   <v>       0.44516676       0.12486439       0.78850425 </v>
   <v>       0.05529075       0.20292391       0.21182920 </v>
   <v>       0.06721593       0.36164798       0.16648840 </v>
   <v>       0.93997942       0.78503369       0.25587594 </v>
   <v>       0.56541851       0.20806179       0.69962765 </v>
   <v>       0.69082138       0.95804461       0.69961579 </v>
   <v>       0.68361041       0.28729340       0.38926007 </v>
   <v>       0.43890673       0.95774497       0.56564064 </v>
   <v>       0.82044796       0.37430266       0.78828676 </v>
   <v>       0.68976305       0.28540175       0.25610158 </v>
   <v>       0.18880780       0.45763026       0.56572780 </v>
   <v>       0.06715511       0.86071791       0.16657028 </v>
   <v>       0.18751284       0.29184943       0.61048044 </v>
   <v>       0.56610441       0.70196227       0.34495600 </v>
   <v>       0.31512662       0.20829629       0.69963692 </v>
   <v>       0.56428789       0.54225555       0.87556320 </v>
   <v>       0.06363801       0.70772002       0.56572787 </v>
   <v>       0.69498278       0.62491422       0.78843132 </v>
   <v>       0.30895564       0.53729544       0.38932232 </v>
   <v>       0.18869125       0.62211700       0.52164903 </v>
   <v>       0.56280496       0.87068258       0.43458294 </v>
   <v>       0.43889079       0.45768462       0.56569213 </v>
   <v>       0.43581787       0.29186376       0.74404890 </v>
   <v>       0.80403838       0.87205433       0.30024450 </v>
   <v>       0.81585983       0.70207749       0.34500561 </v>
   <v>       0.43359452       0.46384988       0.83322840 </v>
   <v>       0.68756752       0.95594693       0.47849536 </v>
   <v>       0.69053089       0.45860951       0.69961433 </v>
   <v>       0.56334424       0.87206418       0.52163739 </v>
   <v>       0.55886126       0.37536741       0.65471480 </v>
   <v>       0.80914274       0.87578122       0.65471613 </v>
   <v>       0.81313561       0.37020814       0.43458011 </v>
   <v>       0.81549964       0.53516562       0.25601690 </v>
   <v>       0.68324131       0.46328556       0.83292913 </v>
   <v>       0.18731125       0.78124070       0.12430671 </v>
   <v>       0.06489037       0.04220389       0.87551432 </v>
   <v>       0.30885819       0.37559003       0.65473498 </v>
   <v>       0.31657793       0.20189201       0.34507457 </v>
   <v>       0.81081992       0.54245032       0.74405875 </v>
   <v>       0.68377012       0.96360135       0.83295291 </v>
   <v>       0.55927414       0.87572523       0.65474550 </v>
   <v>       0.31396624       0.70764122       0.56563805 </v>
   <v>       0.31130878       0.53541482       0.12411685 </v>
   <v>       0.68037307       0.95253900       0.21174021 </v>
   <v>       0.31383430       0.20777894       0.56569020 </v>
   <v>       0.31094200       0.54256474       0.74411980 </v>
   <v>       0.68891267       0.95776450       0.56575261 </v>
   <v>       0.43791812       0.79185556       0.61052305 </v>
   <v>       0.69195275       0.61273451       0.16692611 </v>
   <v>       0.30436936       0.87195965       0.30040010 </v>
   <v>       0.31298194       0.70583585       0.47853150 </v>
   <v>       0.93752574       0.29174943       0.61046776 </v>
   <v>       0.42928949       0.62196965       0.30030373 </v>
   <v>       0.81673829       0.86207486       0.16678152 </v>
   <v>       0.55535563       0.20217795       0.21172790 </v>
   <v>       0.94228239       0.61353187       0.16692183 </v>
   <v>       0.94161752       0.79554745       0.87559272 </v>
   <v>       0.57064463       0.37435446       0.78827935 </v>
   <v>       0.06350778       0.37205555       0.52167191 </v>
   <v>       0.56337030       0.37203217       0.52164034 </v>
   <v>       0.67855576       0.12240947       0.30036825 </v>
   <v>       0.43271337       0.96313476       0.83323790 </v>
   <v>       0.18796448       0.95562248       0.47851546 </v>
   <v>       0.82080987       0.87467756       0.78826279 </v>
   <v>       0.31295306       0.37031467       0.43454680 </v>
   <v>       0.93743031       0.79195533       0.61051017 </v>
   <v>       0.43788892       0.29183905       0.61046583 </v>
   <v>       0.19166591       0.45140716       0.34504491 </v>
   <v>       0.43801834       0.28039840       0.12437243 </v>
   <v>       0.68988748       0.78534535       0.25599252 </v>
   <v>       0.19041259       0.95836859       0.69964604 </v>
   <v>       0.19143729       0.29584513       0.87571264 </v>
   <v>       0.18374702       0.12576530       0.65474704 </v>
   <v>       0.93407866       0.12551145       0.65473433 </v>
   <v>       0.30534351       0.20248169       0.21190476 </v>
   <v>       0.05881943       0.03761048       0.38940383 </v>
   <v>       0.44030843       0.95819863       0.69966630 </v>
   <v>       0.06232854       0.54168777       0.61051179 </v>
   <v>       0.94036493       0.28565734       0.25598710 </v>
   <v>       0.56299739       0.54172950       0.61047907 </v>
   <v>       0.93861919       0.95780178       0.56578356 </v>
   <v>       0.67873008       0.62183833       0.30032020 </v>
   <v>       0.93810483       0.62019754       0.43469104 </v>
   <v>       0.94527296       0.62541099       0.78850942 </v>
   <v>       0.56526273       0.70866358       0.69961964 </v>
   <v>       0.05910370       0.71347725       0.83323319 </v>
   <v>       0.92856124       0.12272845       0.30028105 </v>
   <v>       0.94062762       0.45860409       0.69960087 </v>
   <v>       0.43972256       0.78569026       0.25592605 </v>
   <v>       0.32063881       0.37439448       0.78834612 </v>
   <v>       0.43028272       0.45251959       0.21176797 </v>
   <v>       0.18859591       0.12203183       0.52164762 </v>
   <v>       0.81559331       0.70877135       0.69958937 </v>
   <v>       0.06220468       0.04206474       0.61052853 </v>
   <v>       0.55867933       0.21327830       0.83317094 </v>
   <v>       0.31369454       0.87207914       0.52162141 </v>
   <v>       0.68822421       0.28060992       0.12404059 </v>
   <v>       0.17986312       0.95131609       0.21199636 </v>
   <v>       0.68789491       0.29174810       0.61043399 </v>
   <v>       0.31265834       0.04210910       0.61047707 </v>
   <v>       0.94536719       0.12454531       0.78840302 </v>
   <v>       0.44048505       0.79708023       0.87580647 </v>
   <v>       0.81085352       0.04197694       0.74399851 </v>
   <v>       0.43854116       0.12204252       0.52165560 </v>
   <v>       0.18383432       0.62579206       0.65478683 </v>
   <v>       0.31515648       0.70844312       0.69964784 </v>
   <v>       0.93608606       0.27944841       0.12464875 </v>
   <v>       0.43787726       0.45594325       0.47850062 </v>
   <v>       0.06291199       0.70579340       0.47846495 </v>
   <v>       0.93800249       0.12045604       0.43458805 </v>
   <v>       0.42919618       0.12227346       0.30040762 </v>
   <v>       0.18792081       0.12078197       0.43446872 </v>
   <v>       0.56416799       0.04284481       0.87558272 </v>
   <v>       0.18878516       0.95771979       0.56566645 </v>
   <v>       0.68877193       0.78210853       0.12435270 </v>
   <v>       0.56377891       0.53347284       0.12441376 </v>
   <v>       0.30890114       0.03777343       0.38935186 </v>
   <v>       0.69286171       0.11233975       0.16702367 </v>
   <v>       0.80592033       0.20315937       0.21189302 </v>
   <v>       0.06545962       0.53547178       0.25579909 </v>
   <v>       0.56255908       0.70586340       0.47855202 </v>
   <v>       0.06369507       0.20766256       0.56575687 </v>
   <v>       0.55405763       0.37194344       0.30031410 </v>
   <v>       0.44140839       0.95214971       0.34510463 </v>
   <v>       0.18418380       0.96349664       0.83322715 </v>
   <v>       0.44112024       0.61242013       0.16682222 </v>
   <v>       0.93057566       0.45344277       0.21191939 </v>
   <v>       0.06335600       0.53386966       0.12456533 </v>
   <v>       0.81333508       0.37212603       0.52165487 </v>
   <v>       0.92867221       0.62186911       0.30024148 </v>
   <v>       0.31518467       0.03573284       0.25596081 </v>
   <v>       0.06357769       0.87209137       0.52164548 </v>
   <v>       0.18395580       0.46412929       0.83325618 </v>
   <v>       0.44175667       0.11209448       0.16667768 </v>
   <v>       0.31364517       0.37211296       0.52165418 </v>
   <v>       0.44594566       0.62484450       0.78823412 </v>
   <v>       0.06501689       0.03571900       0.25586775 </v>
   <v>       0.56388977       0.70768564       0.56569155 </v>
   <v>       0.93625391       0.29162252       0.74409320 </v>
   <v>       0.69552810       0.12463805       0.78829013 </v>
   <v>       0.18073808       0.45231540       0.21159586 </v>
   <v>       0.93364363       0.78757675       0.38935696 </v>
   <v>       0.69306400       0.29665071       0.87579634 </v>
   <v>       0.68803409       0.79188245       0.61047204 </v>
   <v>       0.44012301       0.45843573       0.69963896 </v>
   <v>       0.80914721       0.37544694       0.65465765 </v>
   <v>       0.68825995       0.62212571       0.52164099 </v>
   <v>       0.05871509       0.87569652       0.65477263 </v>
   <v>       0.07057605       0.87473563       0.78838155 </v>
   <v>       0.05893041       0.37553870       0.65470461 </v>
   <v>       0.68766460       0.45577666       0.47852785 </v>
   <v>       0.19013853       0.78572537       0.25574574 </v>
   <v>       0.43815354       0.12032199       0.43456110 </v>
   <v>       0.81191550       0.03305135       0.12432839 </v>
   <v>       0.93840554       0.62210208       0.52165127 </v>
   <v>       0.06307155       0.87060404       0.43455332 </v>
   <v>       0.81156004       0.53414792       0.12441334 </v>
   <v>       0.44142470       0.45208779       0.34511089 </v>
   <v>       0.81554527       0.20194977       0.34510126 </v>
   <v>       0.31646711       0.70164220       0.34509766 </v>
   <v>       0.68420883       0.12545588       0.65468283 </v>
   <v>       0.55392840       0.87208597       0.30038417 </v>
   <v>       0.06089814       0.54249594       0.74407785 </v>
   <v>       0.93607809       0.78141705       0.12456252 </v>
   <v>       0.80635177       0.70224700       0.21170720 </v>
   <v>       0.05473550       0.87240948       0.30013780 </v>
   <v>       0.17985503       0.12322912       0.30034137 </v>
   <v>       0.06626503       0.70173884       0.34504327 </v>
   <v>       0.81284954       0.04182458       0.61044843 </v>
   <v>       0.06293377       0.37024887       0.43457768 </v>
   <v>       0.56589185       0.20195969       0.34504826 </v>
   <v>       0.80345078       0.37201486       0.30035053 </v>
   <v>       0.43791276       0.95581954       0.47848962 </v>
   <v>       0.55839707       0.53720497       0.38928622 </v>
   <v>       0.06282693       0.20562826       0.47849978 </v>
   <v>       0.32052544       0.87508044       0.78826487 </v>
   <v>       0.94047090       0.95823679       0.69959117 </v>
   <v>       0.05387335       0.37193685       0.30034043 </v>
   <v>       0.68428020       0.62622332       0.65473707 </v>
   <v>       0.68883322       0.45763328       0.56577794 </v>
   <v>       0.43012187       0.95272443       0.21185371 </v>
   <v>       0.31301246       0.20570762       0.47851345 </v>
   <v>       0.43397803       0.12571395       0.65471175 </v>
   <v>       0.68778188       0.62053576       0.43456142 </v>
   <v>       0.81545861       0.20805887       0.69956621 </v>
   <v>       0.81271740       0.70569527       0.47852864 </v>
   <v>       0.56290896       0.37015345       0.43456026 </v>
   <v>       0.93780399       0.95569572       0.47847230 </v>
   <v>       0.56274001       0.20555219       0.47846648 </v>
   <v>       0.18811700       0.62043996       0.43461458 </v>
   <v>       0.31082239       0.04208215       0.74401396 </v>
   <v>       0.93404738       0.62605738       0.65473121 </v>
   <v>       0.55890271       0.71321256       0.83322324 </v>
   <v>       0.30429285       0.37246082       0.30031684 </v>
   <v>       0.55495913       0.70270052       0.21176745 </v>
   <v>       0.18792391       0.45587929       0.47848941 </v>
   <v>       0.31486284       0.04142321       0.87564622 </v>
   <v>       0.19026805       0.45839636       0.69961258 </v>
   <v>       0.81472249       0.54286146       0.87565931 </v>
   <v>       0.18388702       0.28732732       0.38939357 </v>
   <v>       0.43810165       0.62055643       0.43447535 </v>
   <v>       0.05604257       0.70231520       0.21190817 </v>
   <v>       0.56425560       0.03343400       0.12420752 </v>
   <v>       0.81687201       0.36248494       0.16690427 </v>
   <v>       0.80887656       0.71393004       0.83294838 </v>
   <v>       0.07054136       0.37433972       0.78831048 </v>
   <v>       0.44237191       0.29615388       0.87566771 </v>
   <v>       0.31297252       0.03378345       0.12415718 </v>
   <v>       0.68806828       0.12032282       0.43452172 </v>
   <v>       0.19160588       0.95205594       0.34515745 </v>
   <v>       0.05922978       0.21299056       0.83321417 </v>
   <v>       0.56306676       0.04196362       0.61047713 </v>
   <v>       0.68077993       0.45326808       0.21178664 </v>
   <v>       0.18616251       0.79178632       0.74404821 </v>
   <v>       0.81305241       0.87072717       0.43455295 </v>
   <v>       0.43371561       0.78759485       0.38934126 </v>
   <v>       0.44042060       0.28549424       0.25607952 </v>
   <v>       0.06510797       0.54318790       0.87562927 </v>
   <v>       0.56049360       0.04201893       0.74413564 </v>
   <v>       0.19386726       0.79702433       0.87592889 </v>
   <v>       0.93775572       0.45581068       0.47846200 </v>
   <v>       0.80837455       0.53744914       0.38933673 </v>
   <v>       0.81376232       0.20771613       0.56579748 </v>
   <v>       0.19478613       0.62503362       0.78825424 </v>
   <v>       0.93127569       0.95279679       0.21179556 </v>
   <v>       0.06535855       0.70866686       0.69959368 </v>
   <v>       0.31540894       0.53574116       0.25593356 </v>
   <v>       0.30537913       0.70205870       0.21198489 </v>
   <v>       0.56698681       0.86270876       0.16686752 </v>
   <v>       0.56061479       0.54247479       0.74402514 </v>
   <v>       0.69067196       0.45201798       0.34506956 </v>
   <v>       0.94140000       0.29655612       0.87579905 </v>
   <v>       0.56482263       0.03528685       0.25602959 </v>
   <v>       0.19180183       0.11300233       0.16600192 </v>
   <v>       0.30803288       0.71516741       0.83400127 </v>
   <v>       0.31706363       0.85868134       0.16604479 </v>
   <v>       0.17960572       0.62180753       0.30037344 </v>
   <v>       0.05867655       0.53760225       0.38937731 </v>
   <v>       0.19176368       0.60990620       0.16579284 </v>
   <v>       0.18659551       0.27956285       0.12469548 </v>
  </varray>
 </structure>
</modeling>
