 288 288   0   0
  0.1280206E+02  0.9726678E-09  0.8423550E-09  0.4500000E-08  0.2500000E-15
   1.0000000000000000E-004
  CAR 
 unknown system                          
      6.78010289     -6.07396331  301      4.30974908      1.00000000
     -6.074  0.0000E+00  0.0000E+00
     -6.031  0.0000E+00  0.0000E+00
     -5.988  0.0000E+00  0.0000E+00
     -5.945  0.0000E+00  0.0000E+00
     -5.903  0.0000E+00  0.0000E+00
     -5.860  0.0000E+00  0.0000E+00
     -5.817  0.0000E+00  0.0000E+00
     -5.774  0.0000E+00  0.0000E+00
     -5.731  0.0000E+00  0.0000E+00
     -5.688  0.0000E+00  0.0000E+00
     -5.645  0.0000E+00  0.0000E+00
     -5.603  0.0000E+00  0.0000E+00
     -5.560  0.0000E+00  0.0000E+00
     -5.517  0.0000E+00  0.0000E+00
     -5.474  0.0000E+00  0.0000E+00
     -5.431  0.1943E-17  0.8327E-19
     -5.388  0.4502E-16  0.2012E-17
     -5.346  0.9662E-15  0.4341E-16
     -5.303  0.1763E-13  0.7988E-15
     -5.260  0.2737E-12  0.1253E-13
     -5.217  0.3616E-11  0.1675E-12
     -5.174  0.4067E-10  0.1910E-11
     -5.131  0.3894E-09  0.1859E-10
     -5.088  0.3176E-08  0.1547E-09
     -5.046  0.2207E-07  0.1100E-08
     -5.003  0.1308E-06  0.6705E-08
     -4.960  0.6623E-06  0.3508E-07
     -4.917  0.2870E-05  0.1580E-06
     -4.874  0.1067E-04  0.6154E-06
     -4.831  0.3424E-04  0.2083E-05
     -4.789  0.9538E-04  0.6169E-05
     -4.746  0.2328E-03  0.1614E-04
     -4.703  0.5038E-03  0.3773E-04
     -4.660  0.9802E-03  0.7973E-04
     -4.617  0.1738E-02  0.1542E-03
     -4.574  0.2840E-02  0.2759E-03
     -4.531  0.4316E-02  0.4608E-03
     -4.489  0.6135E-02  0.7237E-03
     -4.446  0.8201E-02  0.1075E-02
     -4.403  0.1036E-01  0.1519E-02
     -4.360  0.1244E-01  0.2052E-02
     -4.317  0.1426E-01  0.2663E-02
     -4.274  0.1572E-01  0.3337E-02
     -4.232  0.1684E-01  0.4058E-02
     -4.189  0.1775E-01  0.4819E-02
     -4.146  0.1865E-01  0.5618E-02
     -4.103  0.1975E-01  0.6465E-02
     -4.060  0.2122E-01  0.7374E-02
     -4.017  0.2308E-01  0.8363E-02
     -3.974  0.2520E-01  0.9442E-02
     -3.932  0.2732E-01  0.1061E-01
     -3.889  0.2916E-01  0.1186E-01
     -3.846  0.3046E-01  0.1317E-01
     -3.803  0.3112E-01  0.1450E-01
     -3.760  0.3123E-01  0.1584E-01
     -3.717  0.3104E-01  0.1717E-01
     -3.675  0.3091E-01  0.1849E-01
     -3.632  0.3115E-01  0.1983E-01
     -3.589  0.3196E-01  0.2120E-01
     -3.546  0.3335E-01  0.2263E-01
     -3.503  0.3520E-01  0.2413E-01
     -3.460  0.3725E-01  0.2573E-01
     -3.417  0.3919E-01  0.2741E-01
     -3.375  0.4074E-01  0.2916E-01
     -3.332  0.4171E-01  0.3094E-01
     -3.289  0.4209E-01  0.3275E-01
     -3.246  0.4205E-01  0.3455E-01
     -3.203  0.4197E-01  0.3635E-01
     -3.160  0.4228E-01  0.3816E-01
     -3.118  0.4334E-01  0.4001E-01
     -3.075  0.4524E-01  0.4195E-01
     -3.032  0.4775E-01  0.4400E-01
     -2.989  0.5042E-01  0.4616E-01
     -2.946  0.5262E-01  0.4841E-01
     -2.903  0.5388E-01  0.5072E-01
     -2.860  0.5406E-01  0.5304E-01
     -2.818  0.5355E-01  0.5533E-01
     -2.775  0.5307E-01  0.5761E-01
     -2.732  0.5324E-01  0.5989E-01
     -2.689  0.5422E-01  0.6221E-01
     -2.646  0.5558E-01  0.6459E-01
     -2.603  0.5663E-01  0.6702E-01
     -2.561  0.5692E-01  0.6946E-01
     -2.518  0.5665E-01  0.7189E-01
     -2.475  0.5658E-01  0.7431E-01
     -2.432  0.5770E-01  0.7678E-01
     -2.389  0.6069E-01  0.7938E-01
     -2.346  0.6533E-01  0.8218E-01
     -2.303  0.7037E-01  0.8520E-01
     -2.261  0.7406E-01  0.8837E-01
     -2.218  0.7509E-01  0.9159E-01
     -2.175  0.7350E-01  0.9474E-01
     -2.132  0.7074E-01  0.9777E-01
     -2.089  0.6882E-01  0.1007E+00
     -2.046  0.6934E-01  0.1037E+00
     -2.004  0.7267E-01  0.1068E+00
     -1.961  0.7790E-01  0.1101E+00
     -1.918  0.8329E-01  0.1137E+00
     -1.875  0.8711E-01  0.1174E+00
     -1.832  0.8855E-01  0.1212E+00
     -1.789  0.8812E-01  0.1250E+00
     -1.746  0.8715E-01  0.1287E+00
     -1.704  0.8687E-01  0.1325E+00
     -1.661  0.8778E-01  0.1362E+00
     -1.618  0.8970E-01  0.1401E+00
     -1.575  0.9216E-01  0.1440E+00
     -1.532  0.9488E-01  0.1481E+00
     -1.489  0.9780E-01  0.1523E+00
     -1.446  0.1009E+00  0.1566E+00
     -1.404  0.1038E+00  0.1610E+00
     -1.361  0.1062E+00  0.1656E+00
     -1.318  0.1080E+00  0.1702E+00
     -1.275  0.1104E+00  0.1750E+00
     -1.232  0.1149E+00  0.1799E+00
     -1.189  0.1226E+00  0.1851E+00
     -1.147  0.1329E+00  0.1908E+00
     -1.104  0.1434E+00  0.1970E+00
     -1.061  0.1514E+00  0.2035E+00
     -1.018  0.1553E+00  0.2101E+00
     -0.975  0.1564E+00  0.2168E+00
     -0.932  0.1584E+00  0.2236E+00
     -0.889  0.1651E+00  0.2307E+00
     -0.847  0.1786E+00  0.2383E+00
     -0.804  0.1986E+00  0.2468E+00
     -0.761  0.2239E+00  0.2564E+00
     -0.718  0.2539E+00  0.2673E+00
     -0.675  0.2890E+00  0.2797E+00
     -0.632  0.3292E+00  0.2938E+00
     -0.590  0.3728E+00  0.3098E+00
     -0.547  0.4161E+00  0.3276E+00
     -0.504  0.4546E+00  0.3471E+00
     -0.461  0.4853E+00  0.3679E+00
     -0.418  0.5081E+00  0.3896E+00
     -0.375  0.5252E+00  0.4121E+00
     -0.332  0.5394E+00  0.4352E+00
     -0.290  0.5521E+00  0.4589E+00
     -0.247  0.5631E+00  0.4830E+00
     -0.204  0.5709E+00  0.5075E+00
     -0.161  0.5748E+00  0.5321E+00
     -0.118  0.5758E+00  0.5568E+00
     -0.075  0.5764E+00  0.5815E+00
     -0.033  0.5794E+00  0.6063E+00
      0.010  0.5874E+00  0.6315E+00
      0.053  0.6019E+00  0.6573E+00
      0.096  0.6239E+00  0.6840E+00
      0.139  0.6530E+00  0.7120E+00
      0.182  0.6870E+00  0.7414E+00
      0.225  0.7222E+00  0.7724E+00
      0.267  0.7550E+00  0.8047E+00
      0.310  0.7831E+00  0.8383E+00
      0.353  0.8063E+00  0.8728E+00
      0.396  0.8253E+00  0.9082E+00
      0.439  0.8407E+00  0.9442E+00
      0.482  0.8525E+00  0.9807E+00
      0.524  0.8597E+00  0.1018E+01
      0.567  0.8619E+00  0.1054E+01
      0.610  0.8592E+00  0.1091E+01
      0.653  0.8524E+00  0.1128E+01
      0.696  0.8417E+00  0.1164E+01
      0.739  0.8271E+00  0.1199E+01
      0.782  0.8092E+00  0.1234E+01
      0.824  0.7908E+00  0.1268E+01
      0.867  0.7751E+00  0.1301E+01
      0.910  0.7648E+00  0.1334E+01
      0.953  0.7600E+00  0.1366E+01
      0.996  0.7579E+00  0.1399E+01
      1.039  0.7548E+00  0.1431E+01
      1.081  0.7480E+00  0.1463E+01
      1.124  0.7376E+00  0.1495E+01
      1.167  0.7271E+00  0.1526E+01
      1.210  0.7213E+00  0.1557E+01
      1.253  0.7228E+00  0.1588E+01
      1.296  0.7293E+00  0.1619E+01
      1.339  0.7343E+00  0.1651E+01
      1.381  0.7315E+00  0.1682E+01
      1.424  0.7190E+00  0.1713E+01
      1.467  0.7006E+00  0.1743E+01
      1.510  0.6836E+00  0.1772E+01
      1.553  0.6743E+00  0.1801E+01
      1.596  0.6758E+00  0.1830E+01
      1.638  0.6876E+00  0.1859E+01
      1.681  0.7072E+00  0.1890E+01
      1.724  0.7311E+00  0.1921E+01
      1.767  0.7563E+00  0.1953E+01
      1.810  0.7804E+00  0.1987E+01
      1.853  0.8019E+00  0.2021E+01
      1.896  0.8199E+00  0.2056E+01
      1.938  0.8351E+00  0.2092E+01
      1.981  0.8492E+00  0.2129E+01
      2.024  0.8637E+00  0.2166E+01
      2.067  0.8796E+00  0.2203E+01
      2.110  0.8964E+00  0.2242E+01
      2.153  0.9135E+00  0.2281E+01
      2.195  0.9304E+00  0.2321E+01
      2.238  0.9477E+00  0.2361E+01
      2.281  0.9672E+00  0.2403E+01
      2.324  0.9920E+00  0.2445E+01
      2.367  0.1024E+01  0.2489E+01
      2.410  0.1064E+01  0.2535E+01
      2.453  0.1108E+01  0.2582E+01
      2.495  0.1154E+01  0.2632E+01
      2.538  0.1197E+01  0.2683E+01
      2.581  0.1233E+01  0.2736E+01
      2.624  0.1260E+01  0.2790E+01
      2.667  0.1277E+01  0.2844E+01
      2.710  0.1286E+01  0.2899E+01
      2.752  0.1293E+01  0.2955E+01
      2.795  0.1303E+01  0.3011E+01
      2.838  0.1321E+01  0.3067E+01
      2.881  0.1351E+01  0.3125E+01
      2.924  0.1385E+01  0.3185E+01
      2.967  0.1412E+01  0.3245E+01
      3.010  0.1414E+01  0.3306E+01
      3.052  0.1379E+01  0.3365E+01
      3.095  0.1308E+01  0.3421E+01
      3.138  0.1214E+01  0.3473E+01
      3.181  0.1117E+01  0.3521E+01
      3.224  0.1032E+01  0.3565E+01
      3.267  0.9690E+00  0.3606E+01
      3.310  0.9278E+00  0.3646E+01
      3.352  0.9053E+00  0.3685E+01
      3.395  0.8961E+00  0.3723E+01
      3.438  0.8936E+00  0.3762E+01
      3.481  0.8908E+00  0.3800E+01
      3.524  0.8820E+00  0.3838E+01
      3.567  0.8657E+00  0.3875E+01
      3.609  0.8463E+00  0.3911E+01
      3.652  0.8321E+00  0.3947E+01
      3.695  0.8307E+00  0.3982E+01
      3.738  0.8442E+00  0.4018E+01
      3.781  0.8688E+00  0.4056E+01
      3.824  0.8979E+00  0.4094E+01
      3.867  0.9258E+00  0.4134E+01
      3.909  0.9505E+00  0.4174E+01
      3.952  0.9720E+00  0.4216E+01
      3.995  0.9916E+00  0.4259E+01
      4.038  0.1009E+01  0.4302E+01
      4.081  0.1023E+01  0.4346E+01
      4.124  0.1030E+01  0.4390E+01
      4.166  0.1030E+01  0.4434E+01
      4.209  0.1021E+01  0.4478E+01
      4.252  0.1008E+01  0.4521E+01
      4.295  0.9936E+00  0.4563E+01
      4.338  0.9832E+00  0.4606E+01
      4.381  0.9786E+00  0.4647E+01
      4.424  0.9797E+00  0.4689E+01
      4.466  0.9843E+00  0.4732E+01
      4.509  0.9888E+00  0.4774E+01
      4.552  0.9899E+00  0.4816E+01
      4.595  0.9866E+00  0.4859E+01
      4.638  0.9807E+00  0.4901E+01
      4.681  0.9765E+00  0.4943E+01
      4.723  0.9788E+00  0.4985E+01
      4.766  0.9904E+00  0.5027E+01
      4.809  0.1011E+01  0.5070E+01
      4.852  0.1037E+01  0.5115E+01
      4.895  0.1065E+01  0.5160E+01
      4.938  0.1089E+01  0.5207E+01
      4.981  0.1106E+01  0.5254E+01
      5.023  0.1105E+01  0.5302E+01
      5.066  0.1075E+01  0.5348E+01
      5.109  0.1004E+01  0.5391E+01
      5.152  0.8867E+00  0.5429E+01
      5.195  0.7296E+00  0.5460E+01
      5.238  0.5518E+00  0.5484E+01
      5.280  0.3791E+00  0.5500E+01
      5.323  0.2343E+00  0.5510E+01
      5.366  0.1291E+00  0.5515E+01
      5.409  0.6304E-01  0.5518E+01
      5.452  0.2712E-01  0.5519E+01
      5.495  0.1024E-01  0.5520E+01
      5.538  0.3377E-02  0.5520E+01
      5.580  0.9714E-03  0.5520E+01
      5.623  0.2430E-03  0.5520E+01
      5.666  0.5277E-04  0.5520E+01
      5.709  0.9929E-05  0.5520E+01
      5.752  0.1617E-05  0.5520E+01
      5.795  0.2275E-06  0.5520E+01
      5.837  0.2763E-07  0.5520E+01
      5.880  0.2893E-08  0.5520E+01
      5.923  0.2609E-09  0.5520E+01
      5.966  0.2025E-10  0.5520E+01
      6.009  0.1351E-11  0.5520E+01
      6.052  0.7744E-13  0.5520E+01
      6.095  0.3800E-14  0.5520E+01
      6.137  0.1503E-15  0.5520E+01
      6.180  0.2591E-17  0.5520E+01
      6.223  0.0000E+00  0.5520E+01
      6.266  0.0000E+00  0.5520E+01
      6.309  0.0000E+00  0.5520E+01
      6.352  0.0000E+00  0.5520E+01
      6.394  0.0000E+00  0.5520E+01
      6.437  0.0000E+00  0.5520E+01
      6.480  0.0000E+00  0.5520E+01
      6.523  0.0000E+00  0.5520E+01
      6.566  0.0000E+00  0.5520E+01
      6.609  0.0000E+00  0.5520E+01
      6.652  0.0000E+00  0.5520E+01
      6.694  0.0000E+00  0.5520E+01
      6.737  0.0000E+00  0.5520E+01
      6.780  0.0000E+00  0.5520E+01
