 vasp.5.4.4.18Apr17-6-g9f103f2a35 (build May 29 2019 08:40:53) complex           
 executed on             LinuxPGI date 2021.11.22  02:55:48
 running on  160 total cores
 distrk:  each k-point on   40 cores,    4 groups
 distr:  one band on NCORES_PER_BAND=   4 cores,   10 groups


--------------------------------------------------------------------------------------------------------


 INCAR:
 POTCAR:    PAW_PBE Fe_GW 31Mar2010               
 POTCAR:    PAW_PBE Mn_GW 31Mar2010               

 ----------------------------------------------------------------------------- 
|                                                                             |
|           W    W    AA    RRRRR   N    N  II  N    N   GGGG   !!!           |
|           W    W   A  A   R    R  NN   N  II  NN   N  G    G  !!!           |
|           W    W  A    A  R    R  N N  N  II  N N  N  G       !!!           |
|           W WW W  AAAAAA  RRRRR   N  N N  II  N  N N  G  GGG   !            |
|           WW  WW  A    A  R   R   N   NN  II  N   NN  G    G                |
|           W    W  A    A  R    R  N    N  II  N    N   GGGG   !!!           |
|                                                                             |
|      For optimal performance we recommend to set                            |
|        NCORE= 4 - approx SQRT( number of cores)                             |
|      NCORE specifies how many cores store one orbital (NPAR=cpu/NCORE).     |
|      This setting can  greatly improve the performance of VASP for DFT.     |
|      The default,   NCORE=1            might be grossly inefficient         |
|      on modern multi-core architectures or massively parallel machines.     |
|      Do your own testing !!!!                                               |
|      Unfortunately you need to use the default for GW and RPA calculations. |
|      (for HF NCORE is supported but not extensively tested yet)             |
|                                                                             |
 ----------------------------------------------------------------------------- 


 ----------------------------------------------------------------------------- 
|                                                                             |
|           W    W    AA    RRRRR   N    N  II  N    N   GGGG   !!!           |
|           W    W   A  A   R    R  NN   N  II  NN   N  G    G  !!!           |
|           W    W  A    A  R    R  N N  N  II  N N  N  G       !!!           |
|           W WW W  AAAAAA  RRRRR   N  N N  II  N  N N  G  GGG   !            |
|           WW  WW  A    A  R   R   N   NN  II  N   NN  G    G                |
|           W    W  A    A  R    R  N    N  II  N    N   GGGG   !!!           |
|                                                                             |
|      You have enabled k-point parallelism (KPAR>1).                         |
|      This developmental code was originally  written by Paul Kent at ORNL,  |
|      and carefully double checked in Vienna.                                |
|      GW as well as linear response parallelism added by Martijn Marsman     |
|      and Georg Kresse.                                                      |
|      Carefully verify results versus KPAR=1.                                |
|      Report problems to Paul Kent and Vienna.                               |
|                                                                             |
 ----------------------------------------------------------------------------- 

 POTCAR:    PAW_PBE Fe_GW 31Mar2010               
   SHA256 =  2f8cc54f0048d2b8131fafa2fd9471601c7f588f91a54eba7a0e33760ec848ea Fe
   COPYR  = (c) Copyright 31Mar2010 Georg Kresse                                
   COPYR  = This file is part of the software VASP. Any use, copying, and all ot
   COPYR  = If you do not have a valid VASP license, you may not use, copy or di
   VRHFIN =Fe:  d7 s1                                                           
   LEXCH  = PE                                                                  
   EATOM  =   594.3155 eV,   43.6810 Ry                                         
                                                                                
   TITEL  = PAW_PBE Fe_GW 31Mar2010                                             
   LULTRA =        F    use ultrasoft PP ?                                      
   IUNSCR =        1    unscreen: 0-lin 1-nonlin 2-no                           
   RPACOR =    1.800    partial core radius                                     
   POMASS =   55.847; ZVAL   =    8.000    mass and valenz                      
   RCORE  =    2.300    outmost cutoff radius                                   
   RWIGS  =    2.300; RWIGS  =    1.217    wigner-seitz radius (au A)           
   ENMAX  =  321.007; ENMIN  =  240.755 eV                                      
   RCLOC  =    1.701    cutoff for local pot                                    
   LCOR   =        T    correct aug charges                                     
   LPAW   =        T    paw PP                                                  
   EAUG   =  753.401                                                            
   DEXC   =    0.000                                                            
   RMAX   =    2.356    core radius for proj-oper                               
   RAUG   =    1.300    factor for augmentation sphere                          
   RDEP   =    2.442    radius for radial grids                                 
   RDEPT  =    1.800    core radius for aug-charge                              
                                                                                
   Atomic configuration                                                         
    9 entries                                                                   
     n  l   j            E        occ.                                          
     1  0  0.50     -6993.8440   2.0000                                         
     2  0  0.50      -814.6047   2.0000                                         
     2  1  1.50      -693.3689   6.0000                                         
     3  0  0.50       -89.4732   2.0000                                         
     3  1  1.50       -55.6373   6.0000                                         
     3  2  2.50        -3.8151   7.0000                                         
     4  0  0.50        -4.2551   1.0000                                         
     4  1  1.50        -3.4015   0.0000                                         
     4  3  2.50        -1.3606   0.0000                                         
   Description                                                                  
     l       E           TYP  RCUT    TYP  RCUT                                 
     2     -3.8151215     23  2.100                                             
     2     -5.1757041     23  2.100                                             
     0     -4.2550988     23  2.300                                             
     0     54.4233040     23  2.300                                             
     1     -2.7211652     23  2.300                                             
     1     68.0291300     23  2.300                                             
     3     27.2116520     23  2.300                                             
  local pseudopotential read in
  partial core-charges read in
  partial kinetic energy density read in
  kinetic energy density of atom read in
  atomic valenz-charges read in
  non local Contribution for L=            2  read in
    real space projection operators read in
  non local Contribution for L=            2  read in
    real space projection operators read in
  non local Contribution for L=            0  read in
    real space projection operators read in
  non local Contribution for L=            0  read in
    real space projection operators read in
  non local Contribution for L=            1  read in
    real space projection operators read in
  non local Contribution for L=            1  read in
    real space projection operators read in
  non local Contribution for L=            3  read in
    real space projection operators read in
    PAW grid and wavefunctions read in
 
   number of l-projection  operators is LMAX  =            7
   number of lm-projection operators is LMMAX =           25
 
 POTCAR:    PAW_PBE Mn_GW 31Mar2010               
   SHA256 =  94ae266cf9f02ce3d66f03781e79a4abde1ab929a3c493eac5d81431ef91e174 Mn
   COPYR  = (c) Copyright 31Mar2010 Georg Kresse                                
   COPYR  = This file is part of the software VASP. Any use, copying, and all ot
   COPYR  = If you do not have a valid VASP license, you may not use, copy or di
   VRHFIN =Mn: d6 s1                                                            
   LEXCH  = PE                                                                  
   EATOM  =   416.7540 eV,   30.6306 Ry                                         
                                                                                
   TITEL  = PAW_PBE Mn_GW 31Mar2010                                             
   LULTRA =        F    use ultrasoft PP ?                                      
   IUNSCR =        1    unscreen: 0-lin 1-nonlin 2-no                           
   RPACOR =    1.800    partial core radius                                     
   POMASS =   54.938; ZVAL   =    7.000    mass and valenz                      
   RCORE  =    2.400    outmost cutoff radius                                   
   RWIGS  =    2.500; RWIGS  =    1.323    wigner-seitz radius (au A)           
   ENMAX  =  278.466; ENMIN  =  208.850 eV                                      
   RCLOC  =    1.725    cutoff for local pot                                    
   LCOR   =        T    correct aug charges                                     
   LPAW   =        T    paw PP                                                  
   EAUG   =  838.435                                                            
   DEXC   =    0.000                                                            
   RMAX   =    2.458    core radius for proj-oper                               
   RAUG   =    1.300    factor for augmentation sphere                          
   RDEP   =    2.492    radius for radial grids                                 
   RDEPT  =    1.800    core radius for aug-charge                              
                                                                                
   Atomic configuration                                                         
    9 entries                                                                   
     n  l   j            E        occ.                                          
     1  0  0.50     -6424.8287   2.0000                                         
     2  0  0.50      -739.1153   2.0000                                         
     2  1  1.50      -625.3949   6.0000                                         
     3  0  0.50       -81.6100   2.0000                                         
     3  1  1.50       -50.4666   6.0000                                         
     3  2  2.50        -3.3745   6.0000                                         
     4  0  0.50        -4.1331   1.0000                                         
     4  1  0.50        -4.0817   0.0000                                         
     4  3  2.50        -1.3606   0.0000                                         
   Description                                                                  
     l       E           TYP  RCUT    TYP  RCUT                                 
     2     -3.3744623     23  2.250                                             
     2     -4.7350449     23  2.250                                             
     0     -4.1331408     23  2.300                                             
     0     54.4233040     23  2.300                                             
     1     -2.7211652     23  2.400                                             
     1     68.0291300     23  2.400                                             
     3     27.2116520     23  2.400                                             
  local pseudopotential read in
  partial core-charges read in
  partial kinetic energy density read in
  kinetic energy density of atom read in
  atomic valenz-charges read in
  non local Contribution for L=            2  read in
    real space projection operators read in
  non local Contribution for L=            2  read in
    real space projection operators read in
  non local Contribution for L=            0  read in
    real space projection operators read in
  non local Contribution for L=            0  read in
    real space projection operators read in
  non local Contribution for L=            1  read in
    real space projection operators read in
  non local Contribution for L=            1  read in
    real space projection operators read in
  non local Contribution for L=            3  read in
    real space projection operators read in
    PAW grid and wavefunctions read in
 
   number of l-projection  operators is LMAX  =            7
   number of lm-projection operators is LMMAX =           25
 
 Optimization of the real space projectors (new method)

 maximal supplied QI-value         = 16.25
 optimisation between [QCUT,QGAM] = [ 11.38, 22.75] = [ 36.24,144.96] Ry 
 Optimized for a Real-space Cutoff    1.47 Angstroem

   l    n(q)    QCUT    max X(q) W(low)/X(q) W(high)/X(q)  e(spline) 
   2      9    11.376   131.327    0.18E-03    0.15E-03    0.32E-06
   2      9    11.376   127.187    0.18E-03    0.15E-03    0.32E-06
   0     10    11.376    16.887    0.65E-04    0.39E-04    0.15E-06
   0     10    11.376     8.663    0.39E-04    0.30E-04    0.12E-06
   1     10    11.376     5.390    0.67E-04    0.60E-04    0.14E-06
   1     10    11.376     3.548    0.40E-04    0.37E-04    0.94E-07
   3      9    11.376     4.269    0.82E-04    0.22E-03    0.14E-06
 Optimization of the real space projectors (new method)

 maximal supplied QI-value         = 15.68
 optimisation between [QCUT,QGAM] = [ 11.45, 22.90] = [ 36.71,146.85] Ry 
 Optimized for a Real-space Cutoff    1.52 Angstroem

   l    n(q)    QCUT    max X(q) W(low)/X(q) W(high)/X(q)  e(spline) 
   2      9    11.450   123.144    0.15E-03    0.12E-04    0.31E-06
   2      9    11.450   117.938    0.15E-03    0.12E-04    0.31E-06
   0     10    11.450    19.684    0.63E-04    0.21E-04    0.22E-06
   0     10    11.450     9.378    0.37E-04    0.16E-04    0.17E-06
   1     10    11.450     5.531    0.25E-04    0.81E-04    0.11E-06
   1     10    11.450     3.850    0.15E-04    0.46E-04    0.77E-07
   3      9    11.450     4.123    0.90E-04    0.12E-03    0.18E-06
  PAW_PBE Fe_GW 31Mar2010               :
 energy of atom  1       EATOM= -594.3155
 kinetic energy error for atom=    0.0081 (will be added to EATOM!!)
  PAW_PBE Mn_GW 31Mar2010               :
 energy of atom  2       EATOM= -416.7540
 kinetic energy error for atom=    0.0025 (will be added to EATOM!!)
 
 
 POSCAR: FeMn_288_15                             
  positions in direct lattice
  velocities in cartesian coordinates
 exchange correlation table for  LEXCH =        8
   RHO(1)=    0.500       N(1)  =     2000
   RHO(2)=  100.500       N(2)  =     4000
 


--------------------------------------------------------------------------------------------------------


 ion  position               nearest neighbor table
   1  0.938  0.622  0.521-  86 2.38  25 2.38 196 2.38  78 2.42 107 2.42 205 2.42 263 2.43  84 2.43
                            10 2.43  15 2.43 232 2.43 237 2.43
   2  0.063  0.206  0.479- 232 2.38 140 2.38  90 2.38 192 2.42 236 2.42  97 2.42 131 2.43  23 2.43
                           113 2.43 248 2.43 196 2.43 260 2.43
   3  0.813  0.372  0.435-  73 2.42 113 2.42 196 2.42 236 2.43 137 2.43  33 2.43 276 2.43 192 2.43
                           149 2.43 116 2.45 198 2.45  72 2.45
   4  0.437  0.622  0.521- 103 2.38 271 2.38   6 2.38 285 2.42 194 2.42  31 2.42 105 2.43 163 2.43
                            19 2.43  84 2.43 138 2.43 263 2.44
   5  0.562  0.373  0.786- 213 2.43  60 2.43 234 2.43 143 2.43 200 2.43 150 2.43 134 2.44 120 2.44
                           132 2.44 136 2.46  43 2.46 144 2.46
   6  0.312  0.706  0.479-  19 2.38  84 2.38   4 2.38  35 2.42  67 2.42 126 2.42  54 2.43 260 2.43
                            25 2.43  23 2.43 103 2.43 271 2.44
   7  0.937  0.955  0.698-  49 2.42 161 2.43  61 2.43  66 2.43 218 2.43   8 2.43 264 2.44  64 2.44
                           251 2.44 281 2.44 268 2.44 135 2.45
   8  0.812  0.039  0.742- 275 2.42 132 2.43 161 2.43  87 2.43 143 2.43 264 2.43   7 2.43  61 2.43
                            32 2.43 212 2.44 183 2.44  66 2.44
   9  0.188  0.289  0.390-  91 2.43 165 2.43  65 2.43  39 2.43 122 2.43 216 2.43  38 2.43 148 2.43
                           198 2.43  97 2.44 257 2.45 236 2.45
  10  0.812  0.872  0.521-  86 2.38 248 2.38 208 2.38  78 2.41 175 2.42  82 2.42 249 2.43 138 2.43
                           263 2.43   1 2.43 140 2.43  15 2.43
  11  0.062  0.539  0.610- 119 2.42 171 2.43  36 2.43 274 2.43 127 2.43 262 2.43 101 2.43 187 2.43
                           239 2.44 205 2.45 107 2.45 142 2.45
  12  0.188  0.789  0.258- 269 2.42 227 2.43 211 2.43 184 2.43  71 2.43 230 2.43 201 2.43 141 2.43
                            69 2.43  21 2.44 145 2.44  16 2.44
  13  0.438  0.622  0.169- 210 2.36 158 2.36 235 2.36 231 2.43 204 2.43 110 2.43 214 2.44  96 2.44
                            52 2.44 184 2.46 168 2.46  88 2.46
  14  0.938  0.456  0.346- 216 2.42 198 2.42 116 2.42 246 2.43  91 2.43 118 2.43  65 2.43 164 2.43
                           108 2.43  83 2.44  77 2.44 207 2.44
  15  0.063  0.872  0.521-  25 2.38 260 2.38 248 2.38 107 2.42  82 2.42  56 2.42  90 2.43  19 2.43
                            84 2.43   1 2.43 140 2.43  10 2.43
  16  0.062  0.872  0.302-  69 2.43 240 2.43  37 2.43  20 2.43 145 2.43  21 2.43 211 2.43  83 2.43
                            12 2.44  45 2.44 242 2.44 118 2.44
  17  0.812  0.372  0.654- 274 2.42 181 2.42 127 2.43 202 2.43 139 2.43 265 2.43 119 2.43 268 2.43
                           171 2.44  61 2.44 278 2.45 182 2.45
  18  0.438  0.289  0.610-  58 2.42  59 2.43 181 2.43 265 2.43 101 2.43  34 2.43 262 2.43 209 2.43
                           155 2.44  31 2.45 226 2.45 170 2.45
  19  0.312  0.872  0.521- 260 2.38  54 2.38   6 2.38 194 2.42  26 2.42  56 2.42  15 2.43  90 2.43
                            84 2.43   4 2.43 282 2.43 138 2.44
  20  0.813  0.872  0.302- 273 2.43  83 2.43 154 2.43  16 2.43 180 2.43 277 2.43 211 2.44 100 2.44
                            37 2.44 246 2.44  45 2.44 238 2.44
  21  0.187  0.622  0.302- 169 2.43  77 2.43  71 2.43 141 2.43 258 2.43  83 2.43  16 2.43 145 2.43
                            12 2.44 166 2.44  91 2.44 118 2.44
  22  0.813  0.539  0.873- 173 2.36 136 2.36 254 2.36 261 2.42  63 2.43  95 2.43 229 2.43 253 2.43
                           111 2.43
  23  0.188  0.456  0.479- 232 2.38  84 2.38 105 2.38 236 2.42  35 2.42 257 2.42 131 2.43   2 2.43
                           271 2.43   6 2.43 196 2.43  25 2.43
  24  0.437  0.788  0.873- 102 2.35 147 2.36 199 2.37 222 2.42 229 2.43  95 2.43  92 2.43 284 2.43
                           266 2.44
  25  0.063  0.706  0.479-   1 2.38  15 2.38  84 2.38  35 2.42  30 2.42  33 2.42   6 2.43  86 2.43
                           248 2.43 260 2.43 196 2.43  23 2.43
  26  0.437  0.955  0.565-  19 2.42 138 2.42 282 2.42  56 2.43 175 2.43 194 2.43 285 2.43 226 2.43
                           170 2.44  34 2.45 155 2.45 123 2.45
  27  0.063  0.205  0.831-  70 2.35 244 2.35 111 2.36 162 2.43 233 2.43 189 2.43 133 2.43 254 2.44
                           185 2.44 203 2.46 250 2.47 275 2.47
  28  0.314  0.039  0.127-  85 2.34 204 2.36  53 2.36  94 2.42 235 2.42 245 2.43  68 2.43 286 2.43
                           255 2.45
  29  0.562  0.206  0.214- 283 2.42 280 2.42  88 2.43  47 2.43 272 2.43 117 2.43 224 2.43  89 2.43
                           228 2.44 231 2.46 221 2.46  85 2.47
  30  0.062  0.872  0.435-  25 2.42 248 2.42 260 2.42  33 2.43 215 2.43 192 2.43  35 2.43 126 2.43
                            97 2.43 241 2.45 148 2.45  93 2.45
  31  0.437  0.455  0.565- 163 2.42 105 2.42   4 2.42 142 2.43 285 2.43 170 2.43 226 2.43 194 2.43
                            40 2.44  18 2.45 262 2.45 209 2.45
  32  0.562  0.039  0.742-  50 2.43 120 2.43 234 2.43 172 2.43 212 2.43 132 2.43 206 2.43 193 2.43
                           143 2.43 279 2.43   8 2.43  66 2.43
  33  0.938  0.622  0.435-  25 2.42 196 2.42  86 2.42 236 2.43  35 2.43  30 2.43 215 2.43   3 2.43
                           137 2.43 241 2.45 116 2.45 216 2.45
  34  0.563  0.039  0.610- 270 2.43 202 2.43 153 2.43  58 2.43  18 2.43 197 2.43 181 2.43 155 2.43
                           123 2.44 175 2.44 226 2.44  26 2.45
  35  0.187  0.622  0.435-   6 2.42  25 2.42  23 2.42  67 2.43 126 2.43  33 2.43 257 2.43 236 2.43
                            30 2.43  93 2.45  39 2.45 216 2.45
  36  0.187  0.622  0.654- 187 2.42 262 2.42 171 2.43  11 2.43  59 2.43 119 2.43  98 2.43 135 2.43
                           219 2.43 167 2.44 176 2.44 218 2.44
  37  0.938  0.122  0.302- 240 2.43 207 2.43 112 2.43  77 2.43  16 2.43  69 2.43 154 2.43  65 2.44
                           273 2.44  20 2.44 108 2.44  45 2.44
  38  0.313  0.039  0.390- 256 2.42 165 2.42 242 2.42 223 2.43 121 2.43 122 2.43   9 2.43  93 2.43
                           148 2.43 126 2.45  97 2.45  62 2.46
  39  0.313  0.539  0.390-  99 2.42  91 2.42 166 2.42   9 2.43 217 2.43 122 2.43  93 2.43 216 2.43
                           121 2.43 257 2.44  67 2.45  35 2.45
  40  0.688  0.456  0.565- 163 2.41 237 2.41 263 2.42 205 2.43 259 2.43 285 2.43  78 2.43 226 2.43
                            31 2.44 181 2.45 127 2.45 209 2.45
  41  0.188  0.623  0.786- 150 2.42  42 2.43  80 2.43  60 2.43 250 2.43 114 2.43 178 2.43 151 2.43
                           179 2.44 159 2.45 185 2.45 102 2.46
  42  0.312  0.872  0.786-  41 2.43  60 2.43 203 2.43  80 2.43 234 2.43 179 2.43  50 2.44 172 2.44
                           193 2.44 162 2.45 102 2.45 147 2.46
  43  0.437  0.456  0.831- 222 2.36 229 2.36 177 2.36 185 2.43 144 2.43 136 2.43 199 2.43 102 2.43
                           233 2.44  60 2.45   5 2.46 150 2.46
  44  0.938  0.121  0.169- 255 2.34 190 2.35  55 2.37  53 2.43  76 2.43 288 2.43 186 2.43 221 2.44
                           146 2.44  48 2.46 225 2.47 117 2.47
  45  0.938  0.955  0.346- 148 2.42 241 2.42 115 2.43 118 2.43 242 2.43  65 2.43 246 2.43 108 2.43
                           238 2.43  16 2.44  37 2.44  20 2.44
  46  0.813  0.039  0.873- 133 2.36 189 2.36 267 2.36  70 2.42 266 2.43 111 2.43  95 2.44 261 2.44
                           253 2.44
  47  0.313  0.205  0.214- 174 2.43  29 2.43 228 2.43 224 2.43  48 2.43  79 2.43  88 2.44 230 2.44
                           269 2.44  96 2.45  53 2.45  85 2.46
  48  0.062  0.205  0.214- 225 2.43 117 2.43 112 2.43 174 2.43  69 2.43  47 2.43  79 2.43 188 2.44
                           269 2.44 186 2.46  53 2.46  44 2.46
  49  0.813  0.706  0.698-   7 2.42 278 2.43 218 2.43 287 2.43  66 2.43 161 2.43 182 2.43 195 2.44
                           212 2.44 281 2.44 139 2.44 119 2.44
  50  0.313  0.039  0.742-  32 2.43 120 2.43 152 2.43 206 2.43 179 2.43 264 2.43 203 2.43 234 2.43
                           172 2.43 106 2.43 251 2.43  42 2.44
  51  0.562  0.372  0.302- 100 2.43 157 2.43 224 2.43 169 2.43 258 2.43 104 2.43 207 2.43 154 2.43
                           243 2.44 164 2.44  99 2.44 283 2.44
  52  0.563  0.873  0.169-  94 2.36 235 2.37  81 2.37 221 2.42 204 2.43 214 2.43  85 2.43 288 2.44
                            13 2.44 168 2.46 228 2.46 280 2.47
  53  0.188  0.123  0.169- 286 2.35  28 2.36 255 2.37 186 2.42  96 2.42  85 2.42  44 2.43  76 2.44
                           204 2.44  47 2.45  48 2.46 269 2.47
  54  0.437  0.955  0.479- 282 2.38 138 2.38  19 2.38  62 2.41 126 2.42 252 2.42   6 2.43 260 2.43
                           103 2.43 208 2.43 191 2.44 131 2.44
  55  0.813  0.038  0.126- 288 2.34  44 2.37 221 2.37 255 2.42 109 2.42  81 2.43 190 2.43  94 2.43
                           220 2.45
  56  0.188  0.956  0.565-  90 2.42  19 2.42 170 2.42  15 2.42  26 2.43 194 2.43 129 2.43 107 2.44
                            82 2.44 155 2.44 187 2.45  57 2.45
  57  0.062  0.039  0.610- 247 2.42 268 2.42 135 2.42 239 2.43 197 2.43 101 2.43 274 2.43 155 2.43
                           187 2.44  82 2.45  56 2.45 129 2.45
  58  0.438  0.123  0.654-  18 2.42 265 2.43 155 2.43  59 2.43  34 2.43 153 2.43 247 2.43 202 2.43
                           219 2.43 279 2.44 206 2.44 152 2.45
  59  0.313  0.372  0.654- 262 2.42 265 2.43  18 2.43 101 2.43 171 2.43  58 2.43  36 2.43  98 2.43
                           247 2.43  74 2.44 152 2.44 176 2.45
  60  0.438  0.623  0.786- 150 2.43 193 2.43 213 2.43  41 2.43  42 2.43   5 2.43 172 2.43 151 2.44
                           134 2.44 199 2.45  43 2.45 102 2.46
  61  0.813  0.206  0.698-  64 2.43   7 2.43 278 2.43  87 2.43   8 2.43 132 2.44  66 2.44 279 2.44
                           268 2.44 182 2.44  17 2.44 202 2.45
  62  0.437  0.122  0.435-  54 2.41 131 2.41 191 2.41  97 2.43 257 2.43 126 2.43 149 2.43 252 2.44
                           276 2.44 122 2.46 223 2.46  38 2.46
  63  0.062  0.539  0.873- 159 2.36 254 2.37 185 2.37 261 2.42  92 2.43  22 2.43 244 2.43 111 2.43
                           222 2.43
  64  0.062  0.206  0.698-  61 2.43 152 2.43 106 2.43 278 2.43 176 2.43  87 2.43 264 2.44 251 2.44
                             7 2.44 268 2.44 171 2.44 247 2.44
  65  0.062  0.205  0.346- 148 2.42 198 2.42   9 2.43 108 2.43  45 2.43  14 2.43 242 2.43  91 2.43
                           165 2.43  37 2.44 240 2.44  77 2.44
  66  0.687  0.956  0.698- 287 2.42   7 2.43 279 2.43 206 2.43  49 2.43 212 2.43  32 2.43  61 2.44
                             8 2.44 153 2.44 281 2.44 202 2.45
  67  0.437  0.622  0.435-   6 2.42 271 2.42 103 2.42 257 2.43 126 2.43  35 2.43 149 2.43 252 2.43
                           137 2.44 121 2.45 217 2.45  39 2.45
  68  0.188  0.789  0.127- 204 2.36 110 2.36  76 2.36 235 2.42 158 2.42 128 2.43  28 2.43 255 2.44
                           109 2.44
  69  0.062  0.039  0.258- 112 2.43 225 2.43 273 2.43 211 2.43 269 2.43 240 2.43  16 2.43  79 2.43
                            12 2.43 230 2.43  48 2.43  37 2.43
  70  0.062  0.040  0.873-  27 2.35 189 2.36 162 2.37 111 2.42  46 2.42 244 2.43 261 2.44 284 2.44
                            92 2.45
  71  0.312  0.539  0.258- 227 2.43 169 2.43 104 2.43 258 2.43  88 2.43 141 2.43  21 2.43 224 2.43
                            12 2.43  79 2.43 184 2.43 174 2.43
  72  0.687  0.289  0.390- 243 2.42 108 2.42 164 2.42 122 2.43 217 2.43 198 2.43 116 2.43 115 2.43
                           223 2.43 276 2.45 149 2.45   3 2.45
  73  0.687  0.455  0.478- 237 2.38 163 2.38 263 2.38 137 2.42   3 2.42 149 2.42 191 2.43 113 2.43
                           271 2.43 196 2.43 103 2.43  86 2.44
  74  0.437  0.456  0.698- 176 2.43 151 2.43 120 2.43 134 2.43 182 2.43 279 2.43 152 2.43 167 2.44
                           287 2.44 265 2.44  59 2.44  98 2.45
  75  0.813  0.705  0.214- 201 2.43 188 2.43  89 2.43 211 2.43 277 2.43 225 2.43 130 2.43 168 2.43
                           280 2.45 160 2.46 214 2.46 288 2.49
  76  0.063  0.872  0.169- 255 2.36  68 2.36 109 2.37  44 2.43 288 2.43 204 2.43 160 2.43 110 2.44
                            53 2.44 201 2.46 269 2.46 225 2.46
  77  0.063  0.372  0.302- 141 2.43 112 2.43 169 2.43  83 2.43  21 2.43  37 2.43 240 2.43  79 2.43
                           207 2.43  91 2.44  65 2.44  14 2.44
  78  0.813  0.706  0.565-  10 2.41   1 2.42 263 2.42 107 2.43  82 2.43 205 2.43  40 2.43 175 2.43
                           285 2.44 239 2.45 127 2.45 270 2.46
  79  0.187  0.289  0.258- 112 2.43 224 2.43 240 2.43  69 2.43 141 2.43  77 2.43  71 2.43 174 2.43
                           230 2.43 169 2.43  48 2.43  47 2.43
  80  0.062  0.872  0.786- 161 2.42 183 2.43 264 2.43  41 2.43 114 2.43 179 2.43 275 2.43  42 2.43
                           203 2.44 159 2.46 189 2.46 162 2.47
  81  0.688  0.789  0.126- 288 2.34 214 2.36  52 2.37 109 2.42 156 2.43  55 2.43  94 2.43 210 2.44
                           235 2.44
  82  0.937  0.956  0.565-  10 2.42 140 2.42  15 2.42  78 2.43 259 2.43 175 2.43 129 2.43 107 2.43
                            56 2.44 197 2.44 239 2.44  57 2.45
  83  0.937  0.622  0.302- 141 2.43  77 2.43  20 2.43 100 2.43 130 2.43 207 2.43  21 2.43 211 2.43
                            16 2.43  14 2.44 246 2.44 118 2.44
  84  0.187  0.622  0.521-  25 2.38  23 2.38   6 2.38 107 2.42 194 2.42 142 2.42   1 2.43 232 2.43
                            15 2.43  19 2.43 105 2.43   4 2.43
  85  0.437  0.122  0.169-  28 2.34 245 2.35  94 2.36  96 2.42  53 2.42  52 2.43 231 2.43 221 2.44
                           204 2.44  47 2.46 228 2.47  29 2.47
  86  0.813  0.706  0.479-   1 2.38 263 2.38  10 2.38 215 2.42 137 2.42  33 2.42 248 2.43  25 2.43
                           208 2.43 196 2.43 103 2.43  73 2.44
  87  0.938  0.289  0.742- 275 2.43 106 2.43 264 2.43 195 2.43 132 2.43   8 2.43 178 2.43 278 2.43
                            61 2.43  64 2.43 250 2.43 200 2.44
  88  0.438  0.456  0.214- 104 2.42 184 2.43  71 2.43  89 2.43  29 2.43 168 2.43 174 2.43 224 2.43
                            47 2.44  13 2.46 231 2.46  96 2.47
  89  0.687  0.456  0.214-  75 2.43 104 2.43 130 2.43 283 2.43  88 2.43 168 2.43 188 2.43  29 2.43
                           117 2.44 146 2.46 231 2.46 214 2.46
  90  0.187  0.122  0.521- 260 2.38 131 2.38   2 2.38 129 2.42  56 2.42 170 2.42  15 2.43 140 2.43
                            19 2.43 232 2.43 282 2.43 105 2.44
  91  0.187  0.456  0.346- 216 2.42  39 2.42   9 2.43  14 2.43 166 2.43 118 2.43  99 2.43 165 2.43
                            65 2.43  21 2.44 169 2.44  77 2.44
  92  0.188  0.788  0.873- 102 2.35 159 2.36 162 2.36 222 2.42  63 2.43  24 2.43 261 2.43 284 2.44
                            70 2.45
  93  0.187  0.789  0.390- 118 2.42 242 2.42 166 2.42 121 2.43 241 2.43 148 2.43  38 2.43 216 2.43
                            39 2.43 126 2.45  35 2.45  30 2.45
  94  0.563  0.038  0.127-  52 2.36 221 2.36  85 2.36  28 2.42 245 2.43  81 2.43 235 2.43  55 2.43
                           220 2.44
  95  0.687  0.789  0.873- 173 2.36 267 2.36 199 2.36 229 2.43  22 2.43  24 2.43 266 2.43 261 2.44
                            46 2.44
  96  0.312  0.371  0.169- 286 2.35 245 2.37 158 2.37 186 2.42  53 2.42  85 2.42 110 2.43 231 2.43
                            13 2.44  47 2.45 174 2.46  88 2.47
  97  0.187  0.122  0.435-   2 2.42 260 2.42 131 2.42 192 2.43  62 2.43  30 2.43 126 2.43 236 2.43
                           257 2.44   9 2.44 148 2.45  38 2.45
  98  0.438  0.622  0.654- 123 2.42 209 2.42 262 2.43  59 2.43 265 2.43  36 2.43 139 2.43 153 2.43
                           219 2.43  74 2.45 167 2.45 287 2.45
  99  0.437  0.456  0.346-  39 2.42 122 2.42 217 2.42 166 2.43 124 2.43  91 2.43 164 2.43 165 2.43
                           243 2.43 258 2.44  51 2.44 169 2.44
 100  0.687  0.621  0.302- 207 2.43  51 2.43  83 2.43 258 2.43 164 2.43  20 2.44 180 2.44 277 2.44
                           104 2.44 130 2.44 124 2.44 246 2.44
 101  0.188  0.289  0.610- 247 2.42 171 2.42  59 2.43  57 2.43  18 2.43 262 2.43 274 2.43  11 2.43
                           155 2.43 170 2.45 142 2.45 129 2.45
 102  0.312  0.707  0.831-  92 2.35  24 2.35 222 2.36 162 2.43 147 2.43 185 2.43  43 2.43 159 2.43
                           199 2.43  42 2.45  41 2.46  60 2.46
 103  0.562  0.706  0.479- 138 2.38 263 2.38   4 2.38 137 2.42  67 2.42 252 2.42  54 2.43 208 2.43
                             6 2.43 271 2.43  73 2.43  86 2.43
 104  0.562  0.538  0.258-  88 2.42  71 2.43  89 2.43 224 2.43 258 2.43  51 2.43 277 2.43 227 2.43
                           168 2.44 283 2.44 100 2.44 130 2.44
 105  0.313  0.372  0.521- 131 2.38 271 2.38  23 2.38 142 2.42  31 2.42 170 2.42   4 2.43 163 2.43
                           232 2.43  84 2.43 282 2.43  90 2.44
 106  0.187  0.289  0.742- 264 2.43  87 2.43 176 2.43 250 2.43 178 2.43  64 2.43 152 2.43 203 2.43
                           151 2.43  50 2.43 150 2.43 120 2.43
 107  0.063  0.706  0.565-  84 2.42  15 2.42   1 2.42 194 2.43  78 2.43 205 2.43 142 2.43  82 2.43
                            56 2.44  11 2.45 239 2.45 187 2.46
 108  0.812  0.205  0.346- 115 2.42 198 2.42  72 2.42  65 2.43 243 2.43 238 2.43 164 2.43  14 2.43
                            45 2.43  37 2.44 207 2.44 154 2.44
 109  0.937  0.789  0.126- 288 2.33 160 2.37  76 2.37  55 2.42  81 2.42 156 2.43 255 2.43 128 2.44
                            68 2.44
 110  0.188  0.621  0.169- 128 2.35 158 2.35  68 2.36 186 2.43  96 2.43 204 2.43  13 2.43  76 2.44
                           160 2.44 174 2.46 184 2.46 201 2.47
 111  0.938  0.289  0.874-  27 2.36 133 2.36 254 2.37  70 2.42 244 2.42  63 2.43  46 2.43  22 2.43
                           253 2.44
 112  0.938  0.288  0.258-  79 2.43  69 2.43  77 2.43  37 2.43  48 2.43 141 2.43 130 2.43 207 2.43
                           188 2.43 117 2.43 273 2.44 283 2.44
 113  0.813  0.206  0.479- 249 2.38 237 2.38 140 2.38   3 2.42 192 2.42 276 2.42  73 2.43 196 2.43
                           248 2.43   2 2.43 191 2.43 208 2.43
 114  0.937  0.622  0.786-  80 2.43 250 2.43 200 2.43 183 2.43 178 2.43 195 2.43  41 2.43 213 2.44
                           161 2.44 254 2.45 159 2.45 173 2.45
 115  0.813  0.039  0.390- 108 2.42 238 2.42  45 2.43 198 2.43 148 2.43 125 2.43 241 2.43  72 2.43
                           223 2.43 276 2.44 192 2.45 215 2.45
 116  0.812  0.539  0.390- 246 2.42  14 2.42 164 2.43 217 2.43 216 2.43 198 2.43 241 2.43  72 2.43
                           125 2.43   3 2.45 137 2.45  33 2.45
 117  0.813  0.206  0.214- 283 2.42 280 2.43  48 2.43 188 2.43  29 2.43 112 2.43  89 2.44 273 2.44
                           225 2.44 146 2.45 221 2.46  44 2.47
 118  0.062  0.705  0.346- 216 2.42  93 2.42 241 2.42  45 2.43 246 2.43 242 2.43  14 2.43  91 2.43
                           166 2.43  21 2.44  16 2.44  83 2.44
 119  0.938  0.622  0.654- 127 2.42  11 2.42  36 2.43 239 2.43 139 2.43  17 2.43 171 2.43 281 2.43
                           135 2.44 278 2.44  49 2.44 218 2.45
 120  0.438  0.289  0.742-  50 2.43  74 2.43  32 2.43 279 2.43 134 2.43 132 2.43 234 2.43 151 2.43
                           152 2.43 106 2.43   5 2.44 150 2.44
 121  0.437  0.789  0.390- 256 2.42 124 2.42 166 2.42  38 2.43 223 2.43  93 2.43 125 2.43  39 2.43
                           217 2.43 126 2.44 252 2.45  67 2.45
 122  0.438  0.289  0.390-  99 2.42 243 2.42 165 2.42 223 2.43  38 2.43  72 2.43   9 2.43  39 2.43
                           217 2.43 149 2.45 257 2.45  62 2.46
 123  0.437  0.789  0.610-  98 2.42 187 2.43 209 2.43 262 2.43 153 2.43 219 2.43 155 2.43 270 2.43
                            34 2.44 285 2.45 194 2.45  26 2.45
 124  0.562  0.705  0.346- 125 2.42 217 2.42 121 2.42 238 2.43  99 2.43 166 2.43 164 2.43 256 2.43
                           246 2.43 180 2.44 100 2.44 258 2.44
 125  0.687  0.789  0.390- 238 2.42 124 2.42 246 2.42 223 2.43 115 2.43 121 2.43 116 2.43 241 2.43
                           217 2.43 252 2.44 215 2.45 137 2.45
 126  0.312  0.872  0.435-   6 2.42 260 2.42  54 2.42  67 2.43  35 2.43  30 2.43  62 2.43 252 2.43
                            97 2.43 121 2.44  93 2.45  38 2.45
 127  0.813  0.539  0.610- 119 2.42  17 2.43 139 2.43 274 2.43  11 2.43 209 2.43 181 2.43 239 2.43
                           270 2.43 205 2.45  78 2.45  40 2.45
 128  0.063  0.539  0.127- 110 2.35 160 2.36 186 2.36 158 2.43 156 2.43  68 2.43 286 2.43 190 2.43
                           109 2.44
 129  0.063  0.206  0.565-  90 2.42 140 2.42 232 2.42 170 2.43 142 2.43 259 2.43 205 2.43  82 2.43
                            56 2.43 101 2.45  57 2.45 274 2.46
 130  0.813  0.538  0.258- 188 2.42 141 2.43  89 2.43  83 2.43 112 2.43 207 2.43  75 2.43 277 2.43
                           211 2.43 283 2.44 100 2.44 104 2.44
 131  0.312  0.206  0.479- 282 2.38 105 2.38  90 2.38  62 2.41  97 2.42 257 2.43   2 2.43  23 2.43
                           260 2.43 271 2.43 191 2.44  54 2.44
 132  0.688  0.289  0.742-   8 2.43 182 2.43  87 2.43 120 2.43 134 2.43  32 2.43 195 2.43 279 2.43
                           143 2.43  61 2.44   5 2.44 200 2.44
 133  0.813  0.205  0.831-  46 2.36 111 2.36 253 2.37 189 2.43 267 2.43  27 2.43 254 2.43 136 2.43
                           144 2.44 200 2.46 143 2.46 275 2.47
 134  0.563  0.539  0.742- 182 2.43  74 2.43 212 2.43 195 2.43 120 2.43 151 2.43 132 2.43 172 2.43
                           287 2.43   5 2.44  60 2.44 213 2.44
 135  0.063  0.872  0.654-  57 2.42 187 2.42 219 2.43 239 2.43  36 2.43 247 2.43 268 2.43 281 2.44
                           119 2.44 251 2.44 218 2.44   7 2.45
 136  0.687  0.456  0.831- 253 2.36 229 2.36  22 2.36 144 2.43  43 2.43 254 2.43 199 2.43 173 2.43
                           133 2.43 200 2.45 213 2.45   5 2.46
 137  0.688  0.622  0.435-  73 2.42  86 2.42 103 2.42 149 2.43   3 2.43 252 2.43 215 2.43  33 2.43
                            67 2.44 217 2.45 116 2.45 125 2.45
 138  0.563  0.872  0.521- 103 2.38 208 2.38  54 2.38 175 2.42  26 2.42 285 2.42  10 2.43 249 2.43
                           282 2.43 263 2.43   4 2.43  19 2.44
 139  0.688  0.622  0.654- 270 2.43 127 2.43 281 2.43 209 2.43  17 2.43 119 2.43  98 2.43 153 2.43
                           265 2.44  49 2.44 287 2.44 182 2.44
 140  0.938  0.122  0.521- 248 2.38   2 2.38 113 2.38 259 2.41 129 2.42  82 2.42  90 2.43 249 2.43
                            15 2.43 232 2.43  10 2.43 237 2.44
 141  0.063  0.539  0.258- 130 2.43  77 2.43  83 2.43  71 2.43 211 2.43 188 2.43  21 2.43 112 2.43
                            79 2.43  12 2.43 201 2.43 174 2.43
 142  0.188  0.455  0.565- 105 2.42 232 2.42  84 2.42 170 2.43 129 2.43  31 2.43 194 2.43 107 2.43
                           205 2.43 101 2.45  11 2.45 262 2.45
 143  0.687  0.122  0.786- 234 2.43   5 2.43   8 2.43 200 2.43 275 2.43  32 2.43 193 2.43 183 2.43
                           132 2.43 267 2.46 144 2.46 133 2.46
 144  0.562  0.206  0.831- 177 2.35 266 2.36 253 2.36 233 2.43 147 2.43 136 2.43  43 2.43 267 2.44
                           133 2.44   5 2.46 234 2.46 143 2.46
 145  0.313  0.872  0.302- 230 2.43 180 2.43 157 2.43 240 2.43 227 2.43  16 2.43  21 2.43 258 2.43
                            12 2.44 256 2.44 242 2.44 166 2.44
 146  0.812  0.372  0.169- 190 2.36 220 2.36 156 2.37 160 2.43 231 2.43 214 2.43 221 2.43  44 2.44
                           186 2.44 117 2.45  89 2.46 188 2.46
 147  0.437  0.957  0.831- 284 2.34 266 2.36  24 2.36 162 2.42 233 2.42 144 2.43 102 2.43 267 2.44
                           199 2.44 234 2.45  42 2.46 193 2.47
 148  0.062  0.039  0.390-  45 2.42 242 2.42  65 2.42 241 2.43 115 2.43  93 2.43   9 2.43 198 2.43
                            38 2.43  97 2.45 192 2.45  30 2.45
 149  0.562  0.373  0.435-  73 2.42 271 2.42 191 2.42 257 2.43 137 2.43  67 2.43  62 2.43   3 2.43
                           276 2.44 217 2.44 122 2.45  72 2.45
 150  0.312  0.374  0.786-  41 2.42  60 2.43 151 2.43 250 2.43   5 2.43 106 2.43 120 2.44 203 2.44
                           234 2.44 185 2.45  43 2.46 233 2.47
 151  0.313  0.539  0.742- 150 2.43 176 2.43  74 2.43 172 2.43 134 2.43 178 2.43 106 2.43 179 2.43
                           120 2.43 167 2.43  41 2.43  60 2.44
 152  0.312  0.206  0.698- 251 2.42  64 2.43 206 2.43 176 2.43  50 2.43 106 2.43  74 2.43 120 2.43
                           279 2.44 247 2.44  59 2.44  58 2.45
 153  0.562  0.873  0.654- 270 2.43 123 2.43  34 2.43  58 2.43 202 2.43 281 2.43  98 2.43 219 2.43
                           139 2.43  66 2.44 287 2.44 206 2.44
 154  0.687  0.122  0.302- 180 2.43  20 2.43 273 2.43 272 2.43  51 2.43 157 2.43 207 2.43  37 2.43
                           283 2.44 243 2.44 238 2.44 108 2.44
 155  0.312  0.038  0.610- 187 2.43 219 2.43 247 2.43  58 2.43 123 2.43  57 2.43  34 2.43 101 2.43
                            18 2.44  56 2.44  26 2.45 170 2.45
 156  0.813  0.539  0.127- 214 2.35 160 2.35 146 2.37  81 2.43 109 2.43 220 2.43 128 2.43 210 2.43
                           190 2.43
 157  0.437  0.122  0.302-  51 2.43 224 2.43 240 2.43 145 2.43 169 2.43 230 2.43 154 2.43 180 2.44
                           165 2.44 272 2.44 243 2.44 256 2.44
 158  0.313  0.540  0.127- 110 2.35  13 2.36  96 2.37  68 2.42 235 2.42 210 2.43 128 2.43 286 2.44
                           245 2.44
 159  0.062  0.706  0.831- 261 2.36  92 2.36  63 2.36 173 2.43 254 2.43 185 2.43 189 2.43 102 2.43
                           162 2.44 114 2.45  41 2.45  80 2.46
 160  0.937  0.622  0.169- 156 2.35 128 2.36 109 2.37 214 2.42 288 2.43 146 2.43  76 2.43 110 2.44
                           186 2.44  75 2.46 201 2.46 188 2.46
 161  0.938  0.790  0.742-  80 2.42   7 2.43 264 2.43 179 2.43   8 2.43 178 2.43 218 2.43  49 2.43
                           183 2.44 195 2.44 212 2.44 114 2.44
 162  0.188  0.956  0.831- 284 2.35  92 2.36  70 2.37 147 2.42 233 2.42  27 2.43 102 2.43 189 2.44
                           159 2.44  42 2.45 203 2.46  80 2.47
 163  0.563  0.373  0.521- 271 2.38 191 2.38  73 2.38  40 2.41  31 2.42 226 2.42   4 2.43 237 2.43
                           263 2.43 105 2.43 282 2.44 249 2.44
 164  0.687  0.455  0.346-  72 2.42 116 2.43 217 2.43 124 2.43 246 2.43  99 2.43 243 2.43  14 2.43
                           108 2.43 100 2.43 207 2.44  51 2.44
 165  0.313  0.205  0.346-  38 2.42 122 2.42   9 2.43 256 2.43 243 2.43  99 2.43 242 2.43  91 2.43
                            65 2.43 157 2.44 169 2.44 240 2.44
 166  0.312  0.705  0.346-  93 2.42  39 2.42 121 2.42 256 2.43 242 2.43  99 2.43  91 2.43 124 2.43
                           118 2.43  21 2.44 145 2.44 258 2.44
 167  0.312  0.706  0.698- 251 2.42 218 2.43 176 2.43 179 2.43 206 2.43 172 2.43 151 2.43  74 2.44
                           219 2.44 287 2.44  36 2.44  98 2.45
 168  0.563  0.706  0.214- 228 2.43  89 2.43 277 2.43 184 2.43 227 2.43  88 2.43  75 2.43 280 2.43
                           104 2.44  13 2.46  52 2.46 214 2.46
 169  0.312  0.372  0.302-  71 2.43 224 2.43  77 2.43  21 2.43 258 2.43 157 2.43 240 2.43  79 2.43
                            51 2.43  91 2.44 165 2.44  99 2.44
 170  0.312  0.206  0.565-  90 2.42 105 2.42  56 2.42 129 2.43 282 2.43 142 2.43  31 2.43  26 2.44
                           226 2.44 101 2.45 155 2.45  18 2.45
 171  0.063  0.372  0.654- 274 2.42 101 2.42 247 2.42  11 2.43  36 2.43  59 2.43 268 2.43 119 2.43
                            17 2.44  64 2.44 176 2.45 278 2.45
 172  0.437  0.789  0.742- 212 2.43 179 2.43 151 2.43  32 2.43 287 2.43  50 2.43 193 2.43 206 2.43
                           134 2.43 167 2.43  60 2.43  42 2.44
 173  0.813  0.706  0.831- 261 2.36  95 2.36  22 2.36 159 2.43 254 2.43 199 2.43 267 2.43 189 2.43
                           136 2.43 114 2.45 183 2.45 213 2.46
 174  0.187  0.455  0.214- 184 2.43  47 2.43 201 2.43  79 2.43  48 2.43 188 2.43  88 2.43 141 2.43
                            71 2.43 186 2.46  96 2.46 110 2.46
 175  0.687  0.956  0.565- 138 2.42  10 2.42 249 2.42 226 2.43  26 2.43  82 2.43  78 2.43 285 2.44
                           259 2.44  34 2.44 197 2.45 270 2.45
 176  0.188  0.456  0.698-  74 2.43 151 2.43 167 2.43 106 2.43 152 2.43 218 2.43 178 2.43  64 2.43
                           278 2.44  36 2.44  59 2.45 171 2.45
 177  0.438  0.289  0.873- 144 2.35  43 2.36 233 2.36 253 2.42 229 2.43 266 2.43 222 2.44 284 2.44
                           244 2.45
 178  0.062  0.539  0.742- 106 2.43  87 2.43 195 2.43 151 2.43 250 2.43 161 2.43 218 2.43 179 2.43
                           114 2.43 176 2.43 278 2.43  41 2.43
 179  0.188  0.789  0.742- 167 2.43 172 2.43  80 2.43  50 2.43 161 2.43 218 2.43 251 2.43 178 2.43
                           264 2.43 151 2.43  42 2.43  41 2.44
 180  0.562  0.872  0.302- 258 2.43 145 2.43 154 2.43  20 2.43 272 2.43 277 2.43 100 2.44 157 2.44
                           227 2.44 124 2.44 256 2.44 238 2.44
 181  0.687  0.289  0.610- 202 2.42  17 2.42  18 2.43 265 2.43 209 2.43  34 2.43 197 2.43 274 2.43
                           127 2.43 226 2.45  40 2.45 259 2.46
 182  0.687  0.456  0.698- 134 2.43 132 2.43 287 2.43  74 2.43 195 2.43 278 2.43  49 2.43 279 2.43
                            61 2.44 265 2.44 139 2.44  17 2.45
 183  0.813  0.872  0.786-  80 2.43 193 2.43 275 2.43 114 2.43 143 2.43 213 2.43 161 2.44 212 2.44
                             8 2.44 189 2.45 267 2.45 173 2.45
 184  0.313  0.705  0.214-  88 2.43 227 2.43 174 2.43  12 2.43 168 2.43 269 2.43 228 2.43  71 2.43
                           201 2.43 204 2.45  13 2.46 110 2.46
 185  0.188  0.456  0.831- 222 2.36 244 2.36  63 2.37  43 2.43 159 2.43 102 2.43 254 2.43 233 2.44
                            27 2.44 150 2.45  41 2.45 250 2.45
 186  0.064  0.371  0.169- 286 2.34 128 2.36 190 2.36  53 2.42  96 2.42 110 2.43  44 2.43 146 2.44
                           160 2.44  48 2.46 174 2.46 188 2.47
 187  0.188  0.789  0.610-  36 2.42 135 2.42 219 2.42 123 2.43 155 2.43 262 2.43  11 2.43 239 2.44
                            57 2.44 194 2.45  56 2.45 107 2.46
 188  0.937  0.456  0.214- 130 2.42 201 2.43  75 2.43 141 2.43  89 2.43 117 2.43 174 2.43 112 2.43
                            48 2.44 146 2.46 160 2.46 186 2.47
 189  0.937  0.956  0.831-  46 2.36  70 2.36 261 2.37 133 2.43 267 2.43  27 2.43 173 2.43 159 2.43
                           162 2.44 183 2.45 275 2.46  80 2.46
 190  0.937  0.289  0.127-  44 2.35 146 2.36 186 2.36 255 2.43 220 2.43  55 2.43 156 2.43 128 2.43
                           286 2.44
 191  0.563  0.206  0.479- 249 2.38 282 2.38 163 2.38  62 2.41 149 2.42 276 2.43  73 2.43 271 2.43
                           113 2.43 208 2.43  54 2.44 131 2.44
 192  0.938  0.122  0.435-   2 2.42 113 2.42 248 2.42  97 2.43  30 2.43 236 2.43 276 2.43   3 2.43
                           215 2.43 198 2.45 115 2.45 148 2.45
 193  0.563  0.872  0.786- 212 2.42 213 2.42  60 2.43 183 2.43 172 2.43  32 2.43 143 2.43  42 2.44
                           234 2.44 199 2.45 267 2.46 147 2.47
 194  0.312  0.705  0.565-  19 2.42  84 2.42   4 2.42 107 2.43 142 2.43  56 2.43  26 2.43 285 2.43
                            31 2.43 187 2.45 262 2.45 123 2.45
 195  0.812  0.539  0.742-  87 2.43 134 2.43 182 2.43 178 2.43 132 2.43 278 2.43 212 2.43 114 2.43
                           200 2.44  49 2.44 213 2.44 161 2.44
 196  0.937  0.456  0.479-   1 2.38 232 2.38 237 2.38 236 2.42   3 2.42  33 2.42 113 2.43   2 2.43
                            73 2.43  86 2.43  23 2.43  25 2.43
 197  0.813  0.039  0.610- 202 2.43 239 2.43  57 2.43 281 2.43 270 2.43 268 2.43  34 2.43 181 2.43
                           274 2.43  82 2.44 175 2.45 259 2.45
 198  0.937  0.289  0.390-  14 2.42 108 2.42  65 2.42 115 2.43 216 2.43  72 2.43 116 2.43 148 2.43
                             9 2.43   3 2.45 192 2.45 236 2.45
 199  0.563  0.706  0.831-  95 2.36  24 2.37 229 2.37 267 2.43 173 2.43  43 2.43 136 2.43 102 2.43
                           147 2.44 213 2.44 193 2.45  60 2.45
 200  0.812  0.372  0.787- 114 2.43 275 2.43   5 2.43 143 2.43 213 2.43 250 2.43 195 2.44  87 2.44
                           132 2.44 254 2.45 136 2.45 133 2.46
 201  0.062  0.705  0.214- 188 2.43  75 2.43 211 2.43 269 2.43 225 2.43 174 2.43  12 2.43 141 2.43
                           184 2.43  76 2.46 160 2.46 110 2.47
 202  0.688  0.122  0.654- 181 2.42 197 2.43  17 2.43  34 2.43 153 2.43 268 2.43 281 2.43 265 2.43
                            58 2.43  61 2.45  66 2.45 279 2.45
 203  0.188  0.123  0.786- 264 2.43 234 2.43 250 2.43  50 2.43 106 2.43  42 2.43 275 2.43 150 2.44
                            80 2.44 162 2.46 233 2.46  27 2.46
 204  0.313  0.871  0.169- 235 2.36  68 2.36  28 2.36  13 2.43 110 2.43  52 2.43  76 2.43  85 2.44
                            53 2.44 184 2.45 228 2.46 269 2.46
 205  0.937  0.456  0.565- 237 2.42   1 2.42 232 2.42 259 2.43  40 2.43  78 2.43 129 2.43 107 2.43
                           142 2.43 127 2.45  11 2.45 274 2.45
 206  0.437  0.956  0.698- 251 2.42 279 2.43 152 2.43  50 2.43  66 2.43 287 2.43 167 2.43  32 2.43
                           172 2.43 219 2.44 153 2.44  58 2.44
 207  0.813  0.372  0.302- 100 2.43  37 2.43  83 2.43 130 2.43  77 2.43  51 2.43 112 2.43 154 2.43
                           164 2.44 108 2.44 283 2.44  14 2.44
 208  0.687  0.955  0.479- 249 2.38 138 2.38  10 2.38 215 2.42 252 2.42 276 2.42  86 2.43 248 2.43
                           103 2.43  54 2.43 191 2.43 113 2.43
 209  0.563  0.539  0.610-  98 2.42 123 2.43 139 2.43 270 2.43 262 2.43 181 2.43 127 2.43 265 2.43
                            18 2.43 285 2.45  31 2.45  40 2.45
 210  0.562  0.538  0.127- 231 2.36  13 2.36 214 2.36 220 2.42 245 2.43 158 2.43 156 2.43  81 2.44
                           235 2.44
 211  0.938  0.789  0.258- 225 2.43 273 2.43 201 2.43  12 2.43 141 2.43  75 2.43  69 2.43  83 2.43
                           277 2.43  16 2.43 130 2.43  20 2.44
 212  0.687  0.789  0.742- 193 2.42 172 2.43 287 2.43 134 2.43  32 2.43 195 2.43  66 2.43   8 2.44
                           183 2.44 213 2.44 161 2.44  49 2.44
 213  0.687  0.622  0.787- 193 2.42  60 2.43   5 2.43 200 2.43 183 2.43 114 2.44 212 2.44 195 2.44
                           134 2.44 199 2.44 136 2.45 173 2.46
 214  0.688  0.623  0.169- 156 2.35 210 2.36  81 2.36 160 2.42 288 2.43 146 2.43  52 2.43  13 2.44
                           231 2.44  75 2.46  89 2.46 168 2.46
 215  0.813  0.872  0.435-  86 2.42 208 2.42 248 2.42 276 2.43  30 2.43 252 2.43 137 2.43  33 2.43
                           192 2.43 115 2.45 125 2.45 241 2.45
 216  0.062  0.539  0.390-  14 2.42  91 2.42 118 2.42 198 2.43 116 2.43   9 2.43  93 2.43  39 2.43
                           241 2.43  33 2.45 236 2.45  35 2.45
 217  0.563  0.539  0.390-  99 2.42 124 2.42 164 2.43  72 2.43 116 2.43  39 2.43 122 2.43 121 2.43
                           125 2.43 149 2.44 137 2.45  67 2.45
 218  0.062  0.706  0.698- 167 2.43  49 2.43 278 2.43 176 2.43   7 2.43 179 2.43 178 2.43 161 2.43
                           251 2.44 135 2.44  36 2.44 119 2.45
 219  0.312  0.873  0.654- 187 2.42 135 2.43 155 2.43 123 2.43 251 2.43 247 2.43 153 2.43  36 2.43
                            98 2.43  58 2.43 167 2.44 206 2.44
 220  0.687  0.290  0.127- 231 2.36 146 2.36 221 2.36 210 2.42 245 2.42 156 2.43 190 2.43  94 2.44
                            55 2.45
 221  0.687  0.122  0.169-  94 2.36 220 2.36  55 2.37  52 2.42 288 2.43 146 2.43  85 2.44 231 2.44
                            44 2.44 280 2.46 117 2.46  29 2.46
 222  0.313  0.539  0.873-  43 2.36 102 2.36 185 2.36  92 2.42  24 2.42 229 2.43 244 2.43  63 2.43
                           177 2.44
 223  0.562  0.039  0.390- 243 2.42 238 2.42 256 2.43  38 2.43 122 2.43 125 2.43 121 2.43  72 2.43
                           115 2.43 252 2.45 276 2.45  62 2.46
 224  0.437  0.288  0.258-  79 2.43 230 2.43 169 2.43 157 2.43  71 2.43 104 2.43  51 2.43  88 2.43
                            47 2.43  29 2.43 272 2.43 283 2.44
 225  0.938  0.955  0.214- 269 2.43 211 2.43  48 2.43  69 2.43 201 2.43 273 2.43  75 2.43 117 2.44
                           280 2.44  76 2.46  44 2.47 288 2.49
 226  0.563  0.205  0.565- 163 2.42 249 2.43 282 2.43 175 2.43  31 2.43 259 2.43  40 2.43  26 2.43
                           170 2.44  34 2.44 181 2.45  18 2.45
 227  0.437  0.789  0.258-  12 2.43  71 2.43 184 2.43 228 2.43 230 2.43 168 2.43 145 2.43 258 2.43
                           272 2.43 104 2.43 180 2.44 277 2.44
 228  0.437  0.955  0.214- 280 2.43 168 2.43 227 2.43 272 2.43 269 2.43  47 2.43 184 2.43 230 2.43
                            29 2.44 204 2.46  52 2.46  85 2.47
 229  0.563  0.539  0.873- 136 2.36  43 2.36 199 2.37 253 2.43 177 2.43  24 2.43  95 2.43 222 2.43
                            22 2.43
 230  0.313  0.039  0.258- 224 2.43 145 2.43 227 2.43 240 2.43 272 2.43  12 2.43 157 2.43  79 2.43
                            69 2.43 228 2.43 269 2.43  47 2.44
 231  0.562  0.372  0.169- 210 2.36 220 2.36 245 2.36  13 2.43 146 2.43  85 2.43  96 2.43 214 2.44
                           221 2.44  89 2.46  29 2.46  88 2.46
 232  0.063  0.372  0.521-  23 2.38   2 2.38 196 2.38 142 2.42 129 2.42 205 2.42  84 2.43 105 2.43
                             1 2.43 140 2.43  90 2.43 237 2.44
 233  0.312  0.205  0.831- 284 2.34 244 2.36 177 2.36 162 2.42 147 2.42 144 2.43  27 2.43 185 2.44
                            43 2.44 203 2.46 234 2.46 150 2.47
 234  0.438  0.123  0.786- 143 2.43 203 2.43  32 2.43   5 2.43  50 2.43 120 2.43  42 2.43 193 2.44
                           150 2.44 147 2.45 144 2.46 233 2.46
 235  0.437  0.789  0.127- 204 2.36  13 2.36  52 2.37  68 2.42 158 2.42  28 2.42  94 2.43 210 2.44
                            81 2.44
 236  0.062  0.373  0.435- 196 2.42  23 2.42   2 2.42  33 2.43   3 2.43  35 2.43 192 2.43 257 2.43
                            97 2.43 216 2.45   9 2.45 198 2.45
 237  0.812  0.372  0.521- 196 2.38  73 2.38 113 2.38 259 2.41  40 2.41 205 2.42 263 2.43 163 2.43
                             1 2.43 249 2.43 232 2.44 140 2.44
 238  0.687  0.955  0.346- 125 2.42 115 2.42 223 2.42 124 2.43 246 2.43 108 2.43 243 2.43 256 2.43
                            45 2.43  20 2.44 154 2.44 180 2.44
 239  0.938  0.790  0.610- 281 2.43 197 2.43  57 2.43 135 2.43 119 2.43 127 2.43 270 2.43 187 2.44
                            11 2.44  82 2.44  78 2.45 107 2.45
 240  0.187  0.122  0.302-  37 2.43 157 2.43  79 2.43 230 2.43  69 2.43  16 2.43  77 2.43 169 2.43
                           145 2.43  65 2.44 165 2.44 242 2.44
 241  0.938  0.789  0.390-  45 2.42 118 2.42 246 2.42 148 2.43  93 2.43 115 2.43 116 2.43 216 2.43
                           125 2.43  30 2.45  33 2.45 215 2.45
 242  0.187  0.955  0.346-  38 2.42 148 2.42  93 2.42 256 2.43  45 2.43 166 2.43 118 2.43 165 2.43
                            65 2.43  16 2.44 145 2.44 240 2.44
 243  0.563  0.205  0.346- 122 2.42  72 2.42 223 2.42 108 2.43 165 2.43 164 2.43 238 2.43  99 2.43
                           256 2.43  51 2.44 157 2.44 154 2.44
 244  0.187  0.289  0.873-  27 2.35 233 2.36 185 2.36 111 2.42  63 2.43  70 2.43 222 2.43 284 2.44
                           177 2.45
 245  0.438  0.288  0.127-  85 2.35 231 2.36  96 2.37 220 2.42  28 2.43  94 2.43 210 2.43 286 2.44
                           158 2.44
 246  0.813  0.705  0.346- 116 2.42 241 2.42 125 2.42 238 2.43 118 2.43  14 2.43  45 2.43 164 2.43
                           124 2.43  20 2.44 100 2.44  83 2.44
 247  0.187  0.123  0.654- 101 2.42  57 2.42 171 2.42 268 2.43 155 2.43  59 2.43 219 2.43 135 2.43
                            58 2.43 152 2.44 251 2.44  64 2.44
 248  0.937  0.956  0.479- 140 2.38  15 2.38  10 2.38 215 2.42 192 2.42  30 2.42  86 2.43 113 2.43
                           208 2.43   2 2.43  25 2.43 260 2.43
 249  0.688  0.122  0.521- 208 2.38 191 2.38 113 2.38 259 2.42 175 2.42 226 2.43  10 2.43 138 2.43
                           140 2.43 237 2.43 282 2.44 163 2.44
 250  0.063  0.373  0.786- 150 2.43 114 2.43 106 2.43 203 2.43 178 2.43  87 2.43 200 2.43  41 2.43
                           275 2.44 254 2.45 185 2.45  27 2.47
 251  0.188  0.956  0.698- 206 2.42 167 2.42 152 2.42 219 2.43 179 2.43  50 2.43 218 2.44  64 2.44
                             7 2.44 135 2.44 264 2.44 247 2.44
 252  0.563  0.872  0.435- 208 2.42  54 2.42 103 2.42 137 2.43 215 2.43  67 2.43 276 2.43 126 2.43
                            62 2.44 125 2.44 121 2.45 223 2.45
 253  0.687  0.290  0.874- 136 2.36 144 2.36 133 2.37 177 2.42 229 2.43 266 2.43  22 2.43  46 2.44
                           111 2.44
 254  0.937  0.456  0.831-  22 2.36  63 2.37 111 2.37 159 2.43 173 2.43 136 2.43 133 2.43 185 2.43
                            27 2.44 200 2.45 114 2.45 250 2.45
 255  0.062  0.039  0.127-  44 2.34  76 2.36  53 2.37  55 2.42 190 2.43 109 2.43 286 2.43  68 2.44
                            28 2.45
 256  0.437  0.955  0.346-  38 2.42 121 2.42 223 2.43 242 2.43 166 2.43 165 2.43 124 2.43 243 2.43
                           238 2.43 145 2.44 157 2.44 180 2.44
 257  0.313  0.373  0.435-  23 2.42 271 2.42 131 2.43  67 2.43 149 2.43  35 2.43  62 2.43 236 2.43
                            97 2.44  39 2.44   9 2.45 122 2.45
 258  0.438  0.622  0.302-  71 2.43 180 2.43 169 2.43 100 2.43 104 2.43  21 2.43 227 2.43  51 2.43
                           145 2.43 166 2.44 124 2.44  99 2.44
 259  0.813  0.206  0.565- 237 2.41 140 2.41 249 2.42 205 2.43  40 2.43 129 2.43  82 2.43 226 2.43
                           175 2.44 197 2.45 181 2.46 274 2.46
 260  0.188  0.956  0.479-  90 2.38  15 2.38  19 2.38  97 2.42  30 2.42 126 2.42  54 2.43 131 2.43
                             6 2.43   2 2.43  25 2.43 248 2.43
 261  0.938  0.788  0.873- 173 2.36 159 2.36 189 2.37  63 2.42  22 2.42  92 2.43  95 2.44  46 2.44
                            70 2.44
 262  0.313  0.539  0.610-  36 2.42  59 2.42  98 2.43 123 2.43 187 2.43 209 2.43  11 2.43 101 2.43
                            18 2.43  31 2.45 194 2.45 142 2.45
 263  0.688  0.622  0.521- 103 2.38  86 2.38  73 2.38  40 2.42  78 2.42 285 2.42 237 2.43   1 2.43
                            10 2.43 163 2.43 138 2.43   4 2.44
 264  0.063  0.040  0.742- 275 2.42 106 2.43  80 2.43 203 2.43  87 2.43 161 2.43  50 2.43 179 2.43
                             8 2.43  64 2.44   7 2.44 251 2.44
 265  0.562  0.372  0.654-  59 2.43  58 2.43  18 2.43  17 2.43  98 2.43 181 2.43 202 2.43 209 2.43
                           139 2.44 279 2.44  74 2.44 182 2.44
 266  0.563  0.040  0.873- 144 2.36 267 2.36 147 2.36 253 2.43  46 2.43 177 2.43  95 2.43 284 2.44
                            24 2.44
 267  0.688  0.956  0.831-  95 2.36 266 2.36  46 2.36 189 2.43 199 2.43 133 2.43 173 2.43 144 2.44
                           147 2.44 183 2.45 143 2.46 193 2.46
 268  0.938  0.122  0.654-  57 2.42 274 2.42 247 2.43 197 2.43 171 2.43 202 2.43 135 2.43  17 2.43
                           281 2.44  61 2.44  64 2.44   7 2.44
 269  0.187  0.955  0.214-  12 2.42 225 2.43 201 2.43  69 2.43 228 2.43 184 2.43 230 2.43  48 2.44
                            47 2.44  76 2.46 204 2.46  53 2.47
 270  0.687  0.789  0.610- 281 2.42  34 2.43 139 2.43 153 2.43 209 2.43 123 2.43 197 2.43 127 2.43
                           239 2.43 175 2.45 285 2.45  78 2.46
 271  0.438  0.455  0.479- 105 2.38 163 2.38   4 2.38 149 2.42  67 2.42 257 2.42 191 2.43 131 2.43
                            73 2.43  23 2.43 103 2.43   6 2.44
 272  0.562  0.038  0.258- 280 2.41 283 2.43 230 2.43 228 2.43 154 2.43  29 2.43 227 2.43 180 2.43
                           277 2.43 273 2.43 224 2.43 157 2.44
 273  0.813  0.038  0.258- 280 2.42 211 2.43  69 2.43 283 2.43  20 2.43 225 2.43 277 2.43 154 2.43
                           272 2.43 112 2.44  37 2.44 117 2.44
 274  0.938  0.289  0.610-  17 2.42 171 2.42 268 2.42  11 2.43 127 2.43  57 2.43 101 2.43 197 2.43
                           181 2.43 205 2.45 129 2.46 259 2.46
 275  0.937  0.122  0.786- 264 2.42   8 2.42  87 2.43 183 2.43 200 2.43  80 2.43 143 2.43 203 2.43
                           250 2.44 189 2.46 133 2.47  27 2.47
 276  0.688  0.122  0.435- 208 2.42 113 2.42 191 2.43 215 2.43 192 2.43   3 2.43 252 2.43  62 2.44
                           149 2.44 115 2.44 223 2.45  72 2.45
 277  0.688  0.788  0.258- 280 2.43 168 2.43  75 2.43 273 2.43 130 2.43  20 2.43 211 2.43 272 2.43
                           104 2.43 180 2.43 100 2.44 227 2.44
 278  0.937  0.456  0.698-  49 2.43 218 2.43 195 2.43  61 2.43  64 2.43  87 2.43 178 2.43 182 2.43
                           176 2.44 119 2.44  17 2.45 171 2.45
 279  0.562  0.206  0.698- 206 2.43 120 2.43  66 2.43 132 2.43  32 2.43  74 2.43 182 2.43 152 2.44
                           265 2.44  61 2.44  58 2.44 202 2.45
 280  0.687  0.957  0.214- 272 2.41  29 2.42 273 2.42 228 2.43 117 2.43 277 2.43 168 2.43 225 2.44
                            75 2.45 221 2.46  52 2.47 288 2.51
 281  0.812  0.872  0.654- 270 2.42 239 2.43 139 2.43 197 2.43 153 2.43 202 2.43 119 2.43 135 2.44
                           268 2.44  49 2.44   7 2.44  66 2.44
 282  0.437  0.122  0.521- 131 2.38 191 2.38  54 2.38  26 2.42 226 2.43 170 2.43 138 2.43  19 2.43
                           105 2.43  90 2.43 249 2.44 163 2.44
 283  0.688  0.288  0.258-  29 2.42 117 2.42 272 2.43  89 2.43 273 2.43 130 2.44 104 2.44 112 2.44
                           224 2.44 154 2.44 207 2.44  51 2.44
 284  0.313  0.039  0.873- 147 2.34 233 2.34 162 2.35  24 2.43 266 2.44  92 2.44 177 2.44 244 2.44
                            70 2.44
 285  0.562  0.705  0.565-   4 2.42 138 2.42 263 2.42  40 2.43  31 2.43  26 2.43 194 2.43 175 2.44
                            78 2.44 209 2.45 123 2.45 270 2.45
 286  0.188  0.289  0.127- 186 2.34  53 2.35  96 2.35 128 2.43  28 2.43 255 2.43 245 2.44 190 2.44
                           158 2.44
 287  0.563  0.706  0.698-  66 2.42 212 2.43 182 2.43 172 2.43 206 2.43  49 2.43 134 2.43 153 2.44
                            74 2.44 167 2.44 139 2.44  98 2.45
 288  0.813  0.872  0.168- 109 2.33  81 2.34  55 2.34 160 2.43 214 2.43  76 2.43  44 2.43 221 2.43
                            52 2.44  75 2.49 225 2.49 280 2.51
 
  LATTYP: Found a simple orthorhombic cell.
 ALAT       =     8.4235500000
 B/A-ratio  =     1.1547005716
 C/A-ratio  =     5.3421657140
  
  Lattice vectors:
  
 A1 = (   0.0000000000,  -8.4235500000,   0.0000000000)
 A2 = (  -9.7266780000,   0.0000000000,   0.0000000000)
 A3 = (   0.0000000000,   0.0000000000, -45.0000000000)


Analysis of symmetry for initial positions (statically):
=====================================================================
 Subroutine PRICEL returns:
 Original cell was already a primitive cell.
 

 Routine SETGRP: Setting up the symmetry group for a 
 simple orthorhombic supercell.


 Subroutine GETGRP returns: Found  1 space group operations
 (whereof  1 operations were pure point group operations)
 out of a pool of  8 trial point group operations.


The static configuration has the point symmetry C_1 .


Analysis of symmetry for dynamics (positions and initial velocities):
=====================================================================
 Subroutine PRICEL returns:
 Original cell was already a primitive cell.
 

 Routine SETGRP: Setting up the symmetry group for a 
 simple orthorhombic supercell.


 Subroutine GETGRP returns: Found  1 space group operations
 (whereof  1 operations were pure point group operations)
 out of a pool of  8 trial point group operations.


The dynamic configuration has the point symmetry C_1 .


 Subroutine INISYM returns: Found  1 space group operations
 (whereof  1 operations are pure point group operations),
 and found     1 'primitive' translations

 
 
 KPOINTS: Automatic mesh                          

Automatic generation of k-mesh.
Space group operators:
 irot       det(A)        alpha          n_x          n_y          n_z        tau_x        tau_y        tau_z
    1     1.000000     0.000001     1.000000     0.000000     0.000000     0.000000     0.000000     0.000000
 
 Subroutine IBZKPT returns following result:
 ===========================================
 
 Found     10 irreducible k-points:
 
 Following reciprocal coordinates:
            Coordinates               Weight
  0.000000  0.000000  0.000000      1.000000
  0.250000  0.000000  0.000000      2.000000
  0.500000  0.000000  0.000000      1.000000
  0.000000  0.250000  0.000000      2.000000
  0.250000  0.250000  0.000000      2.000000
  0.500000  0.250000  0.000000      2.000000
 -0.250000  0.250000  0.000000      2.000000
  0.000000  0.500000  0.000000      1.000000
  0.250000  0.500000  0.000000      2.000000
  0.500000  0.500000  0.000000      1.000000
 
 Following cartesian coordinates:
            Coordinates               Weight
  0.000000  0.000000  0.000000      1.000000
  0.025703  0.000000  0.000000      2.000000
  0.051405  0.000000  0.000000      1.000000
  0.000000  0.029679  0.000000      2.000000
  0.025703  0.029679  0.000000      2.000000
  0.051405  0.029679  0.000000      2.000000
 -0.025703  0.029679  0.000000      2.000000
  0.000000  0.059357  0.000000      1.000000
  0.025703  0.059357  0.000000      2.000000
  0.051405  0.059357  0.000000      1.000000
 


--------------------------------------------------------------------------------------------------------




 Dimension of arrays:
   k-points           NKPTS =     10   k-points in BZ     NKDIM =     10   number of bands    NBANDS=   1380
   number of dos      NEDOS =    301   number of ions     NIONS =    288
   non local maximal  LDIM  =      7   non local SUM 2l+1 LMDIM =     25
   total plane-waves  NPLWV = ******
   max r-space proj   IRMAX =   6210   max aug-charges    IRDMAX=  15157
   dimension x,y,z NGX =    72 NGY =   64 NGZ =  336
   dimension x,y,z NGXF=   144 NGYF=  128 NGZF=  672
   support grid    NGXF=   144 NGYF=  128 NGZF=  672
   ions per type =             273  15
   NGX,Y,Z   is equivalent  to a cutoff of  12.31, 12.63, 12.41 a.u.
   NGXF,Y,Z  is equivalent  to a cutoff of  24.61, 25.26, 24.83 a.u.

 SYSTEM =  unknown system                          
 POSCAR =  FeMn_288_15                             

 Startparameter for this run:
   NWRITE =      2    write-flag & timer
   PREC   = accura    normal or accurate (medium, high low for compatibility)
   ISTART =      0    job   : 0-new  1-cont  2-samecut
   ICHARG =      2    charge: 1-file 2-atom 10-const
   ISPIN  =      1    spin polarized calculation?
   LNONCOLLINEAR =      F non collinear calculations
   LSORBIT =      F    spin-orbit coupling
   INIWAV =      1    electr: 0-lowe 1-rand  2-diag
   LASPH  =      F    aspherical Exc in radial PAW
   METAGGA=      F    non-selfconsistent MetaGGA calc.

 Electronic Relaxation 1
   ENCUT  =  500.0 eV  36.75 Ry    6.06 a.u.  17.73 15.36 82.05*2*pi/ulx,y,z
   ENINI  =  500.0     initial cutoff
   ENAUG  =  838.4 eV  augmentation charge cutoff
   NELM   =    100;   NELMIN=  4; NELMDL=  0     # of ELM steps 
   EDIFF  = 0.1E-04   stopping-criterion for ELM
   LREAL  =      T    real-space projection
   NLSPLINE    = F    spline interpolate recip. space projectors
   LCOMPAT=      F    compatible to vasp.4.4
   GGA_COMPAT  = T    GGA compatible to vasp.4.4-vasp.4.6
   LMAXPAW     = -100 max onsite density
   LMAXMIX     =    2 max onsite mixed and CHGCAR
   VOSKOWN=      0    Vosko Wilk Nusair interpolation
   ROPT   =   -0.00025  -0.00025
 Ionic relaxation
   EDIFFG = 0.1E-03   stopping-criterion for IOM
   NSW    =    500    number of steps for IOM
   NBLOCK =      1;   KBLOCK =    500    inner block; outer block 
   IBRION =      2    ionic relax: 0-MD 1-quasi-New 2-CG
   NFREE  =      1    steps in history (QN), initial steepest desc. (CG)
   ISIF   =      2    stress and relaxation
   IWAVPR =     11    prediction:  0-non 1-charg 2-wave 3-comb
   ISYM   =      2    0-nonsym 1-usesym 2-fastsym
   LCORR  =      T    Harris-Foulkes like correction to forces

   POTIM  = 0.2500    time-step for ionic-motion
   TEIN   =    0.0    initial temperature
   TEBEG  =    0.0;   TEEND  =   0.0 temperature during run
   SMASS  =  -3.00    Nose mass-parameter (am)
   estimated Nose-frequenzy (Omega)   =  0.10E-29 period in steps =****** mass=  -0.216E-26a.u.
   SCALEE = 1.0000    scale energy and forces
   NPACO  =    256;   APACO  = 16.0  distance and # of slots for P.C.
   PSTRESS=    0.0 pullay stress

  Mass of Ions in am
   POMASS =  55.85 54.94
  Ionic Valenz
   ZVAL   =   8.00  7.00
  Atomic Wigner-Seitz radii
   RWIGS  =  -1.00 -1.00
  virtual crystal weights 
   VCA    =   1.00  1.00
   NELECT =    2289.0000    total number of electrons
   NUPDOWN=      -1.0000    fix difference up-down

 DOS related values:
   EMIN   =  10.00;   EMAX   =-10.00  energy-range for DOS
   EFERMI =   0.00
   ISMEAR =     0;   SIGMA  =   0.15  broadening in eV -4-tet -1-fermi 0-gaus

 Electronic relaxation 2 (details)
   IALGO  =     68    algorithm
   LDIAG  =      T    sub-space diagonalisation (order eigenvalues)
   LSUBROT=      F    optimize rotation matrix (better conditioning)
   TURBO    =      0    0=normal 1=particle mesh
   IRESTART =      0    0=no restart 2=restart with 2 vectors
   NREBOOT  =      0    no. of reboots
   NMIN     =      0    reboot dimension
   EREF     =   0.00    reference energy to select bands
   IMIX   =      4    mixing-type and parameters
     AMIX     =   0.40;   BMIX     =  1.00
     AMIX_MAG =   1.60;   BMIX_MAG =  1.00
     AMIN     =   0.10
     WC   =   100.;   INIMIX=   1;  MIXPRE=   1;  MAXMIX= -45

 Intra band minimization:
   WEIMIN = 0.0010     energy-eigenvalue tresh-hold
   EBREAK =  0.18E-08  absolut break condition
   DEPER  =   0.30     relativ break condition  

   TIME   =   0.40     timestep for ELM

  volume/ion in A,a.u.               =      12.80        86.39
  Fermi-wavevector in a.u.,A,eV,Ry     =   1.396581  2.639155 26.537314  1.950438
  Thomas-Fermi vector in A             =   2.519921
 
 Write flags
   LWAVE        =      F    write WAVECAR
   LDOWNSAMPLE  =      F    k-point downsampling of WAVECAR
   LCHARG       =      F    write CHGCAR
   LVTOT        =      F    write LOCPOT, total local potential
   LVHAR        =      F    write LOCPOT, Hartree potential only
   LELF         =      F    write electronic localiz. function (ELF)
   LORBIT       =      0    0 simple, 1 ext, 2 COOP (PROOUT), +10 PAW based schemes


 Dipole corrections
   LMONO  =      F    monopole corrections only (constant potential shift)
   LDIPOL =      F    correct potential (dipole corrections)
   IDIPOL =      0    1-x, 2-y, 3-z, 4-all directions 
   EPSILON=  1.0000000 bulk dielectric constant

 Exchange correlation treatment:
   GGA     =    --    GGA type
   LEXCH   =     8    internal setting for exchange type
   VOSKOWN=      0    Vosko Wilk Nusair interpolation
   LHFCALC =     F    Hartree Fock is set to
   LHFONE  =     F    Hartree Fock one center treatment
   AEXX    =    0.0000 exact exchange contribution

 Linear response parameters
   LEPSILON=     F    determine dielectric tensor
   LRPA    =     F    only Hartree local field effects (RPA)
   LNABLA  =     F    use nabla operator in PAW spheres
   LVEL    =     F    velocity operator in full k-point grid
   LINTERFAST=   F  fast interpolation
   KINTER  =     0    interpolate to denser k-point grid
   CSHIFT  =0.1000    complex shift for real part using Kramers Kronig
   OMEGAMAX=  -1.0    maximum frequency
   DEG_THRESHOLD= 0.2000000E-02 threshold for treating states as degnerate
   RTIME   =   -0.100 relaxation time in fs
  (WPLASMAI=    0.000 imaginary part of plasma frequency in eV, 0.658/RTIME)
   DFIELD  = 0.0000000 0.0000000 0.0000000 field for delta impulse in time
 
 Orbital magnetization related:
   ORBITALMAG=     F  switch on orbital magnetization
   LCHIMAG   =     F  perturbation theory with respect to B field
   DQ        =  0.001000  dq finite difference perturbation B field
   LLRAUG    =     F  two centre corrections for induced B field



--------------------------------------------------------------------------------------------------------


 conjugate gradient relaxation of ions
 charge density and potential will be updated during run
 non-spin polarized calculation
 RMM-DIIS sequential band-by-band and
  variant of blocked Davidson during initial phase
 perform sub-space diagonalisation
    before iterative eigenvector-optimisation
 modified Broyden-mixing scheme, WC =      100.0
 initial mixing is a Kerker type mixing with AMIX =  0.4000 and BMIX =      1.0000
 Hartree-type preconditioning will be used
 using additional bands           235
 real space projection scheme for non local part
 use partial core corrections
 calculate Harris-corrections to forces 
   (improved forces if not selfconsistent)
 use gradient corrections 
 use of overlap-Matrix (Vanderbilt PP)
 Gauss-broadening in eV      SIGMA  =   0.15


--------------------------------------------------------------------------------------------------------


  energy-cutoff  :      500.00
  volume of cell :     3686.99
      direct lattice vectors                 reciprocal lattice vectors
     9.726678000  0.000000000  0.000000000     0.102810024  0.000000000  0.000000000
     0.000000000  8.423550000  0.000000000     0.000000000  0.118714794  0.000000000
     0.000000000  0.000000000 45.000000000     0.000000000  0.000000000  0.022222222

  length of vectors
     9.726678000  8.423550000 45.000000000     0.102810024  0.118714794  0.022222222


 
 k-points in units of 2pi/SCALE and weight: Automatic mesh                          
   0.00000000  0.00000000  0.00000000       0.063
   0.02570251  0.00000000  0.00000000       0.125
   0.05140501  0.00000000  0.00000000       0.063
   0.00000000  0.02967870  0.00000000       0.125
   0.02570251  0.02967870  0.00000000       0.125
   0.05140501  0.02967870  0.00000000       0.125
  -0.02570251  0.02967870  0.00000000       0.125
   0.00000000  0.05935740  0.00000000       0.063
   0.02570251  0.05935740  0.00000000       0.125
   0.05140501  0.05935740  0.00000000       0.063
 
 k-points in reciprocal lattice and weights: Automatic mesh                          
   0.00000000  0.00000000  0.00000000       0.063
   0.25000000  0.00000000  0.00000000       0.125
   0.50000000  0.00000000  0.00000000       0.063
   0.00000000  0.25000000  0.00000000       0.125
   0.25000000  0.25000000  0.00000000       0.125
   0.50000000  0.25000000  0.00000000       0.125
  -0.25000000  0.25000000  0.00000000       0.125
   0.00000000  0.50000000  0.00000000       0.063
   0.25000000  0.50000000  0.00000000       0.125
   0.50000000  0.50000000  0.00000000       0.063
 
 position of ions in fractional coordinates (direct lattice) 
   0.93753471  0.62237809  0.52124172
   0.06256998  0.20562958  0.47858836
   0.81257364  0.37235012  0.43481661
   0.43734071  0.62215616  0.52133771
   0.56242786  0.37259285  0.78648397
   0.31234410  0.70571735  0.47855564
   0.93721200  0.95544965  0.69816268
   0.81246056  0.03941205  0.74231438
   0.18754511  0.28878375  0.39026570
   0.81238545  0.87215620  0.52137185
   0.06248999  0.53886311  0.60967335
   0.18753271  0.78869725  0.25770100
   0.43762017  0.62165964  0.16883007
   0.93750815  0.45552030  0.34635860
   0.06269668  0.87224698  0.52129423
   0.06246701  0.87225486  0.30194662
   0.81211529  0.37222364  0.65364895
   0.43762266  0.28878959  0.60969444
   0.31229532  0.87213510  0.52135583
   0.81251652  0.87182530  0.30194662
   0.18747991  0.62210186  0.30194353
   0.81267271  0.53934599  0.87338931
   0.18755343  0.45551636  0.47857755
   0.43744687  0.78846794  0.87336524
   0.06252113  0.70577222  0.47857407
   0.43743251  0.95536127  0.56506245
   0.06275485  0.20540734  0.83140522
   0.31361057  0.03874787  0.12674220
   0.56240649  0.20578969  0.21371335
   0.06240213  0.87220326  0.43482031
   0.43736302  0.45519511  0.56510916
   0.56222981  0.03913832  0.74229280
   0.93775582  0.62230779  0.43480575
   0.56259146  0.03879875  0.60960559
   0.18749098  0.62235926  0.43485505
   0.18747300  0.62198171  0.65366297
   0.93766665  0.12230729  0.30199847
   0.31263584  0.03881051  0.39014156
   0.31252419  0.53868292  0.39018243
   0.68779615  0.45563441  0.56502873
   0.18772999  0.62298962  0.78646529
   0.31228780  0.87240059  0.78645734
   0.43741870  0.45616554  0.83123161
   0.93827143  0.12137078  0.16861039
   0.93774933  0.95526359  0.34631605
   0.81272061  0.03917273  0.87345902
   0.31250938  0.20536003  0.21361014
   0.06234984  0.20523155  0.21364154
   0.81292800  0.70590682  0.69808019
   0.31257818  0.03935837  0.74226770
   0.56239299  0.37178324  0.30193467
   0.56268992  0.87262318  0.16877682
   0.18763759  0.12287129  0.16884366
   0.43742608  0.95527193  0.47859528
   0.81273967  0.03802883  0.12636930
   0.18801882  0.95588652  0.56516911
   0.06237273  0.03917015  0.60978644
   0.43752083  0.12273352  0.65364277
   0.31273662  0.37246798  0.65368806
   0.43753946  0.62267402  0.78646201
   0.81305669  0.20562930  0.69807999
   0.43721640  0.12233421  0.43505003
   0.06220810  0.53924759  0.87343317
   0.06249541  0.20610787  0.69810043
   0.06232891  0.20542509  0.34627987
   0.68727157  0.95562280  0.69810089
   0.43717550  0.62231751  0.43484971
   0.18823059  0.78861592  0.12667868
   0.06244061  0.03870170  0.25782135
   0.06171073  0.03991797  0.87343257
   0.31240805  0.53867382  0.25785512
   0.68741426  0.28895570  0.39019998
   0.68742235  0.45526021  0.47849436
   0.43723375  0.45580700  0.69819879
   0.81269071  0.70539300  0.21367108
   0.06263335  0.87165967  0.16886502
   0.06256835  0.37223600  0.30191707
   0.81293069  0.70574732  0.56507004
   0.18745333  0.28863938  0.25780009
   0.06211050  0.87212743  0.78625850
   0.68785356  0.78868164  0.12647103
   0.93729524  0.95582017  0.56514633
   0.93741260  0.62193421  0.30189962
   0.18723340  0.62226320  0.52132086
   0.43692370  0.12233975  0.16867899
   0.81267674  0.70581908  0.47857320
   0.93756243  0.28935557  0.74228014
   0.43758752  0.45576547  0.21379329
   0.68743577  0.45600196  0.21366506
   0.18715485  0.12186230  0.52133462
   0.18745367  0.45551114  0.34631642
   0.18755874  0.78827665  0.87331938
   0.18749481  0.78879693  0.39019006
   0.56250569  0.03838645  0.12655055
   0.68728548  0.78881305  0.87331038
   0.31205482  0.37139462  0.16885782
   0.18738264  0.12223524  0.43475366
   0.43754010  0.62239396  0.65366144
   0.43745925  0.45552491  0.34635917
   0.68746483  0.62136042  0.30201728
   0.18767554  0.28879858  0.60971690
   0.31243926  0.70650392  0.83128934
   0.56245983  0.70555734  0.47865585
   0.56213092  0.53822660  0.25775590
   0.31266488  0.37248827  0.52134324
   0.18720230  0.28935750  0.74226792
   0.06263010  0.70564114  0.56504393
   0.81244468  0.20533348  0.34633720
   0.93711681  0.78892244  0.12643413
   0.18760379  0.62114184  0.16868393
   0.93770938  0.28911781  0.87351112
   0.93807221  0.28841945  0.25783621
   0.81265180  0.20571512  0.47855067
   0.93748611  0.62227788  0.78649159
   0.81255166  0.03895720  0.39023622
   0.81244862  0.53901233  0.39023668
   0.81250886  0.20556381  0.21368325
   0.06246405  0.70548362  0.34631970
   0.93760840  0.62197073  0.65361577
   0.43753363  0.28901903  0.74223747
   0.43736590  0.78901482  0.39023070
   0.43754085  0.28869880  0.39019491
   0.43730039  0.78853162  0.60979049
   0.56244477  0.70546339  0.34632763
   0.68742421  0.78918018  0.39021968
   0.31240725  0.87200749  0.43472819
   0.81260878  0.53921557  0.60970070
   0.06264150  0.53875415  0.12674568
   0.06257327  0.20581235  0.56504530
   0.81285682  0.53827516  0.25775424
   0.31215586  0.20576619  0.47866883
   0.68757440  0.28897663  0.74223483
   0.81273184  0.20548559  0.83136680
   0.56251222  0.53899756  0.74223413
   0.06279521  0.87230668  0.65367504
   0.68734416  0.45560889  0.83127147
   0.68752727  0.62219269  0.43486264
   0.56274551  0.87233780  0.52131923
   0.68768142  0.62248870  0.65373472
   0.93761986  0.12220492  0.52130497
   0.06254534  0.53867898  0.25784347
   0.18759026  0.45527265  0.56504658
   0.68729052  0.12248739  0.78644030
   0.56197309  0.20600903  0.83128201
   0.31253584  0.87223754  0.30192148
   0.81232716  0.37204811  0.16892546
   0.43693618  0.95655062  0.83126936
   0.06243648  0.03876513  0.39016346
   0.56226485  0.37253244  0.43473247
   0.31232775  0.37369165  0.78638093
   0.31251596  0.53924393  0.74225694
   0.31194132  0.20565183  0.69812533
   0.56237051  0.87272294  0.65376348
   0.68742601  0.12163946  0.30189729
   0.31244904  0.03840422  0.60969477
   0.81255974  0.53927135  0.12669371
   0.43723199  0.12225866  0.30198992
   0.31255777  0.53959023  0.12667809
[...]
      6.69049      6.64351      5.69114        -0.000191     -0.000376     -0.002809
      9.11680      8.05140     25.43162        -0.000669      0.000705      0.000133
      9.11793      5.23888     13.58541        -0.000463      0.000373      0.000210
      1.82119      5.24168     23.45949        -0.000769      0.000198     -0.000477
      4.24977      1.03054      7.59054         0.000132     -0.001394     -0.001020
      7.90458      5.94546     21.53581        -0.000670     -0.000225     -0.000285
      9.11940      2.43735     33.40266        -0.000262     -0.001067      0.002637
      4.25623      3.83911      9.62066         0.000214     -0.000663     -0.002119
      6.68644      3.84109      9.61493         0.000170     -0.000959     -0.001711
      1.82036      1.02652     23.46009        -0.000366      0.001005     -0.000782
      1.82336      3.83704     15.58425        -0.000433      0.000944     -0.000208
      1.82435      6.64014     39.29948         0.000800     -0.000351      0.001169
      1.82376      6.64442     17.55852        -0.001119     -0.000297     -0.001138
      5.47125      0.32341      5.69469        -0.000039     -0.000944     -0.002841
      6.68498      6.64464     39.29907        -0.000563      0.000211      0.001271
      3.03524      3.12843      7.59859         0.000289     -0.000046     -0.001024
      1.82262      1.02965     19.56396        -0.000713     -0.000969     -0.000576
      4.25585      5.24281     29.41477         0.000261     -0.000297      0.000260
      4.25499      3.83715     15.58624         0.000809      0.000710     -0.000578
      6.68673      5.23406     13.59070         0.000359      0.001058     -0.000923
      1.82543      2.43271     27.43724         0.000627      0.000530      0.001618
      3.03903      5.95130     37.40790         0.000173     -0.001270      0.000876
      5.47085      5.94327     21.53957         0.000238      0.000226     -0.000830
      5.46763      4.53376     11.59889         0.000884      0.001313     -0.002420
      3.04114      3.13771     23.46047        -0.000283      0.000001     -0.000518
      1.82089      2.43740     33.40213         0.000102     -0.000219      0.001931
      0.60921      5.94402     25.42701        -0.000878      0.000728     -0.000077
      7.90239      1.72967     15.58519         0.000171     -0.000404     -0.001370
      9.11512      6.64556      5.68946        -0.000648     -0.000016     -0.003030
      1.82477      5.23217      7.59073        -0.000328     -0.000601     -0.000758
      9.12077      2.43538     39.30806        -0.000316      0.000027     -0.000008
      9.12434      2.42951     11.60252        -0.000520      0.000536     -0.001409
      7.90437      1.73288     21.53480         0.000276     -0.000303     -0.000982
      9.11861      5.24187     35.39209        -0.000462      0.001218      0.002066
      7.90340      0.32816     17.56065         0.000619     -0.000594     -0.000859
      7.90237      4.54038     17.56067         0.000832      0.000064     -0.000077
      7.90302      1.73154      9.61577         0.000609     -0.000306     -0.000630
      0.60763      5.94268     15.58437        -0.000652      0.000857     -0.000946
      9.11978      5.23920     29.41274         0.000248     -0.000308      0.000068
      4.25571      2.43453     33.40080         0.000277     -0.000544      0.002055
      4.25412      6.64625     17.56037        -0.000264     -0.000367     -0.000533
      4.25581      2.43188     17.55874        -0.000477     -0.000929     -0.000746
      4.25348      6.64225     27.44057        -0.000296      0.000064      0.001778
      5.47065      5.94250     15.58480         0.000570      0.001062     -0.001121
      6.68629      6.64763     17.55990         0.000767     -0.001156     -0.000980
      3.03869      7.34534     19.56279         0.000188     -0.001111     -0.000176
      7.90399      4.54207     27.43658        -0.000359      0.000465      0.000271
      0.60934      4.53822      5.70351        -0.000566      0.000401     -0.002220
      0.60864      1.73374     25.42710        -0.000700      0.001060     -0.000127
      7.90639      4.53415     11.59882        -0.000581      0.000758     -0.002195
      3.03621      1.73331     21.54009        -0.000461     -0.000580     -0.000298
      6.68781      2.43418     33.40063         0.000518     -0.000808      0.002104
      7.90514      1.73089     37.41140        -0.000222      0.001123     -0.000142
      5.47135      4.54026     33.40067         0.000583     -0.000707      0.001877
      0.61078      7.34790     29.41541         0.000206      0.000623     -0.000003
      6.68553      3.83788     37.40712        -0.000954     -0.000941      0.001432
      6.68733      5.24104     19.56886         0.000362     -0.000711     -0.000194
      5.47361      7.34814     23.45943        -0.000259      0.001292     -0.000689
      6.68886      5.24356     29.41810        -0.000260     -0.000179      0.000256
      9.11999      1.02939     23.45876        -0.000284      0.000469     -0.000299
      0.60841      4.53759     11.60283        -0.000803      0.001392     -0.002464
      1.82462      3.83505     25.42712        -0.000433      0.001451      0.000864
      6.68501      1.03175     35.38977         0.000586      0.001318      0.001432
      5.46612      1.73529     37.40759        -0.000568      0.000957      0.001488
      3.03995      7.34735     13.58640         0.000630      0.000120      0.000636
      7.90127      3.13392      7.60156         0.000501     -0.000033     -0.001713
      4.24994      8.05752     37.40708        -0.000173      0.000377      0.001787
      0.60734      0.32655     17.55734        -0.000025     -0.000096     -0.000832
      5.46894      3.13805     19.56297         0.000790     -0.000805      0.000188
      3.03796      3.14784     35.38705         0.000500      0.000429      0.002688
      3.03973      4.54234     33.40169        -0.000120     -0.000638      0.002172
      3.03414      1.73230     31.41574        -0.000343      0.000386      0.000066
      5.47000      7.35145     29.41940        -0.000729      0.000709      0.000706
      6.68633      1.02465     13.58522         0.000329     -0.000354      0.000052
      3.03912      0.32349     27.43628         0.000044      0.001029      0.001965
      7.90353      4.54248      5.70111        -0.000481      0.000468     -0.002697
      4.25278      1.02985     13.58944         0.000564     -0.000746     -0.000183
      3.04015      4.54528      5.70046         0.001118      0.000109     -0.002463
      0.60471      5.94501     37.40114         0.000029     -0.000328      0.001310
      9.11410      5.23916      7.59726         0.000637     -0.001376     -0.001322
      9.12067      6.65172     33.40154        -0.000460     -0.000530      0.002059
      1.83062      8.05644     37.40657         0.000425      0.000683      0.001623
      5.47158      3.14055     23.46267         0.000507      0.000226      0.000080
      6.68684      3.83683     15.58317         0.000948      0.000844     -0.000226
      3.04013      1.73050     15.58382         0.000202     -0.000055     -0.001144
      3.03929      5.94240     15.58359        -0.000280      0.000822     -0.000910
      3.03414      5.94849     31.41410        -0.000019      0.000377      0.001022
      5.47129      5.94608      9.61402        -0.000022     -0.001771     -0.000208
      3.03802      3.13568     13.58662         0.000539      0.000213      0.000982
      3.03423      1.73116     25.43105         0.000356      0.001311      0.000514
      0.61451      3.13571     29.41324         0.000863     -0.000620      0.000454
      4.25431      6.64700     33.40083         0.000243     -0.000948      0.001624
      7.90400      5.94460     37.40586        -0.000341     -0.000640      0.001488
      1.82368      3.83404      9.61453        -0.000014     -0.000201     -0.001942
      6.68431      8.05012     25.42808         0.000890      0.001114     -0.000023
      1.82753      3.84169     31.41952         0.000445     -0.000288      0.000448
      4.26441      2.43739     39.30482         0.000362      0.000184     -0.000018
      0.60774      4.54411     33.40404        -0.000559     -0.000481      0.002401
      1.82471      6.65019     33.39902        -0.000222     -0.000311      0.002123
      5.47002      7.34386     13.58706         0.000547     -0.000204     -0.000451
      6.68556      2.43548     27.43712        -0.000475      0.000519      0.000573
      6.68412      3.84205     31.41971        -0.000820      0.000015      0.001551
      7.90361      7.34860     35.39221        -0.000050      0.001484      0.001275
      3.04017      5.93746      9.61400         0.000106     -0.000897     -0.001067
      1.82580      3.84202     37.40261         0.000876     -0.000701      0.000998
      0.61797      3.12701      7.59574        -0.000018     -0.000937     -0.002178
      1.82835      6.64478     27.44035        -0.000116     -0.000061      0.000686
      9.11781      3.83882      9.61847        -0.000017     -0.000318     -0.002164
      9.11653      8.05364     37.40044        -0.000157      0.000265     -0.000025
      9.11594      2.43117      5.70356         0.000611     -0.000512     -0.002358
      5.47245      1.73280     21.53905         0.000844     -0.000289     -0.000463
      9.12181      1.03026     19.56713         0.000466     -0.000656      0.000373
      5.47620      7.34321     35.38580         0.000031      0.000398      0.001957
      3.03669      5.94219     25.42750        -0.000640      0.000659      0.000352
      7.90241      4.54160     33.40443         0.000223     -0.000373      0.002335
      9.11841      3.83751     21.53587         0.000485     -0.000451     -0.000962
      7.90400      0.32924     27.43353        -0.000218      0.000387      0.000793
      9.11755      2.43366     17.55939         0.000487     -0.000365     -0.000818
      5.47374      5.94795     37.39642        -0.000268     -0.000945      0.001102
      7.90269      3.13755     35.39485        -0.000230      0.000802      0.001997
      0.60527      5.93813      9.61451        -0.000166     -0.000599     -0.001301
      6.68932      1.03153     29.41160         0.000244      0.000765      0.000729
      1.82540      1.03383     35.38819        -0.000440      0.000968      0.002199
      3.04127      7.33752      7.59985         0.000813     -0.001002     -0.001271
      9.11714      3.83809     25.42859        -0.000184      0.001729      0.000210
      4.25294      8.05360     31.41572        -0.000457      0.000452      0.000543
      7.90301      3.13257     13.58642         0.000160     -0.000494      0.000614
      6.68694      8.04859     21.53521        -0.000085     -0.000139     -0.000784
      5.47139      4.54290     27.43664        -0.000166     -0.000287      0.001521
      5.47029      4.53384      5.70312         0.000420      0.000927     -0.003025
      9.12135      6.64321     11.59882        -0.000985      0.000466     -0.001111
      6.68391      6.64728     33.40448         0.000689     -0.000935      0.001840
      6.68350      5.24269     35.39419         0.000386      0.000439      0.002424
      6.69236      5.24477      7.59476        -0.000271     -0.001205     -0.001839
      7.90345      7.34720     19.56874         0.000176     -0.000852     -0.000186
      0.60717      4.53798     17.55761        -0.000590     -0.000095     -0.000123
      5.47126      4.53924     17.56183         0.000573     -0.000395      0.000132
      0.60749      5.94432     31.41503         0.000210      0.001134      0.000824
      3.03650      7.34986     29.42083         0.000488      0.000017      0.000407
      6.68402      2.43887      5.70149        -0.000564     -0.000510     -0.002705
      6.68675      1.02350      7.59426         0.000137      0.000417     -0.000537
      3.04008      4.54386     39.30401         0.000198     -0.000034      0.000225
      5.46904      0.32765     17.56070        -0.000154     -0.000285     -0.000838
      4.24989      2.43002     11.60356         0.000448      0.000512     -0.001111
      9.12274      8.04641      9.61714         0.001235     -0.001043     -0.000611
      5.47370      1.73069     25.43060         0.000976      0.001032      0.000148
      4.25010      6.64203     11.59814         0.000652      0.000477     -0.001462
      4.25303      8.04573      9.61480        -0.000610     -0.001706     -0.001305
      5.47175      4.54201     39.30538         0.000007     -0.001349      0.000888
      3.03991      0.32561     11.60314         0.000379      0.000184     -0.001404
      5.47009      3.13658      7.60027         0.000079     -0.000468     -0.001298
      0.60928      3.13668     23.45669        -0.000029      0.001556      0.000238
      3.03924      1.73027     37.41200         0.000463      0.000145      0.002309
      4.25564      1.03203     35.38914         0.000259      0.000905      0.002455
      4.24719      6.64445      5.69876         0.001851     -0.000175     -0.002171
      0.60748      3.13809     19.56796        -0.000430     -0.000742     -0.000522
      7.90046      3.13768     23.45786        -0.000533      0.001343      0.000698
      6.68677      8.04624     15.58722         0.000905      0.000642     -0.001447
      9.11899      6.65075     27.43387        -0.000658      0.000361     -0.000143
      1.82294      1.02943     13.58573        -0.000328     -0.000986      0.000822
      9.11951      6.64599     17.55934         0.000217     -0.000346     -0.001227
      1.82376      8.04763     15.58353        -0.000639      0.000292     -0.000594
      5.47170      1.73023     15.58471         0.000816     -0.000276     -0.001533
      1.81778      2.43842     39.30392         0.000110     -0.000886      0.000542
      4.26142      2.42807      5.70064        -0.000233     -0.000180     -0.003491
      7.90335      5.94253     15.58507         0.000766      0.001322     -0.001106
      1.82229      1.03406     29.41326         0.000461      0.000530      0.001051
      9.11804      8.05059     21.53762        -0.000927      0.000751     -0.001163
      6.69050      1.02723     23.45416        -0.000220      0.000753      0.000065
      0.60978      3.13947     35.38921        -0.000432      0.000947      0.001958
      1.82974      8.05153     31.41088        -0.000243      0.000720      0.000738
      5.47183      7.34610     19.56256         0.000544     -0.001422      0.000588
      6.68104      2.43967     39.30761        -0.000809      0.000051      0.000174
      9.11840      3.84010     37.39965        -0.000573      0.000081      0.000571
      0.59889      0.32771      5.70133        -0.000516     -0.000142     -0.001748
      4.25239      8.04733     15.58460         0.000636      0.000840     -0.001550
      3.04042      3.13886     19.56310         0.000132     -0.000929     -0.000493
      4.25543      5.23926     13.58539         0.000226      0.000320     -0.000014
      7.90583      1.73495     25.42315        -0.000369      0.000968      0.000389
      1.82566      8.05038     21.53707         0.000624      0.000030     -0.000810
      9.12024      6.63895     39.30128         0.000250     -0.000514      0.001454
      3.03966      4.53983     27.43772         0.000323      0.000037      0.001137
      6.69122      5.24165     23.45794         0.000857     -0.000027      0.000305
      0.60874      0.33344     33.40530        -0.000678     -0.000918      0.002000
      5.46831      3.13579     29.42190        -0.000966     -0.000026      0.000070
      5.47753      0.33317     39.30234        -0.000328      0.000996     -0.000176
      6.68836      8.05065     37.40411        -0.000848      0.000617      0.000647
      9.12144      1.03170     29.41796         0.000308     -0.000014      0.001626
      1.82159      8.04159      9.61905        -0.000040     -0.001093     -0.001557
      6.68504      6.64852     27.43844         0.000577      0.000478      0.001051
      4.25623      3.83448     21.53732         0.000387      0.000345     -0.000691
      5.47042      0.32353     11.59892         0.000584     -0.000554     -0.001546
      7.90467      0.32175     11.60179        -0.000209     -0.000023     -0.001445
      9.11912      2.43746     27.44258        -0.000197      0.000583      0.001135
      9.11788      1.03101     35.38175        -0.000682      0.001146      0.001644
      6.68943      1.02870     19.56233         0.000760     -0.000508      0.001218
      6.68804      6.64003     11.60035         0.000215      0.000630     -0.001382
      9.11763      3.84288     31.41655        -0.000497     -0.000401      0.001332
      5.47031      1.73229     31.41523        -0.000966      0.000389      0.001282
      6.67962      8.05902      9.62883         0.000171     -0.000949     -0.000398
      7.90242      7.34650     29.41563         0.000104     -0.000673      0.000095
      4.25429      1.02847     23.45481         0.000497      0.000350     -0.000222
      6.68746      2.42496     11.58948         0.000369      0.000551     -0.001531
      3.04074      0.32820     39.29145         0.000569      0.000644     -0.000377
      5.46910      5.93992     25.42876         0.001296      0.000907      0.000047
      1.82588      2.43055      5.71124        -0.000093     -0.000660     -0.004205
      5.47433      5.95048     31.41552        -0.000363      0.000266      0.000938
      7.90878      7.34451      7.55954         0.000056     -0.001065      0.000425
 -----------------------------------------------------------------------------------
    total drift:                                0.007886     -0.022067     -0.010378


--------------------------------------------------------------------------------------------------------



  FREE ENERGIE OF THE ION-ELECTRON SYSTEM (eV)
  ---------------------------------------------------
  free  energy   TOTEN  =     -2325.83177859 eV

  energy  without entropy=    -2320.29573341  energy(sigma->0) =    -2323.06375600
 
 d Force = 0.1091898E-06[ 0.113E-06, 0.105E-06]  d Energy = 0.3025960E-04-0.302E-04
 d Force = 0.2668791E+00[ 0.267E+00, 0.267E+00]  d Ewald  = 0.2668791E+00 0.844E-09


--------------------------------------------------------------------------------------------------------


    POTLOK:  cpu time    0.4176: real time    0.4176


--------------------------------------------------------------------------------------------------------




--------------------------------------------------------------------------------------------------------


  
 reached required accuracy - stopping structural energy minimisation
     LOOP+:  cpu time 1358.1835: real time 1358.1539
    4ORBIT:  cpu time    0.0000: real time    0.0000

 total amount of memory used by VASP MPI-rank0   771601. kBytes
=======================================================================

   base      :      30000. kBytes
   nonlr-proj:     125511. kBytes
   fftplans  :      22705. kBytes
   grid      :      34809. kBytes
   one-center:       2160. kBytes
   wavefun   :     556416. kBytes
 
  
  
 General timing and accounting informations for this job:
 ========================================================
  
                  Total CPU time used (sec):    14043.146
                            User time (sec):    14037.786
                          System time (sec):        5.360
                         Elapsed time (sec):    14046.674
  
                   Maximum memory used (kb):     1230400.
                   Average memory used (kb):           0.
  
                          Minor page faults:        27263
                          Major page faults:           25
                 Voluntary context switches:         9151
