unknown system                          
            1
     9.726678    0.000000    0.000000
     0.000000    8.423550    0.000000
     0.000000    0.000000   45.000000
   Fe   Mn
 273  15
Direct configuration=     1
   0.93753471  0.62237809  0.52124172
   0.06256998  0.20562958  0.47858836
   0.81257364  0.37235012  0.43481661
   0.43734071  0.62215616  0.52133771
   0.56242786  0.37259285  0.78648397
   0.31234410  0.70571735  0.47855564
   0.93721200  0.95544965  0.69816268
   0.81246056  0.03941205  0.74231438
   0.18754511  0.28878375  0.39026570
   0.81238545  0.87215620  0.52137185
   0.06248999  0.53886311  0.60967335
   0.18753271  0.78869725  0.25770100
   0.43762017  0.62165964  0.16883007
   0.93750815  0.45552030  0.34635860
   0.06269668  0.87224698  0.52129423
   0.06246701  0.87225486  0.30194662
   0.81211529  0.37222364  0.65364895
   0.43762266  0.28878959  0.60969444
   0.31229532  0.87213510  0.52135583
   0.81251652  0.87182530  0.30194662
   0.18747991  0.62210186  0.30194353
   0.81267271  0.53934599  0.87338931
   0.18755343  0.45551636  0.47857755
   0.43744687  0.78846794  0.87336524
   0.06252113  0.70577222  0.47857407
   0.43743251  0.95536127  0.56506245
   0.06275485  0.20540734  0.83140522
   0.31361057  0.03874787  0.12674220
   0.56240649  0.20578969  0.21371335
   0.06240213  0.87220326  0.43482031
   0.43736302  0.45519511  0.56510916
   0.56222981  0.03913832  0.74229280
   0.93775582  0.62230779  0.43480575
   0.56259146  0.03879875  0.60960559
   0.18749098  0.62235926  0.43485505
   0.18747300  0.62198171  0.65366297
   0.93766665  0.12230729  0.30199847
   0.31263584  0.03881051  0.39014156
   0.31252419  0.53868292  0.39018243
   0.68779615  0.45563441  0.56502873
   0.18772999  0.62298962  0.78646529
   0.31228780  0.87240059  0.78645734
   0.43741870  0.45616554  0.83123161
   0.93827143  0.12137078  0.16861039
   0.93774933  0.95526359  0.34631605
   0.81272061  0.03917273  0.87345902
   0.31250938  0.20536003  0.21361014
   0.06234984  0.20523155  0.21364154
   0.81292800  0.70590682  0.69808019
   0.31257818  0.03935837  0.74226770
   0.56239299  0.37178324  0.30193467
   0.56268992  0.87262318  0.16877682
   0.18763759  0.12287129  0.16884366
   0.43742608  0.95527193  0.47859528
   0.81273967  0.03802883  0.12636930
   0.18801882  0.95588652  0.56516911
   0.06237273  0.03917015  0.60978644
   0.43752083  0.12273352  0.65364277
   0.31273662  0.37246798  0.65368806
   0.43753946  0.62267402  0.78646201
   0.81305669  0.20562930  0.69807999
   0.43721640  0.12233421  0.43505003
   0.06220810  0.53924759  0.87343317
   0.06249541  0.20610787  0.69810043
   0.06232891  0.20542509  0.34627987
   0.68727157  0.95562280  0.69810089
   0.43717550  0.62231751  0.43484971
   0.18823059  0.78861592  0.12667868
   0.06244061  0.03870170  0.25782135
   0.06171073  0.03991797  0.87343257
   0.31240805  0.53867382  0.25785512
   0.68741426  0.28895570  0.39019998
   0.68742235  0.45526021  0.47849436
   0.43723375  0.45580700  0.69819879
   0.81269071  0.70539300  0.21367108
   0.06263335  0.87165967  0.16886502
   0.06256835  0.37223600  0.30191707
   0.81293069  0.70574732  0.56507004
   0.18745333  0.28863938  0.25780009
   0.06211050  0.87212743  0.78625850
   0.68785356  0.78868164  0.12647103
   0.93729524  0.95582017  0.56514633
   0.93741260  0.62193421  0.30189962
   0.18723340  0.62226320  0.52132086
   0.43692370  0.12233975  0.16867899
   0.81267674  0.70581908  0.47857320
   0.93756243  0.28935557  0.74228014
   0.43758752  0.45576547  0.21379329
   0.68743577  0.45600196  0.21366506
   0.18715485  0.12186230  0.52133462
   0.18745367  0.45551114  0.34631642
   0.18755874  0.78827665  0.87331938
   0.18749481  0.78879693  0.39019006
   0.56250569  0.03838645  0.12655055
   0.68728548  0.78881305  0.87331038
   0.31205482  0.37139462  0.16885782
   0.18738264  0.12223524  0.43475366
   0.43754010  0.62239396  0.65366144
   0.43745925  0.45552491  0.34635917
   0.68746483  0.62136042  0.30201728
   0.18767554  0.28879858  0.60971690
   0.31243926  0.70650392  0.83128934
   0.56245983  0.70555734  0.47865585
   0.56213092  0.53822660  0.25775590
   0.31266488  0.37248827  0.52134324
   0.18720230  0.28935750  0.74226792
   0.06263010  0.70564114  0.56504393
   0.81244468  0.20533348  0.34633720
   0.93711681  0.78892244  0.12643413
   0.18760379  0.62114184  0.16868393
   0.93770938  0.28911781  0.87351112
   0.93807221  0.28841945  0.25783621
   0.81265180  0.20571512  0.47855067
   0.93748611  0.62227788  0.78649159
   0.81255166  0.03895720  0.39023622
   0.81244862  0.53901233  0.39023668
   0.81250886  0.20556381  0.21368325
   0.06246405  0.70548362  0.34631970
   0.93760840  0.62197073  0.65361577
   0.43753363  0.28901903  0.74223747
   0.43736590  0.78901482  0.39023070
   0.43754085  0.28869880  0.39019491
   0.43730039  0.78853162  0.60979049
   0.56244477  0.70546339  0.34632763
   0.68742421  0.78918018  0.39021968
   0.31240725  0.87200749  0.43472819
   0.81260878  0.53921557  0.60970070
   0.06264150  0.53875415  0.12674568
   0.06257327  0.20581235  0.56504530
   0.81285682  0.53827516  0.25775424
   0.31215586  0.20576619  0.47866883
   0.68757440  0.28897663  0.74223483
   0.81273184  0.20548559  0.83136680
   0.56251222  0.53899756  0.74223413
   0.06279521  0.87230668  0.65367504
   0.68734416  0.45560889  0.83127147
   0.68752727  0.62219269  0.43486264
   0.56274551  0.87233780  0.52131923
   0.68768142  0.62248870  0.65373472
   0.93761986  0.12220492  0.52130497
   0.06254534  0.53867898  0.25784347
   0.18759026  0.45527265  0.56504658
   0.68729052  0.12248739  0.78644030
   0.56197309  0.20600903  0.83128201
   0.31253584  0.87223754  0.30192148
   0.81232716  0.37204811  0.16892546
   0.43693618  0.95655062  0.83126936
   0.06243648  0.03876513  0.39016346
   0.56226485  0.37253244  0.43473247
   0.31232775  0.37369165  0.78638093
   0.31251596  0.53924393  0.74225694
   0.31194132  0.20565183  0.69812533
   0.56237051  0.87272294  0.65376348
   0.68742601  0.12163946  0.30189729
   0.31244904  0.03840422  0.60969477
   0.81255974  0.53927135  0.12669371
   0.43723199  0.12225866  0.30198992
   0.31255777  0.53959023  0.12667809
   0.06217094  0.70575504  0.83113775
   0.93701351  0.62197205  0.16882921
   0.93769287  0.78965717  0.74225508
   0.18819988  0.95642176  0.83125784
   0.56253334  0.37282228  0.52139257
   0.68747885  0.45548509  0.34629106
   0.31255508  0.20543243  0.34630714
   0.31246909  0.70545171  0.34630119
   0.31194315  0.70617029  0.69808961
   0.56250734  0.70589015  0.21364456
   0.31233771  0.37225342  0.30192618
   0.31195104  0.20551148  0.56513333
   0.06318329  0.37225693  0.65362782
   0.43738931  0.78910000  0.74223771
   0.81261559  0.70570668  0.83124267
   0.18748888  0.45516251  0.21365754
   0.68722030  0.95567049  0.56506775
   0.18788794  0.45606374  0.69820964
   0.43842356  0.28936016  0.87343909
   0.06247969  0.53945330  0.74231024
   0.18759954  0.78947594  0.74219818
   0.56237829  0.87182432  0.30193674
   0.68733926  0.28912643  0.60971232
   0.68719501  0.45610877  0.69821566
   0.81257463  0.87238781  0.78649375
   0.31256005  0.70486897  0.21364433
   0.18770689  0.45609994  0.83117156
   0.06352781  0.37122860  0.16879556
   0.18796937  0.78883339  0.60978575
   0.93739779  0.45572921  0.21374460
   0.93727351  0.95609348  0.83112259
   0.93720913  0.28861969  0.12674755
   0.56261917  0.20570598  0.47864536
   0.93780873  0.12230861  0.43482347
   0.56301149  0.87174878  0.78635069
   0.31219604  0.70542193  0.56505521
   0.81244413  0.53915534  0.74231865
   0.93746043  0.45556971  0.47857483
   0.81261060  0.03907914  0.60963238
   0.93737551  0.28891127  0.39020844
   0.56275437  0.70610587  0.83103375
   0.81247980  0.37246790  0.78655341
   0.06222449  0.70494543  0.21365621
   0.68772842  0.12245586  0.65358966
   0.18766400  0.12273286  0.78640648
   0.31267381  0.87107139  0.16888712
   0.93733111  0.45563656  0.56507740
   0.43724409  0.95607939  0.69812610
   0.81250956  0.37188412  0.30192290
   0.68748909  0.95548864  0.47855862
   0.56251317  0.53930675  0.60970261
   0.56240658  0.53824087  0.12673791
   0.93776179  0.78864545  0.25775395
   0.68717122  0.78913041  0.74231953
   0.68713640  0.62237807  0.78653703
   0.68804522  0.62264029  0.16877302
   0.81255333  0.87222747  0.43485989
   0.06241862  0.53872581  0.39016906
   0.56250444  0.53887863  0.39026276
   0.06245628  0.70567469  0.69811033
   0.31217828  0.87253940  0.65379604
   0.68718736  0.28953257  0.12670224
   0.68746835  0.12150095  0.16876143
   0.31254944  0.53941190  0.87342108
   0.56227895  0.03889399  0.39023782
   0.43693212  0.28848101  0.25785894
   0.93790650  0.95522739  0.21371440
   0.56275077  0.20545652  0.56512246
   0.43695768  0.78850386  0.25773872
   0.43725596  0.95514650  0.21366233
   0.56254789  0.53919255  0.87345110
   0.31253098  0.03865005  0.25784991
   0.56238409  0.37236550  0.16889613
   0.06263375  0.37236553  0.52125840
   0.31246000  0.20541780  0.83137913
   0.43752159  0.12251937  0.78642649
   0.43665944  0.78879259  0.12664097
   0.06245059  0.37253712  0.43484190
   0.81224807  0.37248306  0.52128471
   0.68747075  0.95520823  0.34638206
   0.93752447  0.78954239  0.60964106
   0.18741184  0.12220770  0.30190658
   0.93757736  0.78898131  0.39020777
   0.18749654  0.95537107  0.34630091
   0.56255441  0.20539974  0.34632596
   0.18688258  0.28948428  0.87341865
   0.43811661  0.28825176  0.12668271
   0.81254115  0.70546659  0.34633450
   0.18734731  0.12276143  0.65362675
   0.93742619  0.95572401  0.47861317
   0.68785396  0.12194925  0.52120335
   0.06268931  0.37269505  0.78642944
   0.18811628  0.95583538  0.69801746
   0.56256290  0.87209963  0.43472318
   0.68688066  0.28962712  0.87350092
   0.93746708  0.45586991  0.83110582
   0.06157015  0.03890281  0.12669775
   0.43719301  0.95533540  0.34632422
   0.31258541  0.37262981  0.43473540
   0.43750308  0.62197871  0.30189923
   0.81279697  0.20595680  0.56495674
   0.18769372  0.95569841  0.47860041
   0.93765483  0.78814165  0.87335944
   0.31250648  0.53893916  0.60972723
   0.68793247  0.62225651  0.52128650
   0.06258381  0.03958836  0.74233861
   0.56219238  0.37226452  0.65381947
   0.56314693  0.03956474  0.87338396
   0.68763501  0.95573761  0.83120425
   0.93778011  0.12247618  0.65373148
   0.18727532  0.95465401  0.21375707
   0.68729215  0.78927798  0.60974222
   0.43758124  0.45520504  0.47860628
   0.56241856  0.03840143  0.25775677
   0.81268040  0.03818766  0.25782075
   0.93754008  0.28935980  0.60983444
   0.93741224  0.12239739  0.78626346
   0.68774284  0.12212104  0.43471718
   0.68760241  0.78826528  0.25778863
   0.93738964  0.45620749  0.69814445
   0.56240152  0.20565149  0.69811530
   0.68673507  0.95672192  0.21397426
   0.81245281  0.87214109  0.65367935
   0.43738436  0.12209767  0.52121645
   0.68754123  0.28787868  0.25754687
   0.31261437  0.03897535  0.87314104
   0.56228645  0.70515180  0.56508315
   0.18771791  0.28854892  0.12691664
   0.56281470  0.70640410  0.69812279
   0.81309761  0.87189893  0.16798767
Direct configuration=     2
   0.93753706  0.62238110  0.52124270
   0.06257364  0.20563295  0.47858858
   0.81257403  0.37235188  0.43481766
   0.43734260  0.62216200  0.52133852
   0.56242505  0.37259656  0.78648282
   0.31234693  0.70571404  0.47855644
   0.93720880  0.95545188  0.69816437
   0.81246347  0.03940794  0.74231542
   0.18755213  0.28878603  0.39026490
   0.81238269  0.87215769  0.52137303
   0.06248793  0.53886142  0.60967329
   0.18753568  0.78870105  0.25769881
   0.43761547  0.62165463  0.16882964
   0.93751239  0.45552542  0.34635876
   0.06270060  0.87225218  0.52129587
   0.06246977  0.87225558  0.30194502
   0.81211297  0.37222107  0.65364887
   0.43762492  0.28878934  0.60969517
   0.31229580  0.87213171  0.52135702
   0.81251684  0.87182565  0.30194445
   0.18748181  0.62210049  0.30194219
   0.81267053  0.53935619  0.87339134
   0.18755221  0.45551475  0.47857778
   0.43745131  0.78847384  0.87336704
   0.06252534  0.70576402  0.47857435
   0.43743300  0.95535511  0.56506338
   0.06275509  0.20540318  0.83140343
   0.31361027  0.03874652  0.12674045
   0.56240350  0.20578450  0.21371390
   0.06240593  0.87219936  0.43482095
   0.43736235  0.45520606  0.56510992
   0.56222738  0.03913573  0.74229473
   0.93775691  0.62230322  0.43480724
   0.56259015  0.03880092  0.60960672
   0.18749426  0.62235524  0.43485629
   0.18747456  0.62198598  0.65366327
   0.93766908  0.12230864  0.30199563
   0.31264072  0.03881290  0.39014100
   0.31252892  0.53868179  0.39018252
   0.68779567  0.45564227  0.56503033
   0.18773573  0.62299670  0.78646403
   0.31229076  0.87240085  0.78645611
   0.43742259  0.45616938  0.83122895
   0.93827913  0.12137129  0.16860994
   0.93775479  0.95526526  0.34631607
   0.81271641  0.03916412  0.87346053
   0.31250945  0.20535826  0.21360926
   0.06235414  0.20523003  0.21364120
   0.81292910  0.70591040  0.69808092
   0.31257590  0.03935889  0.74226960
   0.56239081  0.37177963  0.30193256
   0.56268285  0.87262587  0.16877738
   0.18763915  0.12287207  0.16884250
   0.43742799  0.95526600  0.47859607
   0.81274219  0.03804039  0.12636770
   0.18802121  0.95588771  0.56516944
   0.06237056  0.03917295  0.60978665
   0.43752448  0.12273118  0.65364353
   0.31273884  0.37246899  0.65368866
   0.43754108  0.62267945  0.78646139
   0.81305652  0.20562598  0.69808080
   0.43721339  0.12233481  0.43505041
   0.06220725  0.53925432  0.87343550
   0.06249405  0.20610426  0.69810316
   0.06233769  0.20542786  0.34627950
   0.68727239  0.95562365  0.69810146
   0.43717489  0.62231432  0.43485020
   0.18823339  0.78861632  0.12667730
   0.06244461  0.03870605  0.25781856
   0.06171412  0.03990518  0.87343478
   0.31240806  0.53867246  0.25785254
   0.68740657  0.28895735  0.39019987
   0.68741877  0.45526157  0.47849472
   0.43723328  0.45580869  0.69820019
   0.81269127  0.70539028  0.21367104
   0.06263922  0.87166144  0.16886431
   0.06257136  0.37223545  0.30191587
   0.81292726  0.70574899  0.56507092
   0.18745632  0.28864143  0.25779794
   0.06211359  0.87212938  0.78625741
   0.68784905  0.78868277  0.12646976
   0.93729789  0.95582017  0.56514704
   0.93741447  0.62193266  0.30189800
   0.18723684  0.62226511  0.52132189
   0.43691856  0.12233976  0.16867866
   0.81267060  0.70581411  0.47857353
   0.93756542  0.28934964  0.74228121
   0.43758343  0.45575882  0.21379239
   0.68743277  0.45599388  0.21366508
   0.18715149  0.12186285  0.52133543
   0.18745918  0.45551361  0.34631670
   0.18756128  0.78828232  0.87332164
   0.18750037  0.78879150  0.39018939
   0.56249951  0.03839385  0.12654866
   0.68728296  0.78881722  0.87331271
   0.31205346  0.37139041  0.16885763
   0.18738347  0.12223426  0.43475474
   0.43754444  0.62239847  0.65366162
   0.43745595  0.45552679  0.34636090
   0.68746243  0.62136067  0.30201559
   0.18767248  0.28879848  0.60971654
   0.31244280  0.70650762  0.83128681
   0.56245834  0.70555364  0.47865702
   0.56212729  0.53822391  0.25775320
   0.31265936  0.37249271  0.52134385
   0.18720524  0.28935522  0.74226949
   0.06263320  0.70564306  0.56504472
   0.81244505  0.20533712  0.34633744
   0.93712586  0.78892572  0.12643253
   0.18760469  0.62113663  0.16868289
   0.93770680  0.28911572  0.87351233
   0.93807310  0.28841893  0.25783380
   0.81264830  0.20571814  0.47855115
   0.93748456  0.62228779  0.78649082
   0.81254855  0.03895712  0.39023669
   0.81244329  0.53901077  0.39023713
   0.81250917  0.20555955  0.21368375
   0.06247018  0.70548390  0.34631943
   0.93760507  0.62197079  0.65361641
   0.43753018  0.28901459  0.74223998
   0.43736622  0.78900872  0.39023040
   0.43754023  0.28869993  0.39019428
   0.43730073  0.78853358  0.60979044
   0.56243770  0.70546213  0.34632881
   0.68741814  0.78917238  0.39022000
   0.31240747  0.87200071  0.43472865
   0.81260954  0.53921109  0.60970168
   0.06264622  0.53875416  0.12674460
   0.06257432  0.20581996  0.56504661
   0.81285569  0.53827035  0.25775151
   0.31215289  0.20576928  0.47866876
   0.68757406  0.28897333  0.74223630
   0.81272756  0.20548250  0.83136438
   0.56250926  0.53899562  0.74223707
   0.06279462  0.87230454  0.65367571
   0.68733959  0.45561294  0.83126945
   0.68752467  0.62218894  0.43486355
   0.56274180  0.87233278  0.52132072
   0.68768203  0.62248797  0.65373549
   0.93762593  0.12220389  0.52130585
   0.06255025  0.53867932  0.25784081
   0.18758973  0.45527734  0.56504719
   0.68728609  0.12248457  0.78643935
   0.56197209  0.20600496  0.83127985
   0.31253780  0.87223950  0.30191997
   0.81232926  0.37204235  0.16892358
   0.43693603  0.95654649  0.83126835
   0.06244009  0.03876579  0.39016316
   0.56226185  0.37253305  0.43473262
   0.31233300  0.37369533  0.78637892
   0.31251471  0.53924289  0.74225984
   0.31194017  0.20564924  0.69812742
   0.56237082  0.87272574  0.65376447
   0.68742170  0.12164077  0.30189372
   0.31245213  0.03840263  0.60969510
   0.81256223  0.53926008  0.12669143
   0.43722892  0.12225850  0.30198765
   0.31255755  0.53959153  0.12667686
   0.06217032  0.70576065  0.83113648
   0.93702073  0.62196540  0.16882798
   0.93769635  0.78965729  0.74225641
   0.18820556  0.95641831  0.83125705
   0.56253316  0.37282940  0.52139258
   0.68747452  0.45548876  0.34629268
   0.31255590  0.20543604  0.34630709
   0.31246897  0.70545094  0.34630199
   0.31194052  0.70617329  0.69809110
   0.56250371  0.70588740  0.21364478
   0.31233843  0.37225189  0.30192497
   0.31194890  0.20551408  0.56513434
   0.06317737  0.37225537  0.65362752
   0.43738569  0.78909695  0.74224057
   0.81261079  0.70571233  0.83124138
   0.18749226  0.45515753  0.21365631
   0.68721435  0.95566823  0.56506840
   0.18788883  0.45606518  0.69821162
   0.43842454  0.28935465  0.87344044
   0.06248137  0.53945299  0.74231199
   0.18759895  0.78947547  0.74220037
   0.56237282  0.87182521  0.30193474
   0.68734303  0.28912726  0.60971373
   0.68719480  0.45610761  0.69821586
   0.81256996  0.87238799  0.78649351
   0.31255993  0.70486477  0.21364447
   0.18771014  0.45610419  0.83116923
   0.06353355  0.37122210  0.16879426
   0.18797270  0.78883381  0.60978565
   0.93740250  0.45572430  0.21374381
   0.93727021  0.95608581  0.83112094
   0.93721032  0.28861570  0.12674586
   0.56262217  0.20570856  0.47864563
   0.93781331  0.12230722  0.43482510
   0.56300832  0.87174717  0.78635114
   0.31220226  0.70542535  0.56505565
   0.81244666  0.53915491  0.74232066
   0.93746409  0.45556937  0.47857478
   0.81261061  0.03908554  0.60963399
   0.93737515  0.28891164  0.39020857
   0.56275521  0.70611006  0.83103157
   0.81247554  0.37247317  0.78655233
   0.06222813  0.70494355  0.21365574
   0.68772941  0.12245750  0.65359100
   0.18766942  0.12273057  0.78640427
   0.31267343  0.87107263  0.16888549
   0.93733378  0.45563771  0.56507976
   0.43724456  0.95608088  0.69812706
   0.81250899  0.37188237  0.30192044
   0.68748502  0.95548701  0.47856013
   0.56251353  0.53930985  0.60970306
   0.56240061  0.53823376  0.12673597
   0.93776614  0.78864777  0.25775150
   0.68717303  0.78913007  0.74232185
   0.68713123  0.62238522  0.78653759
   0.68804165  0.62263236  0.16877242
   0.81255431  0.87222112  0.43486089
   0.06242351  0.53872496  0.39016902
   0.56250008  0.53887524  0.39026291
   0.06245638  0.70567904  0.69811172
   0.31218269  0.87253712  0.65379627
   0.68718435  0.28952961  0.12669985
   0.68746520  0.12150465  0.16876125
   0.31255111  0.53942376  0.87342238
   0.56227221  0.03889644  0.39023774
   0.43693133  0.28847986  0.25785699
   0.93790956  0.95522766  0.21371421
   0.56275120  0.20545819  0.56512431
   0.43695268  0.78850734  0.25773650
   0.43725454  0.95514681  0.21366215
   0.56255064  0.53920305  0.87345281
   0.31253336  0.03865457  0.25784755
   0.56237985  0.37235814  0.16889493
   0.06263972  0.37236969  0.52125970
   0.31246382  0.20540898  0.83137784
   0.43752211  0.12251672  0.78642537
   0.43665382  0.78879433  0.12663915
   0.06245465  0.37253715  0.43484346
   0.81224666  0.37248871  0.52128577
   0.68746660  0.95520826  0.34638255
   0.93752335  0.78954214  0.60964162
   0.18741613  0.12220845  0.30190508
   0.93757707  0.78897722  0.39020745
   0.18750088  0.95537260  0.34630062
   0.56254587  0.20540343  0.34632691
   0.18688564  0.28947672  0.87342045
   0.43811692  0.28824821  0.12668097
   0.81254342  0.70546667  0.34633480
   0.18734949  0.12275865  0.65362792
   0.93742544  0.95572465  0.47861368
   0.68785088  0.12194794  0.52120362
   0.06269125  0.37270182  0.78642686
   0.18811557  0.95583587  0.69801957
   0.56255949  0.87209110  0.43472355
   0.68687754  0.28962482  0.87350248
   0.93746323  0.45587658  0.83110342
   0.06157227  0.03890414  0.12669633
   0.43718867  0.95533745  0.34632453
   0.31258605  0.37262966  0.43473552
   0.43750056  0.62197763  0.30189758
   0.81279858  0.20596437  0.56495885
   0.18769614  0.95569883  0.47860149
   0.93765238  0.78814202  0.87336182
   0.31250767  0.53894496  0.60972702
   0.68792439  0.62226115  0.52128746
   0.06258430  0.03958417  0.74233995
   0.56219736  0.37226412  0.65381992
   0.56314490  0.03955232  0.87338521
   0.68763087  0.95573090  0.83120243
   0.93777562  0.12247828  0.65373233
   0.18727803  0.95465570  0.21375671
   0.68728894  0.78927765  0.60974318
   0.43758282  0.45520997  0.47860701
   0.56241453  0.03840826  0.25775378
   0.81267958  0.03819658  0.25781768
   0.93753655  0.28936212  0.60983518
   0.93741000  0.12239580  0.78626104
   0.68774041  0.12212167  0.43471834
   0.68759773  0.78826951  0.25778567
   0.93738394  0.45620729  0.69814556
   0.56240282  0.20564898  0.69811612
   0.68673219  0.95672485  0.21397398
   0.81244797  0.87213861  0.65368056
   0.43738337  0.12209466  0.52121800
   0.68753817  0.28787811  0.25754408
   0.31261819  0.03896241  0.87314325
   0.56227891  0.70515661  0.56508346
   0.18771829  0.28854290  0.12691648
   0.56281572  0.70640949  0.69812261
   0.81310197  0.87190220  0.16798984
Direct configuration=     3
   0.93753709  0.62238115  0.52124272
   0.06257369  0.20563300  0.47858859
   0.81257403  0.37235191  0.43481768
   0.43734263  0.62216208  0.52133853
   0.56242501  0.37259662  0.78648281
   0.31234697  0.70571400  0.47855645
   0.93720876  0.95545191  0.69816440
   0.81246351  0.03940788  0.74231543
   0.18755223  0.28878606  0.39026489
   0.81238265  0.87215772  0.52137305
   0.06248790  0.53886140  0.60967329
   0.18753572  0.78870111  0.25769878
   0.43761540  0.62165456  0.16882963
   0.93751245  0.45552549  0.34635876
   0.06270065  0.87225226  0.52129590
   0.06246981  0.87225559  0.30194499
   0.81211294  0.37222103  0.65364887
   0.43762495  0.28878933  0.60969518
   0.31229580  0.87213166  0.52135704
   0.81251685  0.87182565  0.30194442
   0.18748184  0.62210047  0.30194217
   0.81267050  0.53935634  0.87339137
   0.18755219  0.45551473  0.47857778
   0.43745137  0.78847392  0.87336707
   0.06252540  0.70576390  0.47857436
   0.43743301  0.95535502  0.56506339
   0.06275510  0.20540312  0.83140340
   0.31361027  0.03874650  0.12674042
   0.56240346  0.20578442  0.21371391
   0.06240599  0.87219930  0.43482096
   0.43736234  0.45520622  0.56510993
   0.56222735  0.03913569  0.74229476
   0.93775693  0.62230316  0.43480726
   0.56259014  0.03880096  0.60960673
   0.18749431  0.62235518  0.43485631
   0.18747458  0.62198604  0.65366327
   0.93766911  0.12230866  0.30199559
   0.31264078  0.03881294  0.39014099
   0.31252898  0.53868178  0.39018252
   0.68779566  0.45564238  0.56503035
   0.18773581  0.62299680  0.78646401
   0.31229080  0.87240085  0.78645609
   0.43742264  0.45616943  0.83122892
   0.93827924  0.12137130  0.16860993
   0.93775487  0.95526528  0.34631607
   0.81271635  0.03916400  0.87346055
   0.31250945  0.20535824  0.21360925
   0.06235420  0.20523001  0.21364119
   0.81292912  0.70591045  0.69808093
   0.31257587  0.03935889  0.74226962
   0.56239078  0.37177958  0.30193253
   0.56268275  0.87262590  0.16877739
   0.18763917  0.12287208  0.16884248
   0.43742802  0.95526591  0.47859608
   0.81274222  0.03804056  0.12636768
   0.18802125  0.95588773  0.56516944
   0.06237053  0.03917299  0.60978665
   0.43752453  0.12273115  0.65364354
   0.31273887  0.37246901  0.65368867
   0.43754111  0.62267953  0.78646139
   0.81305652  0.20562593  0.69808081
   0.43721335  0.12233481  0.43505042
   0.06220723  0.53925441  0.87343554
   0.06249403  0.20610421  0.69810320
   0.06233781  0.20542790  0.34627950
   0.68727240  0.95562366  0.69810147
   0.43717488  0.62231427  0.43485021
   0.18823343  0.78861633  0.12667728
   0.06244467  0.03870611  0.25781852
   0.06171416  0.03990500  0.87343481
   0.31240806  0.53867244  0.25785250
   0.68740646  0.28895737  0.39019986
   0.68741872  0.45526159  0.47849473
   0.43723328  0.45580872  0.69820021
   0.81269128  0.70539024  0.21367104
   0.06263930  0.87166146  0.16886430
   0.06257140  0.37223544  0.30191585
   0.81292721  0.70574902  0.56507094
   0.18745636  0.28864146  0.25779791
   0.06211364  0.87212941  0.78625740
   0.68784899  0.78868279  0.12646974
   0.93729793  0.95582017  0.56514705
   0.93741450  0.62193264  0.30189798
   0.18723688  0.62226514  0.52132191
   0.43691848  0.12233976  0.16867865
   0.81267051  0.70581404  0.47857354
   0.93756547  0.28934956  0.74228123
   0.43758338  0.45575873  0.21379238
   0.68743272  0.45599376  0.21366508
   0.18715144  0.12186286  0.52133544
   0.18745926  0.45551364  0.34631671
   0.18756132  0.78828240  0.87332167
   0.18750045  0.78879142  0.39018938
   0.56249942  0.03839396  0.12654863
   0.68728292  0.78881728  0.87331275
   0.31205344  0.37139035  0.16885762
   0.18738349  0.12223424  0.43475475
   0.43754450  0.62239853  0.65366162
   0.43745591  0.45552682  0.34636093
   0.68746239  0.62136068  0.30201557
   0.18767244  0.28879848  0.60971653
   0.31244285  0.70650767  0.83128677
   0.56245832  0.70555359  0.47865704
   0.56212724  0.53822387  0.25775316
   0.31265928  0.37249277  0.52134386
   0.18720529  0.28935519  0.74226952
   0.06263325  0.70564308  0.56504473
   0.81244505  0.20533717  0.34633745
   0.93712599  0.78892576  0.12643251
   0.18760470  0.62113656  0.16868287
   0.93770676  0.28911569  0.87351235
   0.93807312  0.28841893  0.25783377
   0.81264825  0.20571818  0.47855115
   0.93748454  0.62228793  0.78649081
   0.81254851  0.03895712  0.39023670
   0.81244321  0.53901074  0.39023714
   0.81250918  0.20555949  0.21368376
   0.06247027  0.70548390  0.34631943
   0.93760503  0.62197079  0.65361642
   0.43753013  0.28901453  0.74224002
   0.43736623  0.78900863  0.39023039
   0.43754022  0.28869995  0.39019427
   0.43730074  0.78853361  0.60979044
   0.56243760  0.70546211  0.34632882
   0.68741805  0.78917227  0.39022000
   0.31240747  0.87200061  0.43472866
   0.81260955  0.53921103  0.60970170
   0.06264629  0.53875416  0.12674458
   0.06257434  0.20582007  0.56504663
   0.81285567  0.53827028  0.25775148
   0.31215285  0.20576932  0.47866876
   0.68757406  0.28897329  0.74223632
   0.81272750  0.20548246  0.83136435
   0.56250922  0.53899560  0.74223711
   0.06279462  0.87230451  0.65367572
   0.68733952  0.45561300  0.83126942
   0.68752464  0.62218889  0.43486356
   0.56274175  0.87233271  0.52132075
   0.68768204  0.62248796  0.65373550
   0.93762602  0.12220388  0.52130586
   0.06255032  0.53867933  0.25784077
   0.18758972  0.45527741  0.56504720
   0.68728603  0.12248453  0.78643934
   0.56197207  0.20600490  0.83127982
   0.31253782  0.87223952  0.30191995
   0.81232929  0.37204227  0.16892356
   0.43693603  0.95654643  0.83126834
   0.06244014  0.03876580  0.39016315
   0.56226181  0.37253306  0.43473263
   0.31233308  0.37369539  0.78637890
   0.31251469  0.53924287  0.74225988
   0.31194015  0.20564920  0.69812745
   0.56237082  0.87272578  0.65376448
   0.68742164  0.12164078  0.30189367
   0.31245217  0.03840261  0.60969510
   0.81256227  0.53925992  0.12669140
   0.43722888  0.12225850  0.30198762
   0.31255755  0.53959155  0.12667685
   0.06217031  0.70576073  0.83113646
   0.93702083  0.62196531  0.16882796
   0.93769640  0.78965729  0.74225643
   0.18820564  0.95641826  0.83125704
   0.56253316  0.37282950  0.52139258
   0.68747446  0.45548881  0.34629271
   0.31255592  0.20543610  0.34630709
   0.31246897  0.70545093  0.34630201
   0.31194048  0.70617333  0.69809112
   0.56250366  0.70588736  0.21364478
   0.31233844  0.37225187  0.30192495
   0.31194887  0.20551412  0.56513435
   0.06317729  0.37225535  0.65362752
   0.43738564  0.78909691  0.74224061
   0.81261073  0.70571241  0.83124136
   0.18749231  0.45515746  0.21365629
   0.68721427  0.95566820  0.56506841
   0.18788884  0.45606520  0.69821164
   0.43842455  0.28935457  0.87344046
   0.06248140  0.53945298  0.74231202
   0.18759894  0.78947546  0.74220040
   0.56237275  0.87182522  0.30193471
   0.68734308  0.28912728  0.60971375
   0.68719480  0.45610759  0.69821586
   0.81256989  0.87238799  0.78649351
   0.31255992  0.70486471  0.21364448
   0.18771019  0.45610425  0.83116920
   0.06353363  0.37122200  0.16879425
   0.18797274  0.78883381  0.60978565
   0.93740256  0.45572423  0.21374380
   0.93727016  0.95608570  0.83112092
   0.93721034  0.28861565  0.12674583
   0.56262221  0.20570859  0.47864563
   0.93781338  0.12230720  0.43482512
   0.56300828  0.87174714  0.78635115
   0.31220235  0.70542540  0.56505565
   0.81244670  0.53915490  0.74232069
   0.93746415  0.45556936  0.47857478
   0.81261061  0.03908563  0.60963401
   0.93737514  0.28891165  0.39020857
   0.56275522  0.70611012  0.83103153
   0.81247548  0.37247325  0.78655232
   0.06222818  0.70494352  0.21365574
   0.68772942  0.12245753  0.65359102
   0.18766950  0.12273054  0.78640424
   0.31267342  0.87107265  0.16888547
   0.93733382  0.45563773  0.56507979
   0.43724456  0.95608090  0.69812708