 288 288   0   0
  0.1280206E+02  0.9726678E-09  0.8423550E-09  0.4500000E-08  0.2500000E-15
  1.000000000000000E-004
  CAR 
 unknown system                          
      6.82852242     -6.07146925  301      4.31276398      1.00000000
     -6.071  0.0000E+00  0.0000E+00
     -6.028  0.0000E+00  0.0000E+00
     -5.985  0.0000E+00  0.0000E+00
     -5.942  0.0000E+00  0.0000E+00
     -5.899  0.0000E+00  0.0000E+00
     -5.856  0.0000E+00  0.0000E+00
     -5.813  0.0000E+00  0.0000E+00
     -5.770  0.0000E+00  0.0000E+00
     -5.727  0.0000E+00  0.0000E+00
     -5.684  0.0000E+00  0.0000E+00
     -5.641  0.0000E+00  0.0000E+00
     -5.598  0.0000E+00  0.0000E+00
     -5.555  0.0000E+00  0.0000E+00
     -5.512  0.0000E+00  0.0000E+00
     -5.469  0.0000E+00  0.0000E+00
     -5.426  0.2259E-15  0.9714E-17
     -5.383  0.5357E-14  0.2401E-15
     -5.340  0.1154E-12  0.5204E-14
     -5.297  0.2107E-11  0.9581E-13
     -5.254  0.3269E-10  0.1501E-11
     -5.211  0.4310E-09  0.2003E-10
     -5.168  0.4832E-08  0.2278E-09
     -5.125  0.4607E-07  0.2209E-08
     -5.082  0.3737E-06  0.1828E-07
     -5.039  0.2580E-05  0.1292E-06
     -4.996  0.1518E-04  0.7819E-06
     -4.953  0.7618E-04  0.4058E-05
     -4.910  0.3269E-03  0.1812E-04
     -4.867  0.1203E-02  0.6986E-04
     -4.824  0.3817E-02  0.2340E-03
     -4.781  0.1051E-01  0.6859E-03
     -4.738  0.2534E-01  0.1776E-02
     -4.695  0.5421E-01  0.4106E-02
     -4.652  0.1043E+00  0.8590E-02
     -4.609  0.1829E+00  0.1645E-01
     -4.566  0.2958E+00  0.2917E-01
     -4.523  0.4450E+00  0.4831E-01
     -4.480  0.6263E+00  0.7524E-01
     -4.437  0.8295E+00  0.1109E+00
     -4.394  0.1039E+01  0.1556E+00
     -4.351  0.1239E+01  0.2089E+00
     -4.308  0.1414E+01  0.2697E+00
     -4.265  0.1555E+01  0.3366E+00
     -4.222  0.1668E+01  0.4083E+00
     -4.179  0.1767E+01  0.4843E+00
     -4.136  0.1870E+01  0.5647E+00
     -4.093  0.1995E+01  0.6504E+00
     -4.050  0.2154E+01  0.7431E+00
     -4.007  0.2345E+01  0.8439E+00
     -3.964  0.2551E+01  0.9536E+00
     -3.921  0.2749E+01  0.1072E+01
     -3.878  0.2914E+01  0.1197E+01
     -3.835  0.3028E+01  0.1327E+01
     -3.792  0.3088E+01  0.1460E+01
     -3.749  0.3106E+01  0.1594E+01
     -3.706  0.3105E+01  0.1727E+01
     -3.663  0.3116E+01  0.1861E+01
     -3.620  0.3161E+01  0.1997E+01
     -3.577  0.3253E+01  0.2137E+01
     -3.534  0.3392E+01  0.2283E+01
     -3.491  0.3565E+01  0.2436E+01
     -3.448  0.3753E+01  0.2597E+01
     -3.405  0.3931E+01  0.2767E+01
     -3.362  0.4076E+01  0.2942E+01
     -3.319  0.4169E+01  0.3121E+01
     -3.276  0.4206E+01  0.3302E+01
     -3.233  0.4206E+01  0.3483E+01
     -3.190  0.4205E+01  0.3664E+01
     -3.147  0.4249E+01  0.3846E+01
     -3.104  0.4370E+01  0.4034E+01
     -3.061  0.4572E+01  0.4231E+01
     -3.018  0.4831E+01  0.4438E+01
     -2.975  0.5092E+01  0.4657E+01
     -2.932  0.5294E+01  0.4885E+01
     -2.889  0.5391E+01  0.5117E+01
     -2.846  0.5382E+01  0.5348E+01
     -2.803  0.5318E+01  0.5577E+01
     -2.760  0.5279E+01  0.5804E+01
     -2.717  0.5324E+01  0.6033E+01
     -2.674  0.5452E+01  0.6267E+01
     -2.631  0.5608E+01  0.6508E+01
     -2.588  0.5716E+01  0.6754E+01
     -2.545  0.5738E+01  0.7001E+01
     -2.502  0.5703E+01  0.7246E+01
     -2.459  0.5701E+01  0.7491E+01
     -2.416  0.5831E+01  0.7742E+01
     -2.373  0.6152E+01  0.8007E+01
     -2.330  0.6624E+01  0.8291E+01
     -2.287  0.7109E+01  0.8597E+01
     -2.244  0.7432E+01  0.8917E+01
     -2.201  0.7484E+01  0.9239E+01
     -2.158  0.7299E+01  0.9552E+01
     -2.115  0.7039E+01  0.9855E+01
     -2.072  0.6902E+01  0.1015E+02
     -2.029  0.7024E+01  0.1045E+02
     -1.986  0.7412E+01  0.1077E+02
     -1.943  0.7951E+01  0.1111E+02
     -1.900  0.8457E+01  0.1148E+02
     -1.857  0.8775E+01  0.1186E+02
     -1.814  0.8856E+01  0.1224E+02
     -1.771  0.8783E+01  0.1261E+02
     -1.728  0.8697E+01  0.1299E+02
     -1.685  0.8707E+01  0.1336E+02
     -1.642  0.8841E+01  0.1374E+02
     -1.599  0.9063E+01  0.1413E+02
     -1.556  0.9324E+01  0.1453E+02
     -1.513  0.9600E+01  0.1495E+02
     -1.470  0.9887E+01  0.1537E+02
     -1.427  0.1018E+02  0.1581E+02
     -1.384  0.1045E+02  0.1626E+02
     -1.341  0.1066E+02  0.1672E+02
     -1.298  0.1086E+02  0.1718E+02
     -1.255  0.1115E+02  0.1766E+02
     -1.212  0.1170E+02  0.1817E+02
     -1.169  0.1255E+02  0.1871E+02
     -1.126  0.1360E+02  0.1929E+02
     -1.083  0.1459E+02  0.1992E+02
     -1.040  0.1526E+02  0.2057E+02
     -0.997  0.1555E+02  0.2124E+02
     -0.954  0.1568E+02  0.2192E+02
     -0.911  0.1602E+02  0.2261E+02
     -0.868  0.1692E+02  0.2333E+02
     -0.825  0.1848E+02  0.2413E+02
     -0.782  0.2062E+02  0.2501E+02
     -0.739  0.2323E+02  0.2601E+02
     -0.696  0.2630E+02  0.2714E+02
     -0.653  0.2989E+02  0.2843E+02
     -0.610  0.3401E+02  0.2989E+02
     -0.567  0.3841E+02  0.3154E+02
     -0.524  0.4268E+02  0.3338E+02
     -0.481  0.4637E+02  0.3537E+02
     -0.438  0.4927E+02  0.3749E+02
     -0.395  0.5142E+02  0.3970E+02
     -0.352  0.5306E+02  0.4198E+02
     -0.309  0.5445E+02  0.4433E+02
     -0.266  0.5569E+02  0.4672E+02
     -0.223  0.5670E+02  0.4916E+02
     -0.180  0.5734E+02  0.5162E+02
     -0.137  0.5759E+02  0.5410E+02
     -0.094  0.5762E+02  0.5658E+02
     -0.051  0.5772E+02  0.5906E+02
     -0.008  0.5817E+02  0.6156E+02
      0.035  0.5918E+02  0.6411E+02
      0.078  0.6089E+02  0.6672E+02
      0.121  0.6335E+02  0.6945E+02
      0.164  0.6646E+02  0.7231E+02
      0.207  0.6994E+02  0.7531E+02
      0.250  0.7339E+02  0.7847E+02
      0.293  0.7652E+02  0.8176E+02
      0.336  0.7918E+02  0.8516E+02
      0.379  0.8137E+02  0.8866E+02
      0.422  0.8315E+02  0.9224E+02
      0.465  0.8456E+02  0.9587E+02
      0.508  0.8556E+02  0.9955E+02
      0.551  0.8608E+02  0.1033E+03
      0.594  0.8612E+02  0.1070E+03
      0.637  0.8571E+02  0.1106E+03
      0.680  0.8491E+02  0.1143E+03
      0.723  0.8372E+02  0.1179E+03
      0.766  0.8215E+02  0.1214E+03
      0.809  0.8035E+02  0.1249E+03
      0.852  0.7861E+02  0.1283E+03
      0.895  0.7725E+02  0.1316E+03
      0.938  0.7642E+02  0.1349E+03
      0.981  0.7601E+02  0.1381E+03
      1.024  0.7573E+02  0.1414E+03
      1.067  0.7525E+02  0.1446E+03
      1.110  0.7441E+02  0.1478E+03
      1.153  0.7338E+02  0.1510E+03
      1.196  0.7257E+02  0.1541E+03
      1.239  0.7237E+02  0.1572E+03
      1.282  0.7280E+02  0.1603E+03
      1.325  0.7341E+02  0.1635E+03
      1.368  0.7352E+02  0.1667E+03
      1.411  0.7269E+02  0.1698E+03
      1.454  0.7105E+02  0.1728E+03
      1.497  0.6921E+02  0.1758E+03
      1.540  0.6788E+02  0.1787E+03
      1.583  0.6753E+02  0.1816E+03
      1.626  0.6829E+02  0.1846E+03
      1.669  0.6997E+02  0.1876E+03
      1.712  0.7222E+02  0.1907E+03
      1.755  0.7472E+02  0.1939E+03
      1.798  0.7718E+02  0.1972E+03
      1.841  0.7944E+02  0.2006E+03
      1.884  0.8140E+02  0.2041E+03
      1.927  0.8307E+02  0.2077E+03
      1.970  0.8457E+02  0.2114E+03
      2.013  0.8604E+02  0.2151E+03
      2.056  0.8760E+02  0.2188E+03
      2.099  0.8925E+02  0.2227E+03
      2.142  0.9095E+02  0.2266E+03
      2.185  0.9264E+02  0.2306E+03
      2.228  0.9435E+02  0.2346E+03
      2.271  0.9621E+02  0.2387E+03
      2.314  0.9851E+02  0.2430E+03
      2.357  0.1015E+03  0.2473E+03
      2.400  0.1053E+03  0.2519E+03
      2.443  0.1096E+03  0.2566E+03
      2.486  0.1142E+03  0.2615E+03
      2.529  0.1185E+03  0.2666E+03
      2.572  0.1223E+03  0.2719E+03
      2.615  0.1252E+03  0.2772E+03
      2.658  0.1271E+03  0.2827E+03
      2.701  0.1282E+03  0.2882E+03
      2.744  0.1290E+03  0.2938E+03
      2.787  0.1300E+03  0.2994E+03
      2.830  0.1317E+03  0.3050E+03
      2.873  0.1345E+03  0.3108E+03
      2.916  0.1380E+03  0.3167E+03
      2.959  0.1411E+03  0.3228E+03
      3.002  0.1421E+03  0.3289E+03
      3.045  0.1395E+03  0.3349E+03
      3.088  0.1332E+03  0.3406E+03
      3.131  0.1242E+03  0.3460E+03
      3.174  0.1144E+03  0.3509E+03
      3.217  0.1054E+03  0.3554E+03
      3.260  0.9851E+02  0.3597E+03
      3.303  0.9384E+02  0.3637E+03
      3.346  0.9118E+02  0.3676E+03
      3.389  0.9004E+02  0.3715E+03
      3.432  0.8974E+02  0.3754E+03
      3.475  0.8955E+02  0.3792E+03
      3.518  0.8885E+02  0.3830E+03
      3.561  0.8738E+02  0.3868E+03
      3.604  0.8550E+02  0.3905E+03
      3.647  0.8400E+02  0.3941E+03
      3.690  0.8367E+02  0.3977E+03
      3.733  0.8479E+02  0.4013E+03
      3.776  0.8704E+02  0.4051E+03
      3.819  0.8980E+02  0.4089E+03
      3.862  0.9250E+02  0.4129E+03
      3.905  0.9490E+02  0.4170E+03
      3.948  0.9700E+02  0.4212E+03
      3.991  0.9890E+02  0.4254E+03
      4.034  0.1006E+03  0.4297E+03
      4.077  0.1019E+03  0.4341E+03
      4.120  0.1027E+03  0.4385E+03
      4.163  0.1026E+03  0.4429E+03
      4.206  0.1018E+03  0.4473E+03
      4.249  0.1006E+03  0.4516E+03
      4.292  0.9922E+02  0.4559E+03
      4.335  0.9825E+02  0.4601E+03
      4.378  0.9789E+02  0.4643E+03
      4.421  0.9816E+02  0.4686E+03
      4.464  0.9878E+02  0.4728E+03
      4.507  0.9935E+02  0.4771E+03
      4.550  0.9951E+02  0.4814E+03
      4.593  0.9913E+02  0.4856E+03
      4.636  0.9839E+02  0.4899E+03
      4.679  0.9778E+02  0.4941E+03
      4.722  0.9781E+02  0.4983E+03
      4.765  0.9884E+02  0.5025E+03
      4.808  0.1009E+03  0.5069E+03
      4.851  0.1037E+03  0.5113E+03
      4.894  0.1068E+03  0.5159E+03
      4.937  0.1097E+03  0.5206E+03
      4.980  0.1120E+03  0.5254E+03
      5.023  0.1129E+03  0.5303E+03
      5.066  0.1111E+03  0.5351E+03
      5.109  0.1056E+03  0.5396E+03
      5.152  0.9534E+02  0.5437E+03
      5.195  0.8064E+02  0.5472E+03
      5.238  0.6298E+02  0.5499E+03
      5.281  0.4487E+02  0.5518E+03
      5.324  0.2885E+02  0.5531E+03
      5.367  0.1662E+02  0.5538E+03
      5.410  0.8514E+01  0.5541E+03
      5.453  0.3865E+01  0.5543E+03
      5.496  0.1550E+01  0.5544E+03
      5.539  0.5478E+00  0.5544E+03
      5.582  0.1705E+00  0.5544E+03
      5.625  0.4672E-01  0.5544E+03
      5.668  0.1126E-01  0.5544E+03
      5.711  0.2387E-02  0.5544E+03
      5.754  0.4446E-03  0.5544E+03
      5.797  0.7263E-04  0.5544E+03
      5.840  0.1038E-04  0.5544E+03
      5.883  0.1296E-05  0.5544E+03
      5.926  0.1407E-06  0.5544E+03
      5.969  0.1325E-07  0.5544E+03
      6.012  0.1079E-08  0.5544E+03
      6.055  0.7579E-10  0.5544E+03
      6.098  0.4576E-11  0.5544E+03
      6.141  0.2357E-12  0.5544E+03
      6.184  0.1000E-13  0.5544E+03
      6.227  0.3873E-15  0.5544E+03
      6.270  0.0000E+00  0.5544E+03
      6.313  0.0000E+00  0.5544E+03
      6.356  0.0000E+00  0.5544E+03
      6.399  0.0000E+00  0.5544E+03
      6.442  0.0000E+00  0.5544E+03
      6.485  0.0000E+00  0.5544E+03
      6.528  0.0000E+00  0.5544E+03
      6.571  0.0000E+00  0.5544E+03
      6.614  0.0000E+00  0.5544E+03
      6.657  0.0000E+00  0.5544E+03
      6.700  0.0000E+00  0.5544E+03
      6.743  0.0000E+00  0.5544E+03
      6.786  0.0000E+00  0.5544E+03
      6.829  0.0000E+00  0.5544E+03
