<?xml version="1.0" encoding="ISO-8859-1"?>
<modeling>
 <generator>
  <i name="program" type="string">vasp </i>
  <i name="version" type="string">5.4.4.18Apr17-6-g9f103f2a35  </i>
  <i name="subversion" type="string">(build Sep 27 2018 12:46:37) complex + VL-xray_ parallel </i>
  <i name="platform" type="string">LLNL_Quartz_ifc </i>
  <i name="date" type="string">2021 09 26 </i>
  <i name="time" type="string">20:43:17 </i>
 </generator>
 <incar>
  <i type="int" name="ISTART">     2</i>
  <i type="string" name="PREC">accurate</i>
  <i type="string" name="ALGO"> Fast</i>
  <i type="int" name="ICHARG">     2</i>
  <i type="int" name="INIWAV">     1</i>
  <i type="int" name="NELM">   100</i>
  <i type="int" name="NELMIN">     4</i>
  <i type="int" name="IBRION">     2</i>
  <i name="EDIFF">      0.00000100</i>
  <i type="int" name="NSW">     5</i>
  <i type="int" name="ISIF">     2</i>
  <i type="int" name="ISYM">     2</i>
  <i name="ENCUT">    450.00000000</i>
  <i name="POTIM">      0.25000000</i>
  <i type="string" name="LREAL"> Auto</i>
  <i type="int" name="ISMEAR">     0</i>
  <i name="SIGMA">      0.15000000</i>
  <i type="logical" name="LWAVE"> F  </i>
  <i type="logical" name="LCHARG"> F  </i>
  <i type="int" name="ICORELEVEL">     0</i>
  <i type="int" name="CLNT">     1</i>
  <i type="int" name="CLN">     1</i>
  <i type="int" name="INCAR     ">     0</i>
  <i name="CLZ">      0.00000000</i>
  <v type="int" name="KPOINT_BSE">    -1     0     0     0</v>
  <i type="int" name="NELM">   100</i>
 </incar>
 <structure name="primitive_cell" >
  <crystal>
   <varray name="basis" >
    <v>       9.72667804       0.00000000       0.00000000 </v>
    <v>       0.00000000       8.42355028       0.00000000 </v>
    <v>       0.00000000       0.00000000      45.00000000 </v>
   </varray>
   <i name="volume">   3686.99226691 </i>
   <varray name="rec_basis" >
    <v>       0.10281002       0.00000000       0.00000000 </v>
    <v>       0.00000000       0.11871479       0.00000000 </v>
    <v>       0.00000000       0.00000000       0.02222222 </v>
   </varray>
  </crystal>
  <varray name="positions" >
   <v>       0.06152733       0.03087633       0.12453091 </v>
   <v>      -0.05809052       0.11202813       0.16697174 </v>
   <v>       0.06701957      -0.13625394       0.16691978 </v>
   <v>      -0.06194463      -0.21375197       0.12432656 </v>
   <v>       0.19293373       0.11367960       0.16702924 </v>
   <v>       0.18887281      -0.21404665       0.12465601 </v>
   <v>      -0.18770163       0.03045372       0.12443037 </v>
   <v>       0.31302005       0.03229802       0.12462200 </v>
   <v>      -0.06062726       0.28694847       0.12459214 </v>
   <v>       0.18978908       0.28738694       0.12457248 </v>
   <v>      -0.18103724      -0.13561126       0.16687247 </v>
   <v>       0.06787884       0.36401811       0.16698267 </v>
   <v>       0.31806479      -0.13788427       0.16687337 </v>
   <v>      -0.30693038       0.11331495       0.16720428 </v>
   <v>      -0.18157181       0.36329218       0.16716007 </v>
   <v>       0.18081887      -0.04642456       0.21187601 </v>
   <v>      -0.30934511      -0.21416371       0.12462553 </v>
   <v>      -0.05735337      -0.38666180       0.16724096 </v>
   <v>      -0.06707465      -0.04621391       0.21229935 </v>
   <v>       0.31929792       0.36244839       0.16632125 </v>
   <v>       0.05804695       0.20531522       0.21191995 </v>
   <v>       0.19300525      -0.38717927       0.16670581 </v>
   <v>       0.06197572      -0.47032026       0.12435277 </v>
   <v>      -0.30935748       0.28720859       0.12459817 </v>
   <v>       0.43999560      -0.21137897       0.12482434 </v>
   <v>       0.44180847       0.11239633       0.16681019 </v>
   <v>       0.43919918       0.28643338       0.12455014 </v>
   <v>       0.05683423      -0.29576732       0.21166299 </v>
   <v>       0.30719794       0.20462680       0.21197829 </v>
   <v>      -0.18725107      -0.46962057       0.12420845 </v>
   <v>      -0.43882298       0.03125127       0.12449790 </v>
   <v>       0.31149164      -0.46888836       0.12441142 </v>
   <v>      -0.19255265       0.20534661       0.21177607 </v>
   <v>       0.30808456      -0.29636500       0.21154102 </v>
   <v>      -0.43234887      -0.13796316       0.16682931 </v>
   <v>      -0.30786877      -0.38615124       0.16692090 </v>
   <v>       0.43286108      -0.04672084       0.21181596 </v>
   <v>      -0.19137630      -0.29557119       0.21179328 </v>
   <v>      -0.31615422      -0.04560475       0.21195753 </v>
   <v>       0.18236859       0.45419156       0.21201290 </v>
   <v>      -0.06682696       0.45530540       0.21173279 </v>
   <v>       0.44254526      -0.38741719       0.16667169 </v>
   <v>      -0.43185430       0.36348833       0.16687517 </v>
   <v>       0.06607795       0.03616460       0.25586977 </v>
   <v>      -0.05891392      -0.21336921       0.25595066 </v>
   <v>      -0.18459522       0.03555099       0.25603206 </v>
   <v>       0.19089186      -0.21342902       0.25615151 </v>
   <v>      -0.44145848       0.20462736       0.21186935 </v>
   <v>      -0.05929433       0.28577327       0.25598271 </v>
   <v>       0.31595491       0.03635844       0.25589488 </v>
   <v>      -0.43622389      -0.46815018       0.12441057 </v>
   <v>       0.43300352       0.45355550       0.21206674 </v>
   <v>       0.19101515       0.28700077       0.25603226 </v>
   <v>      -0.31793210       0.45368096       0.21169001 </v>
   <v>      -0.44272523      -0.29607753       0.21168037 </v>
   <v>      -0.30931783      -0.21370122       0.25607043 </v>
   <v>       0.06587461      -0.46387943       0.25614184 </v>
   <v>      -0.30911736       0.28666499       0.25601208 </v>
   <v>       0.44096603      -0.21315048       0.25616416 </v>
   <v>       0.44101911       0.28714624       0.25586074 </v>
   <v>      -0.18458081      -0.46373595       0.25608877 </v>
   <v>      -0.43438909       0.03677288       0.25587149 </v>
   <v>       0.31533439      -0.46349772       0.25600875 </v>
   <v>       0.05436114      -0.12709364       0.30033498 </v>
   <v>       0.17998357       0.12315695       0.30046993 </v>
   <v>      -0.07071564       0.12307692       0.30037723 </v>
   <v>       0.30438797      -0.12743334       0.30034761 </v>
   <v>      -0.19554837      -0.12695708       0.30033727 </v>
   <v>       0.05427515       0.37246998       0.30044240 </v>
   <v>      -0.43410678      -0.46349935       0.25609640 </v>
   <v>       0.17942286      -0.37666849       0.30027074 </v>
   <v>       0.42923040       0.12285625       0.30035000 </v>
   <v>      -0.07068421      -0.37746744       0.30038152 </v>
   <v>       0.30413414       0.37275301       0.30036835 </v>
   <v>      -0.32078862       0.12291707       0.30037531 </v>
   <v>      -0.19573365       0.37281748       0.30038570 </v>
   <v>       0.42940080      -0.37684759       0.30030245 </v>
   <v>      -0.44568546      -0.12792534       0.30042704 </v>
   <v>      -0.32041744      -0.37731969       0.30014447 </v>
   <v>      -0.44559110       0.37268292       0.30036111 </v>
   <v>      -0.05854942      -0.04759175       0.34504475 </v>
   <v>       0.06620077       0.20174041       0.34491411 </v>
   <v>       0.19135333      -0.04818940       0.34499931 </v>
   <v>       0.06641676      -0.29801891       0.34498684 </v>
   <v>      -0.18333027       0.20188414       0.34491289 </v>
   <v>       0.31619884       0.20163468       0.34487596 </v>
   <v>      -0.18349983      -0.29786844       0.34503219 </v>
   <v>      -0.30859394      -0.04805055       0.34498190 </v>
   <v>       0.31631255      -0.29834727       0.34495200 </v>
   <v>      -0.05872221       0.45208636       0.34489896 </v>
   <v>       0.44132994      -0.04788571       0.34491978 </v>
   <v>       0.19143193       0.45189654       0.34497121 </v>
   <v>      -0.43363352       0.20170247       0.34494027 </v>
   <v>      -0.30866929       0.45192783       0.34496818 </v>
   <v>       0.44137835       0.45187329       0.34496366 </v>
   <v>       0.06379499       0.04204036      -0.12437771 </v>
   <v>      -0.43365490      -0.29754343       0.34496159 </v>
   <v>      -0.06082336      -0.20605678      -0.12436579 </v>
   <v>       0.18910861      -0.20599372      -0.12435828 </v>
   <v>      -0.18616190       0.04220520      -0.12437900 </v>
   <v>       0.31382622       0.04221646      -0.12438200 </v>
   <v>      -0.06090568       0.29398767      -0.12435862 </v>
   <v>       0.18906816       0.29398846      -0.12435965 </v>
   <v>       0.05860755       0.03744221       0.38908657 </v>
   <v>       0.06365796      -0.45809647      -0.12442098 </v>
   <v>      -0.31092820      -0.20603522      -0.12436863 </v>
   <v>       0.43908064      -0.20604264      -0.12436470 </v>
   <v>      -0.31094303       0.29396405      -0.12435599 </v>
   <v>       0.43907833       0.29401586      -0.12436205 </v>
   <v>       0.18350134      -0.21243848       0.38907048 </v>
   <v>      -0.06632944      -0.21253932       0.38904629 </v>
   <v>       0.30860439       0.03756656       0.38905013 </v>
   <v>      -0.19116493       0.03741413       0.38903858 </v>
   <v>       0.18361747       0.28796417       0.38906951 </v>
   <v>      -0.06639058       0.28749975       0.38906669 </v>
   <v>      -0.18632151      -0.45793934      -0.12440931 </v>
   <v>       0.31375887      -0.45786458      -0.12438648 </v>
   <v>      -0.43613740       0.04220099      -0.12437515 </v>
   <v>       0.05853607      -0.46246517       0.38906951 </v>
   <v>       0.43374965      -0.21256204       0.38903735 </v>
   <v>      -0.31639460      -0.21257463       0.38904055 </v>
   <v>       0.43344044       0.28767834       0.38908203 </v>
   <v>      -0.31637506       0.28761702       0.38908395 </v>
   <v>       0.30876956      -0.46250846       0.38902947 </v>
   <v>      -0.19152087      -0.46240616       0.38908049 </v>
   <v>      -0.44146706       0.03747929       0.38906397 </v>
   <v>      -0.43624766      -0.45782320      -0.12439196 </v>
   <v>       0.18351130      -0.03732885      -0.16685081 </v>
   <v>      -0.06648463      -0.03734585      -0.16684187 </v>
   <v>       0.05854838       0.21268513      -0.16684093 </v>
   <v>       0.05846374      -0.28724845      -0.16684323 </v>
   <v>       0.30850274       0.21269344      -0.16682712 </v>
   <v>      -0.19152282       0.21268761      -0.16683578 </v>
   <v>      -0.44137869      -0.46257140       0.38907509 </v>
   <v>       0.30847554      -0.28718369      -0.16683269 </v>
   <v>      -0.19157831      -0.28727684      -0.16683392 </v>
   <v>       0.43343577      -0.03731851      -0.16685029 </v>
   <v>      -0.31657098      -0.03728465      -0.16685242 </v>
   <v>       0.18346076       0.46274888      -0.16685161 </v>
   <v>      -0.06656914       0.46260696      -0.16684260 </v>
   <v>       0.06256614      -0.12962108       0.43446952 </v>
   <v>      -0.06196549       0.12036363       0.43442993 </v>
   <v>       0.18804890       0.12018402       0.43449591 </v>
   <v>      -0.44155032       0.21270328      -0.16683754 </v>
   <v>       0.43340908       0.46270462      -0.16685086 </v>
   <v>      -0.31651064       0.46274752      -0.16685019 </v>
   <v>       0.31303906      -0.12929008       0.43435118 </v>
   <v>      -0.18700766      -0.12934431       0.43449266 </v>
   <v>      -0.44147950      -0.28730857      -0.16683833 </v>
   <v>       0.06307854       0.37042348       0.43444265 </v>
   <v>       0.18807705      -0.37931376       0.43435154 </v>
   <v>      -0.06228478      -0.37966284       0.43442664 </v>
   <v>      -0.31250693       0.12031400       0.43445577 </v>
   <v>       0.31204156       0.37090409       0.43429503 </v>
   <v>       0.43788147       0.12040788       0.43443621 </v>
   <v>      -0.18745417       0.37045113       0.43446047 </v>
   <v>      -0.31190086      -0.37964251       0.43438602 </v>
   <v>      -0.43748810      -0.12887692       0.43438684 </v>
   <v>       0.43780329      -0.37934308       0.43454223 </v>
   <v>      -0.43654288       0.37049516       0.43418769 </v>
   <v>       0.06917819      -0.12647552      -0.21159476 </v>
   <v>      -0.05588568       0.12354950      -0.21157175 </v>
   <v>       0.19417042       0.12365845      -0.21157351 </v>
   <v>      -0.18077543      -0.12647632      -0.21160863 </v>
   <v>       0.31910091      -0.12655612      -0.21158663 </v>
   <v>       0.06914075       0.37344165      -0.21159408 </v>
   <v>      -0.05564117      -0.37631148      -0.21157925 </v>
   <v>      -0.30598790       0.12358674      -0.21155124 </v>
   <v>       0.19428846      -0.37637323      -0.21159863 </v>
   <v>      -0.18088561       0.37358005      -0.21159087 </v>
   <v>       0.44432013       0.12335149      -0.21154044 </v>
   <v>       0.31915279       0.37339840      -0.21161142 </v>
   <v>      -0.30542541      -0.37652838      -0.21153976 </v>
   <v>      -0.43085938      -0.12648464      -0.21158365 </v>
   <v>       0.44432295      -0.37643224      -0.21159272 </v>
   <v>      -0.06223358      -0.04420091       0.47858502 </v>
   <v>       0.18784076      -0.04413413       0.47858403 </v>
   <v>       0.06274976       0.20572932       0.47861642 </v>
   <v>      -0.43079903       0.37324112      -0.21158007 </v>
   <v>       0.06342272      -0.29477468       0.47857217 </v>
   <v>      -0.18719055       0.20587382       0.47862168 </v>
   <v>       0.31289383       0.20593089       0.47862062 </v>
   <v>      -0.18719632      -0.29428929       0.47863589 </v>
   <v>       0.31230579      -0.29443589       0.47866388 </v>
   <v>      -0.31218144      -0.04415863       0.47861707 </v>
   <v>       0.43790675      -0.04416399       0.47861912 </v>
   <v>      -0.06225485       0.45580606       0.47863396 </v>
   <v>       0.18789547       0.45587952       0.47862415 </v>
   <v>      -0.43728352       0.20564683       0.47846416 </v>
   <v>      -0.31226923       0.45572437       0.47865033 </v>
   <v>       0.43777528       0.45563765       0.47866899 </v>
   <v>      -0.43710413      -0.29419125       0.47863494 </v>
   <v>       0.06013076       0.04117273      -0.25593832 </v>
   <v>      -0.06470204      -0.20888209      -0.25587706 </v>
   <v>       0.18512033      -0.20904938      -0.25592711 </v>
   <v>       0.31022316       0.04118047      -0.25592873 </v>
   <v>      -0.18974822       0.04108812      -0.25588458 </v>
   <v>       0.18504129       0.29094116      -0.25592518 </v>
   <v>      -0.06472338       0.29133378      -0.25587519 </v>
   <v>       0.06025122      -0.45873279      -0.25588995 </v>
   <v>       0.43518891      -0.20902976      -0.25594463 </v>
   <v>      -0.31481100      -0.20891936      -0.25589582 </v>
   <v>       0.43528688       0.29092790      -0.25589223 </v>
   <v>      -0.31473138       0.29129600      -0.25586693 </v>
   <v>       0.31014754      -0.45881124      -0.25591759 </v>
   <v>      -0.18978916      -0.45879984      -0.25592577 </v>
   <v>      -0.43980853       0.04118722      -0.25592917 </v>
   <v>       0.06324489      -0.12816604      -0.47875144 </v>
   <v>      -0.06146041       0.12198043      -0.47874390 </v>
   <v>       0.18838257       0.12198305      -0.47874766 </v>
   <v>      -0.18668365      -0.12804929      -0.47861664 </v>
   <v>       0.31363351      -0.12771473      -0.47868542 </v>
   <v>       0.06346531       0.37226360      -0.47865654 </v>
   <v>      -0.06167630      -0.37820706      -0.47870366 </v>
   <v>       0.18820066      -0.37809489      -0.47863269 </v>
   <v>      -0.31143822       0.12196757      -0.47867482 </v>
   <v>      -0.18670232       0.37188340      -0.47869398 </v>
   <v>       0.43815893       0.12196565      -0.47862115 </v>
   <v>       0.31323151       0.37195941      -0.47862712 </v>
   <v>      -0.43999231      -0.45889601      -0.25590356 </v>
   <v>      -0.31143694      -0.37790541      -0.47864811 </v>
   <v>      -0.43695384      -0.12758629      -0.47862313 </v>
   <v>       0.43828074      -0.37805095      -0.47862471 </v>
   <v>      -0.43646239       0.37197823      -0.47874466 </v>
   <v>      -0.06016438      -0.04184423      -0.30033516 </v>
   <v>       0.18973426      -0.04204716      -0.30036347 </v>
   <v>       0.06465536       0.20796086      -0.30035014 </v>
   <v>       0.06473708      -0.29184545      -0.30034208 </v>
   <v>      -0.18540760       0.20802621      -0.30041237 </v>
   <v>       0.31477531       0.20810071      -0.30033675 </v>
   <v>      -0.18544569      -0.29242166      -0.30034669 </v>
   <v>      -0.31024029      -0.04195921      -0.30034353 </v>
   <v>       0.31476892      -0.29192319      -0.30034849 </v>
   <v>       0.43989535      -0.04203605      -0.30031519 </v>
   <v>      -0.06020252       0.45798138      -0.30036421 </v>
   <v>       0.19016867       0.45787936      -0.30043016 </v>
   <v>      -0.43525516       0.20795585      -0.30037113 </v>
   <v>      -0.31005063       0.45795492      -0.30036056 </v>
   <v>       0.43971370       0.45772434      -0.30039644 </v>
   <v>       0.18851744      -0.04292730      -0.43475833 </v>
   <v>      -0.06174163      -0.04213170      -0.43461388 </v>
   <v>       0.06360961       0.20758557      -0.43453703 </v>
   <v>      -0.43538191      -0.29186030      -0.30031612 </v>
   <v>       0.06359319      -0.29305478      -0.43446317 </v>
   <v>      -0.18633098       0.20755705      -0.43460296 </v>
   <v>       0.31394802       0.20711470      -0.43454151 </v>
   <v>      -0.18662510      -0.29206077      -0.43466333 </v>
   <v>      -0.31129463      -0.04233010      -0.43461315 </v>
   <v>       0.31316613      -0.29265249      -0.43448770 </v>
   <v>       0.43860361      -0.04253794      -0.43451621 </v>
   <v>      -0.06124790       0.45746328      -0.43458010 </v>
   <v>       0.18892826       0.45768542      -0.43456946 </v>
   <v>      -0.43706543       0.20738238      -0.43462923 </v>
   <v>      -0.31170785       0.45789841      -0.43457927 </v>
   <v>       0.43814869       0.45789365      -0.43466674 </v>
   <v>      -0.43647724      -0.29228636      -0.43468298 </v>
   <v>       0.05889467      -0.12467611      -0.34508358 </v>
   <v>       0.18361578       0.12507656      -0.34515030 </v>
   <v>      -0.06660592       0.12530423      -0.34513321 </v>
   <v>       0.30861596      -0.12469124      -0.34506997 </v>
   <v>      -0.19144808      -0.12494502      -0.34515931 </v>
   <v>       0.05868979       0.37528119      -0.34512043 </v>
   <v>       0.18376145      -0.37446998      -0.34504352 </v>
   <v>      -0.06645307      -0.37509931      -0.34509048 </v>
   <v>       0.43367596       0.12524573      -0.34513484 </v>
   <v>      -0.31612237       0.12553685      -0.34502924 </v>
   <v>       0.30859130       0.37512473      -0.34507093 </v>
   <v>      -0.19174741       0.37539835      -0.34533623 </v>
   <v>       0.43385862      -0.37431011      -0.34509466 </v>
   <v>      -0.44143994      -0.12481771      -0.34510355 </v>
   <v>      -0.31637005      -0.37501593      -0.34506186 </v>
   <v>      -0.44117577       0.37535305      -0.34508162 </v>
   <v>       0.06333040       0.04111408      -0.38927031 </v>
   <v>       0.18815120      -0.20858563      -0.38924070 </v>
   <v>      -0.06228371      -0.20820981      -0.38914985 </v>
   <v>      -0.18679912       0.04147858      -0.38923912 </v>
   <v>       0.31312200       0.04125433      -0.38921069 </v>
   <v>      -0.06170847       0.29128026      -0.38932346 </v>
   <v>       0.18865777       0.29084042      -0.38926010 </v>
   <v>       0.06260851      -0.45827253      -0.38911210 </v>
   <v>       0.43821646      -0.20907933      -0.38932750 </v>
   <v>      -0.31173979      -0.20863502      -0.38918608 </v>
   <v>      -0.31151532       0.29132589      -0.38932877 </v>
   <v>       0.43812425       0.29052708      -0.38925410 </v>
   <v>       0.31329814      -0.45888138      -0.38931039 </v>
   <v>      -0.18736917      -0.45828597      -0.38906284 </v>
   <v>      -0.43691621       0.04106412      -0.38929292 </v>
   <v>      -0.43686922      -0.45875849      -0.38923128 </v>
  </varray>
 </structure>
 <varray name="primitive_index" >
  <v type="int" >        1 </v>
  <v type="int" >       26 </v>
  <v type="int" >       60 </v>
  <v type="int" >      212 </v>
  <v type="int" >      125 </v>
  <v type="int" >       83 </v>
  <v type="int" >      202 </v>
  <v type="int" >      256 </v>
  <v type="int" >      155 </v>
  <v type="int" >      111 </v>
  <v type="int" >      102 </v>
  <v type="int" >       51 </v>
  <v type="int" >      192 </v>
  <v type="int" >      166 </v>
  <v type="int" >      252 </v>
  <v type="int" >      146 </v>
  <v type="int" >      163 </v>
  <v type="int" >      104 </v>
  <v type="int" >      286 </v>
  <v type="int" >      283 </v>
  <v type="int" >       50 </v>
  <v type="int" >       20 </v>
  <v type="int" >      176 </v>
  <v type="int" >      145 </v>
  <v type="int" >      282 </v>
  <v type="int" >      182 </v>
  <v type="int" >      117 </v>
  <v type="int" >      250 </v>
  <v type="int" >      123 </v>
  <v type="int" >      205 </v>
  <v type="int" >      251 </v>
  <v type="int" >       91 </v>
  <v type="int" >      167 </v>
  <v type="int" >      276 </v>
  <v type="int" >      277 </v>
  <v type="int" >       97 </v>
  <v type="int" >      229 </v>
  <v type="int" >      213 </v>
  <v type="int" >       92 </v>
  <v type="int" >      189 </v>
  <v type="int" >      175 </v>
  <v type="int" >      174 </v>
  <v type="int" >       30 </v>
  <v type="int" >      185 </v>
  <v type="int" >       52 </v>
  <v type="int" >       24 </v>
  <v type="int" >      200 </v>
  <v type="int" >      103 </v>
  <v type="int" >      127 </v>
  <v type="int" >      179 </v>
  <v type="int" >      164 </v>
  <v type="int" >      139 </v>
  <v type="int" >       35 </v>
  <v type="int" >      261 </v>
  <v type="int" >      243 </v>
  <v type="int" >      118 </v>
  <v type="int" >      168 </v>
  <v type="int" >       58 </v>
  <v type="int" >      137 </v>
  <v type="int" >      265 </v>
  <v type="int" >       81 </v>
  <v type="int" >      281 </v>
  <v type="int" >      275 </v>
  <v type="int" >      214 </v>
  <v type="int" >      215 </v>
  <v type="int" >      135 </v>
  <v type="int" >       98 </v>
  <v type="int" >       72 </v>
  <v type="int" >      226 </v>
  <v type="int" >       28 </v>
  <v type="int" >      263 </v>
  <v type="int" >      159 </v>
  <v type="int" >      178 </v>
  <v type="int" >      242 </v>
  <v type="int" >      109 </v>
  <v type="int" >      220 </v>
  <v type="int" >      101 </v>
  <v type="int" >      210 </v>
  <v type="int" >      130 </v>
  <v type="int" >      171 </v>
  <v type="int" >      194 </v>
  <v type="int" >       47 </v>
  <v type="int" >      258 </v>
  <v type="int" >      216 </v>
  <v type="int" >      207 </v>
  <v type="int" >       86 </v>
  <v type="int" >       73 </v>
  <v type="int" >       25 </v>
  <v type="int" >      208 </v>
  <v type="int" >       12 </v>
  <v type="int" >      172 </v>
  <v type="int" >      116 </v>
  <v type="int" >      219 </v>
  <v type="int" >      279 </v>
  <v type="int" >      206 </v>
  <v type="int" >       84 </v>
  <v type="int" >       62 </v>
  <v type="int" >      105 </v>
  <v type="int" >      268 </v>
  <v type="int" >       14 </v>
  <v type="int" >      245 </v>
  <v type="int" >      280 </v>
  <v type="int" >      120 </v>
  <v type="int" >      124 </v>
  <v type="int" >      266 </v>
  <v type="int" >       29 </v>
  <v type="int" >      150 </v>
  <v type="int" >      191 </v>
  <v type="int" >      255 </v>
  <v type="int" >        7 </v>
  <v type="int" >      190 </v>
  <v type="int" >      165 </v>
  <v type="int" >       48 </v>
  <v type="int" >      248 </v>
  <v type="int" >       13 </v>
  <v type="int" >      247 </v>
  <v type="int" >       18 </v>
  <v type="int" >      161 </v>
  <v type="int" >      273 </v>
  <v type="int" >      264 </v>
  <v type="int" >       45 </v>
  <v type="int" >        4 </v>
  <v type="int" >       55 </v>
  <v type="int" >       67 </v>
  <v type="int" >      270 </v>
  <v type="int" >       16 </v>
  <v type="int" >       64 </v>
  <v type="int" >      173 </v>
  <v type="int" >       17 </v>
  <v type="int" >      259 </v>
  <v type="int" >      134 </v>
  <v type="int" >       39 </v>
  <v type="int" >        6 </v>
  <v type="int" >      222 </v>
  <v type="int" >        5 </v>
  <v type="int" >      253 </v>
  <v type="int" >      110 </v>
  <v type="int" >       88 </v>
  <v type="int" >      181 </v>
  <v type="int" >       36 </v>
  <v type="int" >      204 </v>
  <v type="int" >      158 </v>
  <v type="int" >      160 </v>
  <v type="int" >      143 </v>
  <v type="int" >       74 </v>
  <v type="int" >       82 </v>
  <v type="int" >       23 </v>
  <v type="int" >      235 </v>
  <v type="int" >      241 </v>
  <v type="int" >      218 </v>
  <v type="int" >      238 </v>
  <v type="int" >      131 </v>
  <v type="int" >      257 </v>
  <v type="int" >      113 </v>
  <v type="int" >      201 </v>
  <v type="int" >       80 </v>
  <v type="int" >      232 </v>
  <v type="int" >       69 </v>
  <v type="int" >      249 </v>
  <v type="int" >      285 </v>
  <v type="int" >      197 </v>
  <v type="int" >      149 </v>
  <v type="int" >        3 </v>
  <v type="int" >      112 </v>
  <v type="int" >      224 </v>
  <v type="int" >      254 </v>
  <v type="int" >      132 </v>
  <v type="int" >      188 </v>
  <v type="int" >      272 </v>
  <v type="int" >       57 </v>
  <v type="int" >       49 </v>
  <v type="int" >      138 </v>
  <v type="int" >       66 </v>
  <v type="int" >       33 </v>
  <v type="int" >      184 </v>
  <v type="int" >      236 </v>
  <v type="int" >      288 </v>
  <v type="int" >      223 </v>
  <v type="int" >      106 </v>
  <v type="int" >      157 </v>
  <v type="int" >       21 </v>
  <v type="int" >      230 </v>
  <v type="int" >      234 </v>
  <v type="int" >       99 </v>
  <v type="int" >       75 </v>
  <v type="int" >      221 </v>
  <v type="int" >      269 </v>
  <v type="int" >      244 </v>
  <v type="int" >      237 </v>
  <v type="int" >      199 </v>
  <v type="int" >      156 </v>
  <v type="int" >      169 </v>
  <v type="int" >        9 </v>
  <v type="int" >       46 </v>
  <v type="int" >      262 </v>
  <v type="int" >      239 </v>
  <v type="int" >      151 </v>
  <v type="int" >       11 </v>
  <v type="int" >      187 </v>
  <v type="int" >      211 </v>
  <v type="int" >       31 </v>
  <v type="int" >       43 </v>
  <v type="int" >       71 </v>
  <v type="int" >       19 </v>
  <v type="int" >       94 </v>
  <v type="int" >       87 </v>
  <v type="int" >      267 </v>
  <v type="int" >        2 </v>
  <v type="int" >       27 </v>
  <v type="int" >      140 </v>
  <v type="int" >       10 </v>
  <v type="int" >      144 </v>
  <v type="int" >      107 </v>
  <v type="int" >      203 </v>
  <v type="int" >       68 </v>
  <v type="int" >       34 </v>
  <v type="int" >      177 </v>
  <v type="int" >      152 </v>
  <v type="int" >      183 </v>
  <v type="int" >      278 </v>
  <v type="int" >      195 </v>
  <v type="int" >       77 </v>
  <v type="int" >      284 </v>
  <v type="int" >      108 </v>
  <v type="int" >      225 </v>
  <v type="int" >      119 </v>
  <v type="int" >       37 </v>
  <v type="int" >      274 </v>
  <v type="int" >      233 </v>
  <v type="int" >       63 </v>
  <v type="int" >      141 </v>
  <v type="int" >       54 </v>
  <v type="int" >      154 </v>
  <v type="int" >       38 </v>
  <v type="int" >      136 </v>
  <v type="int" >      246 </v>
  <v type="int" >       53 </v>
  <v type="int" >       76 </v>
  <v type="int" >      193 </v>
  <v type="int" >      162 </v>
  <v type="int" >      129 </v>
  <v type="int" >      170 </v>
  <v type="int" >      133 </v>
  <v type="int" >       65 </v>
  <v type="int" >      271 </v>
  <v type="int" >       93 </v>
  <v type="int" >       32 </v>
  <v type="int" >       95 </v>
  <v type="int" >       90 </v>
  <v type="int" >       56 </v>
  <v type="int" >       42 </v>
  <v type="int" >       59 </v>
  <v type="int" >        8 </v>
  <v type="int" >      228 </v>
  <v type="int" >       70 </v>
  <v type="int" >      186 </v>
  <v type="int" >      196 </v>
  <v type="int" >      121 </v>
  <v type="int" >      122 </v>
  <v type="int" >       44 </v>
  <v type="int" >       79 </v>
  <v type="int" >      198 </v>
  <v type="int" >      153 </v>
  <v type="int" >      240 </v>
  <v type="int" >      231 </v>
  <v type="int" >      209 </v>
  <v type="int" >       85 </v>
  <v type="int" >      287 </v>
  <v type="int" >       40 </v>
  <v type="int" >       89 </v>
  <v type="int" >      227 </v>
  <v type="int" >       78 </v>
  <v type="int" >      142 </v>
  <v type="int" >       15 </v>
  <v type="int" >      114 </v>
  <v type="int" >      217 </v>
  <v type="int" >      148 </v>
  <v type="int" >      100 </v>
  <v type="int" >       61 </v>
  <v type="int" >      126 </v>
  <v type="int" >       96 </v>
  <v type="int" >      180 </v>
  <v type="int" >      147 </v>
  <v type="int" >      115 </v>
  <v type="int" >       41 </v>
  <v type="int" >       22 </v>
  <v type="int" >      260 </v>
  <v type="int" >      128 </v>
 </varray>
 <kpoints>
  <generation param="Gamma">
   <v type="int" name="divisions">       4        4        1 </v>
   <v name="usershift">      0.00000000       0.00000000       0.00000000 </v>
   <v name="genvec1">      0.25000000       0.00000000       0.00000000 </v>
   <v name="genvec2">      0.00000000       0.25000000       0.00000000 </v>
   <v name="genvec3">      0.00000000       0.00000000       1.00000000 </v>
   <v name="shift">      0.00000000       0.00000000       0.00000000 </v>
  </generation>
  <varray name="kpointlist" >
   <v>       0.00000000       0.00000000       0.00000000 </v>
   <v>       0.25000000       0.00000000       0.00000000 </v>
   <v>       0.50000000       0.00000000       0.00000000 </v>
   <v>       0.00000000       0.25000000       0.00000000 </v>
   <v>       0.25000000       0.25000000       0.00000000 </v>
   <v>       0.50000000       0.25000000       0.00000000 </v>
   <v>      -0.25000000       0.25000000       0.00000000 </v>
   <v>       0.00000000       0.50000000       0.00000000 </v>
   <v>       0.25000000       0.50000000       0.00000000 </v>
   <v>       0.50000000       0.50000000       0.00000000 </v>
  </varray>
  <varray name="weights" >
   <v>       0.06250000 </v>
   <v>       0.12500000 </v>
   <v>       0.06250000 </v>
   <v>       0.12500000 </v>
   <v>       0.12500000 </v>
   <v>       0.12500000 </v>
   <v>       0.12500000 </v>
   <v>       0.06250000 </v>
   <v>       0.12500000 </v>
   <v>       0.06250000 </v>
  </varray>
 </kpoints>
 <parameters>
  <separator name="general" >
   <i type="string" name="SYSTEM">unknown system</i>
   <i type="logical" name="LCOMPAT"> F  </i>
  </separator>
  <separator name="electronic" >
   <i type="string" name="PREC">accura</i>
   <i name="ENMAX">    450.00000000</i>
   <i name="ENAUG">    838.43500000</i>
   <i name="EDIFF">      0.00000100</i>
   <i type="int" name="IALGO">    68</i>
   <i type="int" name="IWAVPR">    11</i>
   <i type="int" name="NBANDS">  1386</i>
   <i name="NELECT">   2297.00000000</i>
   <i type="int" name="TURBO">     0</i>
   <i type="int" name="IRESTART">     0</i>
   <i type="int" name="NREBOOT">     0</i>
   <i type="int" name="NMIN">     0</i>
   <i name="EREF">      0.00000000</i>
   <separator name="electronic smearing" >
    <i type="int" name="ISMEAR">     0</i>
    <i name="SIGMA">      0.15000000</i>
    <i name="KSPACING">      0.50000000</i>
    <i type="logical" name="KGAMMA"> T  </i>
   </separator>
   <separator name="electronic projectors" >
    <i type="logical" name="LREAL"> T  </i>
    <v name="ROPT">     -0.00025000     -0.00025000</v>
    <i type="int" name="LMAXPAW">  -100</i>
    <i type="int" name="LMAXMIX">     2</i>
    <i type="logical" name="NLSPLINE"> F  </i>
   </separator>
   <separator name="electronic startup" >
    <i type="int" name="ISTART">     0</i>
    <i type="int" name="ICHARG">     2</i>
    <i type="int" name="INIWAV">     1</i>
   </separator>
   <separator name="electronic spin" >
    <i type="int" name="ISPIN">     1</i>
    <i type="logical" name="LNONCOLLINEAR"> F  </i>
    <v name="MAGMOM">      1.00000000      1.00000000      1.00000000      1.00000000      1.00000000      1.00000000      1.00000000      1.00000000      1.00000000      1.00000000      1.00000000      1.00000000      1.00000000      1.00000000      1.00000000      1.00000000      1.00000000      1.00000000      1.00000000      1.00000000
      1.00000000      1.00000000      1.00000000      1.00000000      1.00000000      1.00000000      1.00000000      1.00000000      1.00000000      1.00000000      1.00000000      1.00000000      1.00000000      1.00000000      1.00000000      1.00000000      1.00000000      1.00000000      1.00000000      1.00000000
      1.00000000      1.00000000      1.00000000      1.00000000      1.00000000      1.00000000      1.00000000      1.00000000      1.00000000      1.00000000      1.00000000      1.00000000      1.00000000      1.00000000      1.00000000      1.00000000      1.00000000      1.00000000      1.00000000      1.00000000
      1.00000000      1.00000000      1.00000000      1.00000000      1.00000000      1.00000000      1.00000000      1.00000000      1.00000000      1.00000000      1.00000000      1.00000000      1.00000000      1.00000000      1.00000000      1.00000000      1.00000000      1.00000000      1.00000000      1.00000000
      1.00000000      1.00000000      1.00000000      1.00000000      1.00000000      1.00000000      1.00000000      1.00000000      1.00000000      1.00000000      1.00000000      1.00000000      1.00000000      1.00000000      1.00000000      1.00000000      1.00000000      1.00000000      1.00000000      1.00000000
      1.00000000      1.00000000      1.00000000      1.00000000      1.00000000      1.00000000      1.00000000      1.00000000      1.00000000      1.00000000      1.00000000      1.00000000      1.00000000      1.00000000      1.00000000      1.00000000      1.00000000      1.00000000      1.00000000      1.00000000
      1.00000000      1.00000000      1.00000000      1.00000000      1.00000000      1.00000000      1.00000000      1.00000000      1.00000000      1.00000000      1.00000000      1.00000000      1.00000000      1.00000000      1.00000000      1.00000000      1.00000000      1.00000000      1.00000000      1.00000000
      1.00000000      1.00000000      1.00000000      1.00000000      1.00000000      1.00000000      1.00000000      1.00000000      1.00000000      1.00000000      1.00000000      1.00000000      1.00000000      1.00000000      1.00000000      1.00000000      1.00000000      1.00000000      1.00000000      1.00000000
      1.00000000      1.00000000      1.00000000      1.00000000      1.00000000      1.00000000      1.00000000      1.00000000      1.00000000      1.00000000      1.00000000      1.00000000      1.00000000      1.00000000      1.00000000      1.00000000      1.00000000      1.00000000      1.00000000      1.00000000
      1.00000000      1.00000000      1.00000000      1.00000000      1.00000000      1.00000000      1.00000000      1.00000000      1.00000000      1.00000000      1.00000000      1.00000000      1.00000000      1.00000000      1.00000000      1.00000000      1.00000000      1.00000000      1.00000000      1.00000000
      1.00000000      1.00000000      1.00000000      1.00000000      1.00000000      1.00000000      1.00000000      1.00000000      1.00000000      1.00000000      1.00000000      1.00000000      1.00000000      1.00000000      1.00000000      1.00000000      1.00000000      1.00000000      1.00000000      1.00000000
      1.00000000      1.00000000      1.00000000      1.00000000      1.00000000      1.00000000      1.00000000      1.00000000      1.00000000      1.00000000      1.00000000      1.00000000      1.00000000      1.00000000      1.00000000      1.00000000      1.00000000      1.00000000      1.00000000      1.00000000
      1.00000000      1.00000000      1.00000000      1.00000000      1.00000000      1.00000000      1.00000000      1.00000000      1.00000000      1.00000000      1.00000000      1.00000000      1.00000000      1.00000000      1.00000000      1.00000000      1.00000000      1.00000000      1.00000000      1.00000000
      1.00000000      1.00000000      1.00000000      1.00000000      1.00000000      1.00000000      1.00000000      1.00000000      1.00000000      1.00000000      1.00000000      1.00000000      1.00000000      1.00000000      1.00000000      1.00000000      1.00000000      1.00000000      1.00000000      1.00000000
      1.00000000      1.00000000      1.00000000      1.00000000      1.00000000      1.00000000      1.00000000      1.00000000</v>
    <i name="NUPDOWN">     -1.00000000</i>
    <i type="logical" name="LSORBIT"> F  </i>
    <v name="SAXIS">      0.00000000      0.00000000      1.00000000</v>
    <i type="logical" name="LSPIRAL"> F  </i>
    <v name="QSPIRAL">      0.00000000      0.00000000      0.00000000</v>
    <i type="logical" name="LZEROZ"> F  </i>
   </separator>
   <separator name="electronic exchange-correlation" >
    <i type="logical" name="LASPH"> F  </i>
    <i type="logical" name="LMETAGGA"> F  </i>
   </separator>
   <separator name="electronic convergence" >
    <i type="int" name="NELM">   100</i>
    <i type="int" name="NELMDL">     0</i>
    <i type="int" name="NELMIN">     4</i>
    <i name="ENINI">    450.00000000</i>
    <separator name="electronic convergence detail" >
     <i type="logical" name="LDIAG"> T  </i>
     <i type="logical" name="LSUBROT"> F  </i>
     <i name="WEIMIN">      0.00100000</i>
     <i name="EBREAK">      0.00000000</i>
     <i name="DEPER">      0.30000000</i>
     <i type="int" name="NRMM">     4</i>
     <i name="TIME">      0.40000000</i>
    </separator>
   </separator>
   <separator name="electronic mixer" >
    <i name="AMIX">      0.40000000</i>
    <i name="BMIX">      1.00000000</i>
    <i name="AMIN">      0.10000000</i>
    <i name="AMIX_MAG">      1.60000000</i>
    <i name="BMIX_MAG">      1.00000000</i>
    <separator name="electronic mixer details" >
     <i type="int" name="IMIX">     4</i>
     <i type="logical" name="MIXFIRST"> F  </i>
     <i type="int" name="MAXMIX">   -45</i>
     <i name="WC">    100.00000000</i>
     <i type="int" name="INIMIX">     1</i>
     <i type="int" name="MIXPRE">     1</i>
     <i type="int" name="MREMOVE">     5</i>
    </separator>
   </separator>
   <separator name="electronic dipolcorrection" >
    <i type="logical" name="LDIPOL"> F  </i>
    <i type="logical" name="LMONO"> F  </i>
    <i type="int" name="IDIPOL">     0</i>
    <i name="EPSILON">      1.00000000</i>
    <v name="DIPOL">   -100.00000000   -100.00000000   -100.00000000</v>
    <i name="EFIELD">      0.00000000</i>
   </separator>
  </separator>
  <separator name="grids" >
   <i type="int" name="NGX">    70</i>
   <i type="int" name="NGY">    60</i>
   <i type="int" name="NGZ">   320</i>
   <i type="int" name="NGXF">   140</i>
   <i type="int" name="NGYF">   120</i>
   <i type="int" name="NGZF">   640</i>
   <i type="logical" name="ADDGRID"> F  </i>
  </separator>
  <separator name="ionic" >
   <i type="int" name="NSW">     5</i>
   <i type="int" name="IBRION">     2</i>
   <i type="int" name="MDALGO">     0</i>
   <i type="int" name="ISIF">     2</i>
   <i name="PSTRESS">      0.00000000</i>
   <i name="EDIFFG">      0.00001000</i>
   <i type="int" name="NFREE">     1</i>
   <i name="POTIM">      0.25000000</i>
   <i name="SMASS">     -3.00000000</i>
   <i name="SCALEE">      1.00000000</i>
  </separator>
  <separator name="ionic md" >
   <i name="TEBEG">      0.00010000</i>
   <i name="TEEND">      0.00010000</i>
   <i type="int" name="NBLOCK">     1</i>
   <i type="int" name="KBLOCK">     5</i>
   <i type="int" name="NPACO">   256</i>
   <i name="APACO">     16.00000000</i>
  </separator>
  <separator name="symmetry" >
   <i type="int" name="ISYM">     2</i>
   <i name="SYMPREC">      0.00001000</i>
  </separator>
  <separator name="dos" >
   <i type="int" name="LORBIT">     0</i>
   <v name="RWIGS">     -1.00000000     -1.00000000</v>
   <i type="int" name="NEDOS">   301</i>
   <i name="EMIN">     10.00000000</i>
   <i name="EMAX">    -10.00000000</i>
   <i name="EFERMI">      0.00000000</i>
  </separator>
  <separator name="writing" >
   <i type="int" name="NWRITE">     2</i>
   <i type="logical" name="LWAVE"> F  </i>
   <i type="logical" name="LDOWNSAMPLE"> F  </i>
   <i type="logical" name="LCHARG"> F  </i>
   <i type="logical" name="LPARD"> F  </i>
   <i type="logical" name="LVTOT"> F  </i>
   <i type="logical" name="LVHAR"> F  </i>
   <i type="logical" name="LELF"> F  </i>
   <i type="logical" name="LOPTICS"> F  </i>
   <v name="STM">      0.00000000      0.00000000      0.00000000      0.00000000      0.00000000      0.00000000      0.00000000</v>
  </separator>
  <separator name="performance" >
   <i type="int" name="NPAR">    14</i>
   <i type="int" name="NSIM">     4</i>
   <i type="int" name="NBLK">    -1</i>
   <i type="logical" name="LPLANE"> T  </i>
   <i type="logical" name="LSCALAPACK"> T  </i>
   <i type="logical" name="LSCAAWARE"> T  </i>
   <i type="logical" name="LSCALU"> F  </i>
   <i type="logical" name="LASYNC"> F  </i>
   <i type="logical" name="LORBITALREAL"> F  </i>
  </separator>
  <separator name="miscellaneous" >
   <i type="int" name="IDIOT">     3</i>
   <i type="int" name="ISPECIAL">     0</i>
   <i type="logical" name="LMUSIC"> F  </i>
   <v name="POMASS">     55.84700000     54.93800000</v>
   <v name="DARWINR">      0.00000000      0.00000000</v>
   <v name="DARWINV">      1.00000000      1.00000000</v>
   <i type="logical" name="LCORR"> T  </i>
  </separator>
  <i type="logical" name="GGA_COMPAT"> T  </i>
  <i type="logical" name="LBERRY"> F  </i>
  <i type="int" name="ICORELEVEL">     0</i>
  <i type="logical" name="LDAU"> F  </i>
  <i type="int" name="I_CONSTRAINED_M">     0</i>
  <separator name="electronic exchange-correlation" >
   <i type="string" name="GGA">--</i>
   <i type="int" name="VOSKOWN">     0</i>
   <i type="logical" name="LHFCALC"> F  </i>
   <i type="string" name="PRECFOCK"></i>
   <i type="logical" name="LSYMGRAD"> F  </i>
   <i type="logical" name="LHFONE"> F  </i>
   <i type="logical" name="LRHFCALC"> F  </i>
   <i type="logical" name="LTHOMAS"> F  </i>
   <i type="logical" name="LMODELHF"> F  </i>
   <i name="ENCUT4O">     -1.00000000</i>
   <i type="int" name="EXXOEP">     0</i>
   <i type="int" name="FOURORBIT">     0</i>
   <i name="AEXX">      0.00000000</i>
   <i name="HFALPHA">      0.00000000</i>
   <i name="MCALPHA">      0.00000000</i>
   <i name="ALDAX">      1.00000000</i>
   <i name="AGGAX">      1.00000000</i>
   <i name="ALDAC">      1.00000000</i>
   <i name="AGGAC">      1.00000000</i>
   <i type="int" name="NKREDX">     1</i>
   <i type="int" name="NKREDY">     1</i>
   <i type="int" name="NKREDZ">     1</i>
   <i type="logical" name="SHIFTRED"> F  </i>
   <i type="logical" name="ODDONLY"> F  </i>
   <i type="logical" name="EVENONLY"> F  </i>
   <i type="int" name="LMAXFOCK">     0</i>
   <i type="int" name="NMAXFOCKAE">     0</i>
   <i type="logical" name="LFOCKAEDFT"> F  </i>
   <i name="HFSCREEN">      0.00000000</i>
   <i name="HFSCREENC">      0.00000000</i>
   <i type="int" name="NBANDSGWLOW">     0</i>
  </separator>
  <separator name="vdW DFT" >
   <i type="logical" name="LUSE_VDW"> F  </i>
   <i name="Zab_VDW">     -0.84910000</i>
   <i name="PARAM1">      0.12340000</i>
   <i name="PARAM2">      1.00000000</i>
   <i name="PARAM3">      0.00000000</i>
  </separator>
  <separator name="model GW" >
   <i type="int" name="MODEL_GW">     0</i>
   <i name="MODEL_EPS0">      7.68123389</i>
   <i name="MODEL_ALPHA">      1.00000000</i>
  </separator>
  <separator name="linear response parameters" >
   <i type="logical" name="LEPSILON"> F  </i>
   <i type="logical" name="LRPA"> F  </i>
   <i type="logical" name="LNABLA"> F  </i>
   <i type="logical" name="LVEL"> F  </i>
   <i type="int" name="KINTER">     0</i>
   <i name="CSHIFT">      0.10000000</i>
   <i name="OMEGAMAX">     -1.00000000</i>
   <i name="DEG_THRESHOLD">      0.00200000</i>
   <i name="RTIME">     -0.10000000</i>
   <i name="WPLASMAI">      0.00000000</i>
   <v name="DFIELD">      0.00000000      0.00000000      0.00000000</v>
   <v name="WPLASMA">      0.00000000      0.00000000      0.00000000      0.00000000      0.00000000      0.00000000      0.00000000      0.00000000      0.00000000</v>
  </separator>
  <separator name="orbital magnetization" >
   <i type="logical" name="NUCIND"> F  </i>
   <v name="MAGPOS">      0.00000000      0.00000000      0.00000000</v>
   <i type="logical" name="LNICSALL"> T  </i>
   <i type="logical" name="ORBITALMAG"> F  </i>
   <i type="logical" name="LMAGBLOCH"> F  </i>
   <i type="logical" name="LCHIMAG"> F  </i>
   <i type="logical" name="LGAUGE"> T  </i>
   <i type="int" name="MAGATOM">     0</i>
   <v name="MAGDIPOL">      0.00000000      0.00000000      0.00000000</v>
   <v name="AVECCONST">      0.00000000      0.00000000      0.00000000</v>
  </separator>
  <separator name="response functions" >
   <i type="logical" name="LADDER"> F  </i>
   <i type="logical" name="LRPAFORCE"> F  </i>
   <i type="logical" name="LFXC"> F  </i>
   <i type="logical" name="LHARTREE"> T  </i>
   <i type="int" name="IBSE">     0</i>
   <v type="int" name="KPOINT">    -1     0     0     0</v>
   <i type="logical" name="LTCTE"> F  </i>
   <i type="logical" name="LTETE"> F  </i>
   <i type="logical" name="LTRIPLET"> F  </i>
   <i type="logical" name="LFXCEPS"> F  </i>
   <i type="logical" name="LFXHEG"> F  </i>
   <i type="int" name="NATURALO">     2</i>
   <i type="logical" name="L2ORDER"> F  </i>
   <i type="logical" name="LMP2LT"> F  </i>
   <i type="logical" name="LUSEW"> F  </i>
   <i name="ENCUTGW">     -2.00000000</i>
   <i name="ENCUTGWSOFT">     -2.00000000</i>
   <i name="ENCUTLF">     -1.00000000</i>
   <i type="int" name="LMAXMP2">    -1</i>
   <i name="SCISSOR">      0.00000000</i>
   <i type="int" name="NOMEGA">     0</i>
   <i type="int" name="NOMEGAR">     0</i>
   <i type="int" name="NBANDSGW">    -1</i>
   <i type="int" name="NBANDSO">    -1</i>
   <i type="int" name="NBANDSV">    -1</i>
   <i type="int" name="NELM">   100</i>
   <i type="int" name="NELMHF">     1</i>
   <i type="int" name="DIM">     3</i>
   <i type="int" name="ANTIRES">     0</i>
   <i name="OMEGAMAX">    -30.00000000</i>
   <i name="OMEGAMIN">    -30.00000000</i>
   <i name="OMEGATL">   -200.00000000</i>
   <i type="int" name="OMEGAGRID">   140</i>
   <i name="CSHIFT">     -0.10000000</i>
   <i type="logical" name="SELFENERGY"> F  </i>
   <i type="logical" name="LSPECTRAL"> F  </i>
   <i type="logical" name="LSPECTRALGW"> F  </i>
   <i type="logical" name="LSINGLES"> F  </i>
   <i type="logical" name="LFERMIGW"> F  </i>
   <i type="logical" name="ODDONLYGW"> F  </i>
   <i type="logical" name="EVENONLYGW"> F  </i>
   <i type="int" name="NKREDLFX">     1</i>
   <i type="int" name="NKREDLFY">     1</i>
   <i type="int" name="NKREDLFZ">     1</i>
   <i type="int" name="MAXMEM">  2800</i>
   <i type="int" name="TELESCOPE">     0</i>
   <i type="int" name="TAUPAR">     1</i>
   <i type="int" name="OMEGAPAR">    -1</i>
   <i name="LAMBDA">      1.00000000</i>
  </separator>
  <separator name="External order field" >
   <i name="OFIELD_KAPPA">      0.00000000</i>
   <v name="OFIELD_K">      0.00000000      0.00000000      0.00000000</v>
   <i name="OFIELD_Q6_NEAR">      0.00000000</i>
   <i name="OFIELD_Q6_FAR">      0.00000000</i>
   <i name="OFIELD_A">      0.00000000</i>
  </separator>
 </parameters>
 <atominfo>
  <atoms>     288 </atoms>
  <types>       2 </types>
  <array name="atoms" >
   <dimension dim="1">ion</dimension>
   <field type="string">element</field>
   <field type="int">atomtype</field>
   <set>
    <rc><c>Fe</c><c>   1</c></rc>
    <rc><c>Fe</c><c>   1</c></rc>
    <rc><c>Fe</c><c>   1</c></rc>
    <rc><c>Fe</c><c>   1</c></rc>
    <rc><c>Fe</c><c>   1</c></rc>
    <rc><c>Fe</c><c>   1</c></rc>
    <rc><c>Fe</c><c>   1</c></rc>
    <rc><c>Fe</c><c>   1</c></rc>
    <rc><c>Fe</c><c>   1</c></rc>
    <rc><c>Fe</c><c>   1</c></rc>
    <rc><c>Fe</c><c>   1</c></rc>
    <rc><c>Fe</c><c>   1</c></rc>
    <rc><c>Fe</c><c>   1</c></rc>
    <rc><c>Fe</c><c>   1</c></rc>
    <rc><c>Fe</c><c>   1</c></rc>
    <rc><c>Fe</c><c>   1</c></rc>
    <rc><c>Fe</c><c>   1</c></rc>
    <rc><c>Fe</c><c>   1</c></rc>
    <rc><c>Fe</c><c>   1</c></rc>
    <rc><c>Fe</c><c>   1</c></rc>
    <rc><c>Fe</c><c>   1</c></rc>
    <rc><c>Fe</c><c>   1</c></rc>
    <rc><c>Fe</c><c>   1</c></rc>
    <rc><c>Fe</c><c>   1</c></rc>
    <rc><c>Fe</c><c>   1</c></rc>
    <rc><c>Fe</c><c>   1</c></rc>
    <rc><c>Fe</c><c>   1</c></rc>
    <rc><c>Fe</c><c>   1</c></rc>
    <rc><c>Fe</c><c>   1</c></rc>
    <rc><c>Fe</c><c>   1</c></rc>
    <rc><c>Fe</c><c>   1</c></rc>
    <rc><c>Fe</c><c>   1</c></rc>
    <rc><c>Fe</c><c>   1</c></rc>
    <rc><c>Fe</c><c>   1</c></rc>
    <rc><c>Fe</c><c>   1</c></rc>
    <rc><c>Fe</c><c>   1</c></rc>
    <rc><c>Fe</c><c>   1</c></rc>
    <rc><c>Fe</c><c>   1</c></rc>
    <rc><c>Fe</c><c>   1</c></rc>
    <rc><c>Fe</c><c>   1</c></rc>
    <rc><c>Fe</c><c>   1</c></rc>
    <rc><c>Fe</c><c>   1</c></rc>
    <rc><c>Fe</c><c>   1</c></rc>
    <rc><c>Fe</c><c>   1</c></rc>
    <rc><c>Fe</c><c>   1</c></rc>
    <rc><c>Fe</c><c>   1</c></rc>
    <rc><c>Fe</c><c>   1</c></rc>
    <rc><c>Fe</c><c>   1</c></rc>
    <rc><c>Fe</c><c>   1</c></rc>
    <rc><c>Fe</c><c>   1</c></rc>
    <rc><c>Fe</c><c>   1</c></rc>
    <rc><c>Fe</c><c>   1</c></rc>
    <rc><c>Fe</c><c>   1</c></rc>
    <rc><c>Fe</c><c>   1</c></rc>
    <rc><c>Fe</c><c>   1</c></rc>
    <rc><c>Fe</c><c>   1</c></rc>
    <rc><c>Fe</c><c>   1</c></rc>
    <rc><c>Fe</c><c>   1</c></rc>
    <rc><c>Fe</c><c>   1</c></rc>
    <rc><c>Fe</c><c>   1</c></rc>
    <rc><c>Fe</c><c>   1</c></rc>
    <rc><c>Fe</c><c>   1</c></rc>
    <rc><c>Fe</c><c>   1</c></rc>
    <rc><c>Fe</c><c>   1</c></rc>
    <rc><c>Fe</c><c>   1</c></rc>
    <rc><c>Fe</c><c>   1</c></rc>
    <rc><c>Fe</c><c>   1</c></rc>
    <rc><c>Fe</c><c>   1</c></rc>
    <rc><c>Fe</c><c>   1</c></rc>
    <rc><c>Fe</c><c>   1</c></rc>
    <rc><c>Fe</c><c>   1</c></rc>
    <rc><c>Fe</c><c>   1</c></rc>
    <rc><c>Fe</c><c>   1</c></rc>
    <rc><c>Fe</c><c>   1</c></rc>
    <rc><c>Fe</c><c>   1</c></rc>
    <rc><c>Fe</c><c>   1</c></rc>
    <rc><c>Fe</c><c>   1</c></rc>
    <rc><c>Fe</c><c>   1</c></rc>
    <rc><c>Fe</c><c>   1</c></rc>
    <rc><c>Fe</c><c>   1</c></rc>
    <rc><c>Fe</c><c>   1</c></rc>
    <rc><c>Fe</c><c>   1</c></rc>
    <rc><c>Fe</c><c>   1</c></rc>
    <rc><c>Fe</c><c>   1</c></rc>
    <rc><c>Fe</c><c>   1</c></rc>
    <rc><c>Fe</c><c>   1</c></rc>
    <rc><c>Fe</c><c>   1</c></rc>
    <rc><c>Fe</c><c>   1</c></rc>
    <rc><c>Fe</c><c>   1</c></rc>
    <rc><c>Fe</c><c>   1</c></rc>
    <rc><c>Fe</c><c>   1</c></rc>
    <rc><c>Fe</c><c>   1</c></rc>
    <rc><c>Fe</c><c>   1</c></rc>
    <rc><c>Fe</c><c>   1</c></rc>
    <rc><c>Fe</c><c>   1</c></rc>
    <rc><c>Fe</c><c>   1</c></rc>
    <rc><c>Fe</c><c>   1</c></rc>
    <rc><c>Fe</c><c>   1</c></rc>
    <rc><c>Fe</c><c>   1</c></rc>
    <rc><c>Fe</c><c>   1</c></rc>
    <rc><c>Fe</c><c>   1</c></rc>
    <rc><c>Fe</c><c>   1</c></rc>
    <rc><c>Fe</c><c>   1</c></rc>
    <rc><c>Fe</c><c>   1</c></rc>
    <rc><c>Fe</c><c>   1</c></rc>
    <rc><c>Fe</c><c>   1</c></rc>
    <rc><c>Fe</c><c>   1</c></rc>
    <rc><c>Fe</c><c>   1</c></rc>
    <rc><c>Fe</c><c>   1</c></rc>
    <rc><c>Fe</c><c>   1</c></rc>
    <rc><c>Fe</c><c>   1</c></rc>
    <rc><c>Fe</c><c>   1</c></rc>
    <rc><c>Fe</c><c>   1</c></rc>
    <rc><c>Fe</c><c>   1</c></rc>
    <rc><c>Fe</c><c>   1</c></rc>
    <rc><c>Fe</c><c>   1</c></rc>
    <rc><c>Fe</c><c>   1</c></rc>
    <rc><c>Fe</c><c>   1</c></rc>
    <rc><c>Fe</c><c>   1</c></rc>
    <rc><c>Fe</c><c>   1</c></rc>
    <rc><c>Fe</c><c>   1</c></rc>
    <rc><c>Fe</c><c>   1</c></rc>
    <rc><c>Fe</c><c>   1</c></rc>
    <rc><c>Fe</c><c>   1</c></rc>
    <rc><c>Fe</c><c>   1</c></rc>
    <rc><c>Fe</c><c>   1</c></rc>
    <rc><c>Fe</c><c>   1</c></rc>
    <rc><c>Fe</c><c>   1</c></rc>
    <rc><c>Fe</c><c>   1</c></rc>
    <rc><c>Fe</c><c>   1</c></rc>
    <rc><c>Fe</c><c>   1</c></rc>
    <rc><c>Fe</c><c>   1</c></rc>
    <rc><c>Fe</c><c>   1</c></rc>
    <rc><c>Fe</c><c>   1</c></rc>
    <rc><c>Fe</c><c>   1</c></rc>
    <rc><c>Fe</c><c>   1</c></rc>
    <rc><c>Fe</c><c>   1</c></rc>
    <rc><c>Fe</c><c>   1</c></rc>
    <rc><c>Fe</c><c>   1</c></rc>
    <rc><c>Fe</c><c>   1</c></rc>
    <rc><c>Fe</c><c>   1</c></rc>
    <rc><c>Fe</c><c>   1</c></rc>
    <rc><c>Fe</c><c>   1</c></rc>
    <rc><c>Fe</c><c>   1</c></rc>
    <rc><c>Fe</c><c>   1</c></rc>
    <rc><c>Fe</c><c>   1</c></rc>
    <rc><c>Fe</c><c>   1</c></rc>
    <rc><c>Fe</c><c>   1</c></rc>
    <rc><c>Fe</c><c>   1</c></rc>
    <rc><c>Fe</c><c>   1</c></rc>
    <rc><c>Fe</c><c>   1</c></rc>
    <rc><c>Fe</c><c>   1</c></rc>
    <rc><c>Fe</c><c>   1</c></rc>
    <rc><c>Fe</c><c>   1</c></rc>
    <rc><c>Fe</c><c>   1</c></rc>
    <rc><c>Fe</c><c>   1</c></rc>
    <rc><c>Fe</c><c>   1</c></rc>
    <rc><c>Fe</c><c>   1</c></rc>
    <rc><c>Fe</c><c>   1</c></rc>
    <rc><c>Fe</c><c>   1</c></rc>
    <rc><c>Fe</c><c>   1</c></rc>
    <rc><c>Fe</c><c>   1</c></rc>
    <rc><c>Fe</c><c>   1</c></rc>
    <rc><c>Fe</c><c>   1</c></rc>
    <rc><c>Fe</c><c>   1</c></rc>
    <rc><c>Fe</c><c>   1</c></rc>
    <rc><c>Fe</c><c>   1</c></rc>
    <rc><c>Fe</c><c>   1</c></rc>
    <rc><c>Fe</c><c>   1</c></rc>
    <rc><c>Fe</c><c>   1</c></rc>
    <rc><c>Fe</c><c>   1</c></rc>
    <rc><c>Fe</c><c>   1</c></rc>
    <rc><c>Fe</c><c>   1</c></rc>
    <rc><c>Fe</c><c>   1</c></rc>
    <rc><c>Fe</c><c>   1</c></rc>
    <rc><c>Fe</c><c>   1</c></rc>
    <rc><c>Fe</c><c>   1</c></rc>
    <rc><c>Fe</c><c>   1</c></rc>
    <rc><c>Fe</c><c>   1</c></rc>
    <rc><c>Fe</c><c>   1</c></rc>
    <rc><c>Fe</c><c>   1</c></rc>
    <rc><c>Fe</c><c>   1</c></rc>
    <rc><c>Fe</c><c>   1</c></rc>
    <rc><c>Fe</c><c>   1</c></rc>
    <rc><c>Fe</c><c>   1</c></rc>
    <rc><c>Fe</c><c>   1</c></rc>
    <rc><c>Fe</c><c>   1</c></rc>
    <rc><c>Fe</c><c>   1</c></rc>
    <rc><c>Fe</c><c>   1</c></rc>
    <rc><c>Fe</c><c>   1</c></rc>
    <rc><c>Fe</c><c>   1</c></rc>
    <rc><c>Fe</c><c>   1</c></rc>
    <rc><c>Fe</c><c>   1</c></rc>
    <rc><c>Fe</c><c>   1</c></rc>
    <rc><c>Fe</c><c>   1</c></rc>
    <rc><c>Fe</c><c>   1</c></rc>
    <rc><c>Fe</c><c>   1</c></rc>
    <rc><c>Fe</c><c>   1</c></rc>
    <rc><c>Fe</c><c>   1</c></rc>
    <rc><c>Fe</c><c>   1</c></rc>
    <rc><c>Fe</c><c>   1</c></rc>
    <rc><c>Fe</c><c>   1</c></rc>
    <rc><c>Fe</c><c>   1</c></rc>
    <rc><c>Fe</c><c>   1</c></rc>
    <rc><c>Fe</c><c>   1</c></rc>
    <rc><c>Fe</c><c>   1</c></rc>
    <rc><c>Fe</c><c>   1</c></rc>
    <rc><c>Fe</c><c>   1</c></rc>
    <rc><c>Fe</c><c>   1</c></rc>
    <rc><c>Fe</c><c>   1</c></rc>
    <rc><c>Fe</c><c>   1</c></rc>
    <rc><c>Fe</c><c>   1</c></rc>
    <rc><c>Fe</c><c>   1</c></rc>
    <rc><c>Fe</c><c>   1</c></rc>
    <rc><c>Fe</c><c>   1</c></rc>
    <rc><c>Fe</c><c>   1</c></rc>
    <rc><c>Fe</c><c>   1</c></rc>
    <rc><c>Fe</c><c>   1</c></rc>
    <rc><c>Fe</c><c>   1</c></rc>
    <rc><c>Fe</c><c>   1</c></rc>
    <rc><c>Fe</c><c>   1</c></rc>
    <rc><c>Fe</c><c>   1</c></rc>
    <rc><c>Fe</c><c>   1</c></rc>
    <rc><c>Fe</c><c>   1</c></rc>
    <rc><c>Fe</c><c>   1</c></rc>
    <rc><c>Fe</c><c>   1</c></rc>
    <rc><c>Fe</c><c>   1</c></rc>
    <rc><c>Fe</c><c>   1</c></rc>
    <rc><c>Fe</c><c>   1</c></rc>
    <rc><c>Fe</c><c>   1</c></rc>
    <rc><c>Fe</c><c>   1</c></rc>
    <rc><c>Fe</c><c>   1</c></rc>
    <rc><c>Fe</c><c>   1</c></rc>
    <rc><c>Fe</c><c>   1</c></rc>
    <rc><c>Fe</c><c>   1</c></rc>
    <rc><c>Fe</c><c>   1</c></rc>
    <rc><c>Fe</c><c>   1</c></rc>
    <rc><c>Fe</c><c>   1</c></rc>
    <rc><c>Fe</c><c>   1</c></rc>
    <rc><c>Fe</c><c>   1</c></rc>
    <rc><c>Fe</c><c>   1</c></rc>
    <rc><c>Fe</c><c>   1</c></rc>
    <rc><c>Fe</c><c>   1</c></rc>
    <rc><c>Fe</c><c>   1</c></rc>
    <rc><c>Fe</c><c>   1</c></rc>
    <rc><c>Fe</c><c>   1</c></rc>
    <rc><c>Fe</c><c>   1</c></rc>
    <rc><c>Fe</c><c>   1</c></rc>
    <rc><c>Fe</c><c>   1</c></rc>
    <rc><c>Fe</c><c>   1</c></rc>
    <rc><c>Fe</c><c>   1</c></rc>
    <rc><c>Fe</c><c>   1</c></rc>
    <rc><c>Fe</c><c>   1</c></rc>
    <rc><c>Fe</c><c>   1</c></rc>
    <rc><c>Fe</c><c>   1</c></rc>
    <rc><c>Fe</c><c>   1</c></rc>
    <rc><c>Fe</c><c>   1</c></rc>
    <rc><c>Fe</c><c>   1</c></rc>
    <rc><c>Fe</c><c>   1</c></rc>
    <rc><c>Fe</c><c>   1</c></rc>
    <rc><c>Fe</c><c>   1</c></rc>
    <rc><c>Fe</c><c>   1</c></rc>
    <rc><c>Fe</c><c>   1</c></rc>
    <rc><c>Fe</c><c>   1</c></rc>
    <rc><c>Fe</c><c>   1</c></rc>
    <rc><c>Fe</c><c>   1</c></rc>
    <rc><c>Fe</c><c>   1</c></rc>
    <rc><c>Fe</c><c>   1</c></rc>
    <rc><c>Fe</c><c>   1</c></rc>
    <rc><c>Fe</c><c>   1</c></rc>
    <rc><c>Fe</c><c>   1</c></rc>
    <rc><c>Fe</c><c>   1</c></rc>
    <rc><c>Fe</c><c>   1</c></rc>
    <rc><c>Fe</c><c>   1</c></rc>
    <rc><c>Fe</c><c>   1</c></rc>
    <rc><c>Fe</c><c>   1</c></rc>
    <rc><c>Fe</c><c>   1</c></rc>
    <rc><c>Fe</c><c>   1</c></rc>
    <rc><c>Fe</c><c>   1</c></rc>
    <rc><c>Fe</c><c>   1</c></rc>
    <rc><c>Fe</c><c>   1</c></rc>
    <rc><c>Mn</c><c>   2</c></rc>
    <rc><c>Mn</c><c>   2</c></rc>
    <rc><c>Mn</c><c>   2</c></rc>
    <rc><c>Mn</c><c>   2</c></rc>
    <rc><c>Mn</c><c>   2</c></rc>
    <rc><c>Mn</c><c>   2</c></rc>
    <rc><c>Mn</c><c>   2</c></rc>
   </set>
  </array>
  <array name="atomtypes" >
   <dimension dim="1">type</dimension>
   <field type="int">atomspertype</field>
   <field type="string">element</field>
   <field>mass</field>
   <field>valence</field>
   <field type="string">pseudopotential</field>
   <set>
    <rc><c> 281</c><c>Fe</c><c>     55.84700000</c><c>      8.00000000</c><c>  PAW_PBE Fe_GW 31Mar2010               </c></rc>
    <rc><c>   7</c><c>Mn</c><c>     54.93800000</c><c>      7.00000000</c><c>  PAW_PBE Mn_GW 31Mar2010               </c></rc>
   </set>
  </array>
 </atominfo>
 <structure name="initialpos" >
  <crystal>
   <varray name="basis" >
    <v>       9.72667804       0.00000000       0.00000000 </v>
    <v>       0.00000000       8.42355028       0.00000000 </v>
    <v>       0.00000000       0.00000000      45.00000000 </v>
   </varray>
   <i name="volume">   3686.99226691 </i>
   <varray name="rec_basis" >
    <v>       0.10281002       0.00000000       0.00000000 </v>
    <v>       0.00000000       0.11871479       0.00000000 </v>
    <v>       0.00000000       0.00000000       0.02222222 </v>
   </varray>
  </crystal>
  <varray name="positions" >
   <v>       0.06152733       0.03087633       0.12453091 </v>
   <v>       0.06324489       0.87183396       0.52124856 </v>
   <v>       0.19417042       0.12365845       0.78842649 </v>
   <v>       0.43344044       0.28767834       0.38908203 </v>
   <v>       0.30847554       0.71281631       0.83316731 </v>
   <v>       0.80847718       0.21268761       0.83316422 </v>
   <v>       0.18350134       0.78756152       0.38907048 </v>
   <v>       0.56293457       0.20738238       0.56537077 </v>
   <v>       0.06013076       0.04117273       0.74406168 </v>
   <v>       0.81331635       0.87195071       0.52138336 </v>
   <v>       0.18504129       0.29094116       0.74407482 </v>
   <v>       0.94127779       0.45208636       0.34489896 </v>
   <v>       0.93360942       0.28749975       0.38906669 </v>
   <v>       0.81383810       0.04220520       0.87562100 </v>
   <v>       0.18815120       0.79141437       0.61075930 </v>
   <v>       0.55853294       0.03747929       0.38906397 </v>
   <v>       0.93351537       0.96265415       0.83315813 </v>
   <v>       0.31375887       0.54213542       0.87561352 </v>
   <v>       0.68526862       0.29129600       0.74413307 </v>
   <v>       0.19300525       0.61282073       0.16670581 </v>
   <v>       0.81280945       0.20587382       0.47862168 </v>
   <v>       0.81263083       0.54171403       0.61093716 </v>
   <v>       0.31303906       0.87070992       0.43435118 </v>
   <v>       0.81540478       0.03555099       0.25603206 </v>
   <v>       0.69140606       0.95194945       0.34498190 </v>
   <v>       0.94190948       0.11202813       0.16697174 </v>
   <v>       0.93853959       0.12198043       0.52125610 </v>
   <v>       0.56589322       0.53650065       0.25609640 </v>
   <v>       0.68907180       0.79396478       0.87563137 </v>
   <v>       0.56814570       0.36348833       0.16687517 </v>
   <v>       0.43518891       0.79097024       0.74405537 </v>
   <v>       0.81337490       0.70793923       0.56533667 </v>
   <v>       0.56914062       0.87351536       0.78841635 </v>
   <v>       0.68856178       0.12196757       0.52132518 </v>
   <v>       0.19101515       0.28700077       0.25603226 </v>
   <v>       0.93343086       0.46260696       0.83315740 </v>
   <v>       0.06465536       0.20796086       0.69964986 </v>
   <v>       0.43989535       0.95796395       0.69968481 </v>
   <v>       0.30850274       0.21269344       0.83317288 </v>
   <v>       0.43385862       0.62568989       0.65490534 </v>
   <v>       0.31329814       0.54111862       0.61068961 </v>
   <v>       0.93875210       0.45746328       0.56541990 </v>
   <v>       0.68518900       0.79108064       0.74410418 </v>
   <v>       0.30861596       0.87530876       0.65493003 </v>
   <v>       0.68360540       0.78742537       0.38904055 </v>
   <v>       0.93529796       0.79111791       0.74412294 </v>
   <v>       0.06620077       0.20174041       0.34491411 </v>
   <v>       0.80883507       0.03741413       0.38903858 </v>
   <v>       0.44432013       0.12335149       0.78845956 </v>
   <v>       0.05804695       0.20531522       0.21191995 </v>
   <v>       0.06787884       0.36401811       0.16698267 </v>
   <v>       0.94108608       0.78663079       0.25595066 </v>
   <v>       0.56474484       0.20795585       0.69962887 </v>
   <v>       0.68975971       0.95804079       0.69965647 </v>
   <v>       0.68362494       0.28761702       0.38908395 </v>
   <v>       0.43860361       0.95746206       0.56548379 </v>
   <v>       0.81911439       0.37358005       0.78840913 </v>
   <v>       0.69088264       0.28666499       0.25601208 </v>
   <v>       0.18892826       0.45768542       0.56543054 </v>
   <v>       0.06701957       0.86374606       0.16691978 </v>
   <v>       0.18865777       0.29084042       0.61073990 </v>
   <v>       0.56634510       0.70245657       0.34496159 </v>
   <v>       0.31477531       0.20810071       0.69966325 </v>
   <v>       0.56375234       0.54217680       0.87560804 </v>
   <v>       0.06359319       0.70694522       0.56553683 </v>
   <v>       0.69457459       0.62347162       0.78846024 </v>
   <v>       0.30876956       0.53749154       0.38902947 </v>
   <v>       0.18820066       0.62190511       0.52136731 </v>
   <v>       0.56251190       0.87112308       0.43438684 </v>
   <v>       0.43814869       0.45789365       0.56533326 </v>
   <v>       0.43528688       0.29092790       0.74410777 </v>
   <v>       0.80445163       0.87304292       0.30033727 </v>
   <v>       0.81650017       0.70213156       0.34503219 </v>
   <v>       0.43340908       0.46270462       0.83314914 </v>
   <v>       0.68781856       0.95584137       0.47861707 </v>
   <v>       0.68994937       0.45795492       0.69963944 </v>
   <v>       0.56304616       0.87241371       0.52137687 </v>
   <v>       0.55882423       0.37535305       0.65491838 </v>
   <v>       0.80855192       0.87505498       0.65484069 </v>
   <v>       0.81254583       0.37045113       0.43446047 </v>
   <v>       0.81541919       0.53626405       0.25608877 </v>
   <v>       0.68348936       0.46274752       0.83314981 </v>
   <v>       0.18887281       0.78595335       0.12465601 </v>
   <v>       0.06379499       0.04204036       0.87562229 </v>
   <v>       0.30859130       0.37512473       0.65492907 </v>
   <v>       0.31619884       0.20163468       0.34487596 </v>
   <v>       0.81021084       0.54120016       0.74407423 </v>
   <v>       0.68342902       0.96271535       0.83314758 </v>
   <v>       0.55856006       0.87518229       0.65489645 </v>
   <v>       0.31316613       0.70734751       0.56551230 </v>
   <v>       0.31149164       0.53111164       0.12441142 </v>
   <v>       0.68384578       0.95439525       0.21195753 </v>
   <v>       0.31394802       0.20711470       0.56545849 </v>
   <v>       0.31014754       0.54118876       0.74408241 </v>
   <v>       0.68870537       0.95766990       0.56538685 </v>
   <v>       0.43821646       0.79092067       0.61067250 </v>
   <v>       0.69213123       0.61384876       0.16692090 </v>
   <v>       0.30438797       0.87256666       0.30034761 </v>
   <v>       0.31230579       0.70556411       0.47866388 </v>
   <v>       0.93829153       0.29128026       0.61067654 </v>
   <v>       0.42940080       0.62315241       0.30030245 </v>
   <v>       0.81896276       0.86438874       0.16687247 </v>
   <v>       0.55854152       0.20462736       0.21186935 </v>
   <v>       0.94264663       0.61333820       0.16724096 </v>
   <v>       0.93917664       0.79394322       0.87563421 </v>
   <v>       0.56920097       0.37324112       0.78841993 </v>
   <v>       0.06346531       0.37226360       0.52134346 </v>
   <v>       0.56353761       0.37197823       0.52125534 </v>
   <v>       0.67921138       0.12291707       0.30037531 </v>
   <v>       0.43343577       0.96268149       0.83314971 </v>
   <v>       0.18978908       0.28738694       0.12457248 </v>
   <v>       0.81922457       0.87352368       0.78839137 </v>
   <v>       0.31204156       0.37090409       0.43429503 </v>
   <v>       0.93771629       0.79179019       0.61085015 </v>
   <v>       0.43812425       0.29052708       0.61074590 </v>
   <v>       0.19143193       0.45189654       0.34497121 </v>
   <v>       0.43919918       0.28643338       0.12455014 </v>
   <v>       0.69068217       0.78629878       0.25607043 </v>
   <v>       0.18973426       0.95795284       0.69963653 </v>
   <v>       0.18906816       0.29398846       0.87564035 </v>
   <v>       0.18361578       0.12507656       0.65484970 </v>
   <v>       0.93339408       0.12530423       0.65486679 </v>
   <v>       0.30719794       0.20462680       0.21197829 </v>
   <v>       0.05860755       0.03744221       0.38908657 </v>
   <v>       0.19293373       0.11367960       0.16702924 </v>
   <v>       0.06260851       0.54172747       0.61088790 </v>
   <v>       0.94070567       0.28577327       0.25598271 </v>
   <v>       0.56313078       0.54124151       0.61076872 </v>
   <v>       0.93825837       0.95786830       0.56538612 </v>
   <v>       0.67958256       0.62268031       0.30014447 </v>
   <v>       0.93771522       0.62033716       0.43442664 </v>
   <v>       0.94435883       0.62368852       0.78842075 </v>
   <v>       0.56461809       0.70813970       0.69968388 </v>
   <v>       0.05846374       0.71275155       0.83315677 </v>
   <v>       0.92928436       0.12307692       0.30037723 </v>
   <v>       0.93979748       0.45798138       0.69963579 </v>
   <v>       0.44096603       0.78684952       0.25616416 </v>
   <v>       0.31915279       0.37339840       0.78838858 </v>
   <v>       0.43300352       0.45355550       0.21206674 </v>
   <v>       0.18838257       0.12198305       0.52125234 </v>
   <v>       0.81455431       0.70757834       0.69965331 </v>
   <v>       0.06333040       0.04111408       0.61072969 </v>
   <v>       0.55844968       0.21270328       0.83316246 </v>
   <v>       0.31363351       0.87228527       0.52131458 </v>
   <v>       0.69064252       0.28720859       0.12459817 </v>
   <v>       0.18081887       0.95357544       0.21187601 </v>
   <v>       0.68848468       0.29132589       0.61067123 </v>
   <v>       0.31312200       0.04125433       0.61078931 </v>
   <v>       0.94411432       0.12354950       0.78842825 </v>
   <v>       0.43908064       0.79395736       0.87563530 </v>
   <v>       0.81025178       0.04108812       0.74411542 </v>
   <v>       0.43815893       0.12196565       0.52137885 </v>
   <v>       0.18376145       0.62553002       0.65495648 </v>
   <v>       0.31476892       0.70807681       0.69965151 </v>
   <v>       0.93937274       0.28694847       0.12459214 </v>
   <v>       0.43777528       0.45563765       0.47866899 </v>
   <v>       0.06342272       0.70522532       0.47857217 </v>
   <v>       0.93803451       0.12036363       0.43442993 </v>
   <v>       0.42923040       0.12285625       0.30035000 </v>
   <v>       0.18804890       0.12018402       0.43449591 </v>
   <v>       0.56386260       0.04220099       0.87562485 </v>
   <v>       0.18851744       0.95707270       0.56524167 </v>
   <v>       0.69065489       0.78583629       0.12462553 </v>
   <v>       0.56377611       0.53184982       0.12441057 </v>
   <v>       0.30860439       0.03756656       0.38905013 </v>
   <v>       0.69306962       0.11331495       0.16720428 </v>
   <v>       0.80744735       0.20534661       0.21177607 </v>
   <v>       0.06587461       0.53612057       0.25614184 </v>
   <v>       0.56289587       0.70580875       0.47863494 </v>
   <v>       0.06360961       0.20758557       0.56546297 </v>
   <v>       0.55440890       0.37268292       0.30036111 </v>
   <v>       0.44132994       0.95211429       0.34491978 </v>
   <v>       0.18351130       0.96267115       0.83314919 </v>
   <v>       0.44254526       0.61258281       0.16667169 </v>
   <v>       0.93317304       0.45530540       0.21173279 </v>
   <v>       0.06197572       0.52967974       0.12435277 </v>
   <v>       0.81329768       0.37188340       0.52130602 </v>
   <v>       0.92931579       0.62253256       0.30038152 </v>
   <v>       0.31595491       0.03635844       0.25589488 </v>
   <v>       0.68826021       0.79136498       0.61081392 </v>
   <v>       0.18346076       0.46274888       0.83314839 </v>
   <v>       0.44180847       0.11239633       0.16681019 </v>
   <v>       0.31323151       0.37195941       0.52137288 </v>
   <v>       0.44432295       0.62356776       0.78840728 </v>
   <v>       0.06607795       0.03616460       0.25586977 </v>
   <v>       0.56352276       0.70771364       0.56531702 </v>
   <v>       0.93527662       0.29133378       0.74412481 </v>
   <v>       0.69401210       0.12358674       0.78844876 </v>
   <v>       0.18236859       0.45419156       0.21201290 </v>
   <v>       0.93367056       0.78746068       0.38904629 </v>
   <v>       0.68905697       0.29396405       0.87564401 </v>
   <v>       0.31806479       0.86211573       0.16687337 </v>
   <v>       0.43971370       0.45772434       0.69960356 </v>
   <v>       0.94145058       0.95240825       0.34504475 </v>
   <v>       0.68856306       0.62209459       0.52135189 </v>
   <v>       0.05889467       0.87532389       0.65491642 </v>
   <v>       0.06917819       0.87352448       0.78840524 </v>
   <v>       0.05868979       0.37528119       0.65487957 </v>
   <v>       0.68773077       0.45572437       0.47865033 </v>
   <v>       0.19089186       0.78657098       0.25615151 </v>
   <v>       0.43788147       0.12040788       0.43443621 </v>
   <v>       0.81229837       0.03045372       0.12443037 </v>
   <v>       0.93832370       0.62179294       0.52129634 </v>
   <v>       0.06256614       0.87037892       0.43446952 </v>
   <v>       0.81274893       0.53037943       0.12420845 </v>
   <v>       0.44137835       0.45187329       0.34496366 </v>
   <v>       0.81666973       0.20188414       0.34491289 </v>
   <v>       0.31631255       0.70165273       0.34495200 </v>
   <v>       0.68387763       0.12553685       0.65497076 </v>
   <v>       0.55431454       0.87207466       0.30042704 </v>
   <v>       0.06025122       0.54126721       0.74411005 </v>
   <v>       0.93805537       0.78624803       0.12432656 </v>
   <v>       0.80862370       0.70442881       0.21179328 </v>
   <v>       0.05436114       0.87290636       0.30033498 </v>
   <v>       0.17998357       0.12315695       0.30046993 </v>
   <v>       0.06641676       0.70198109       0.34498684 </v>
   <v>       0.81320088       0.04147858       0.61076088 </v>
   <v>       0.06307854       0.37042348       0.43444265 </v>
   <v>       0.56636648       0.20170247       0.34494027 </v>
   <v>       0.80426635       0.37281748       0.30038570 </v>
   <v>       0.43790675       0.95583601       0.47861912 </v>
   <v>       0.55862131       0.53742860       0.38907509 </v>
   <v>       0.06274976       0.20572932       0.47861642 </v>
   <v>       0.31910091       0.87344388       0.78841337 </v>
   <v>       0.93983562       0.95815577       0.69966484 </v>
   <v>       0.05427515       0.37246998       0.30044240 </v>
   <v>       0.68362995       0.62498407       0.65493814 </v>
   <v>       0.68829215       0.45789841       0.56542073 </v>
   <v>       0.43286108       0.95327916       0.21181596 </v>
   <v>       0.31289383       0.20593089       0.47862062 </v>
   <v>       0.43367596       0.12524573       0.65486516 </v>
   <v>       0.68809914       0.62035749       0.43438602 </v>
   <v>       0.81459240       0.20802621       0.69958763 </v>
   <v>       0.81280368       0.70571071       0.47863589 </v>
   <v>       0.81299234       0.87065569       0.43449266 </v>
   <v>       0.93776642       0.95579909       0.47858502 </v>
   <v>       0.56271648       0.20564683       0.47846416 </v>
   <v>       0.18807705       0.62068624       0.43435154 </v>
   <v>       0.31022316       0.04118047       0.74407127 </v>
   <v>       0.93354693       0.62490069       0.65490952 </v>
   <v>       0.55852050       0.71269143       0.83316167 </v>
   <v>       0.30413414       0.37275301       0.30036835 </v>
   <v>       0.55727477       0.70392247       0.21168037 </v>
   <v>       0.18789547       0.45587952       0.47862415 </v>
   <v>       0.31382622       0.04221646       0.87561800 </v>
   <v>       0.19016867       0.45787936       0.69956984 </v>
   <v>       0.81367849       0.54206066       0.87559069 </v>
   <v>       0.18361747       0.28796417       0.38906951 </v>
   <v>       0.43780329       0.62065692       0.43454223 </v>
   <v>       0.05683423       0.70423268       0.21166299 </v>
   <v>       0.56117702       0.03125127       0.12449790 </v>
   <v>       0.81842819       0.36329218       0.16716007 </v>
   <v>       0.80842169       0.71272316       0.83316608 </v>
   <v>       0.06914075       0.37344165       0.78840592 </v>
   <v>       0.43907833       0.29401586       0.87563795 </v>
   <v>       0.31302005       0.03229802       0.12462200 </v>
   <v>       0.68749307       0.12031400       0.43445577 </v>
   <v>       0.19135333       0.95181060       0.34499931 </v>
   <v>       0.05854838       0.21268513       0.83315907 </v>
   <v>       0.56308379       0.04106412       0.61070708 </v>
   <v>       0.68206790       0.45368096       0.21169001 </v>
   <v>       0.18512033       0.79095062       0.74407289 </v>
   <v>       0.17942286       0.62333151       0.30027074 </v>
   <v>       0.43374965       0.78743796       0.38903735 </v>
   <v>       0.44101911       0.28714624       0.25586074 </v>
   <v>       0.06365796       0.54190353       0.87557902 </v>
   <v>       0.56019147       0.04118722       0.74407083 </v>
   <v>       0.18910861       0.79400628       0.87564172 </v>
   <v>       0.93774515       0.45580606       0.47863396 </v>
   <v>       0.80847913       0.53759384       0.38908049 </v>
   <v>       0.81366902       0.20755705       0.56539704 </v>
   <v>       0.19428846       0.62362677       0.78840137 </v>
   <v>       0.05853607       0.53753483       0.38906951 </v>
   <v>       0.06473708       0.70815455       0.69965792 </v>
   <v>       0.31533439       0.53650228       0.25600875 </v>
   <v>       0.30808456       0.70363500       0.21154102 </v>
   <v>       0.56765113       0.86203684       0.16682931 </v>
   <v>       0.56000769       0.54110399       0.74409644 </v>
   <v>       0.69133071       0.45192783       0.34496818 </v>
   <v>       0.93909432       0.29398767       0.87564138 </v>
   <v>       0.56561091       0.03677288       0.25587149 </v>
   <v>       0.43999560       0.78862103       0.12482434 </v>
   <v>       0.31929792       0.36244839       0.16632125 </v>
   <v>       0.43828074       0.62194905       0.52137529 </v>
   <v>       0.56345712       0.37049516       0.43418769 </v>
   <v>       0.93292535       0.95378609       0.21229935 </v>
   <v>       0.80825259       0.37539835       0.65466377 </v>
   <v>       0.18784076       0.95586587       0.47858403 </v>
  </varray>
 </structure>
 <calculation>
  <scstep>
   <time name="dav">   54.78   54.79</time>
   <time name="total">   54.92   54.97</time>
   <energy>
    <i name="alphaZ">  16403.00255340 </i>
    <i name="ewald"> 730817.97539063 </i>
    <i name="hartreedc">-922465.65254675 </i>
    <i name="XCdc">  -6388.59416140 </i>
    <i name="pawpsdc"> 163151.95320885 </i>
    <i name="pawaedc">-160818.84594568 </i>
    <i name="eentropy">     -1.04745973 </i>
    <i name="bandstr">  38622.75676334 </i>
    <i name="atom"> 169914.59583762 </i>
    <i name="e_fr_energy">  29236.14364028 </i>
    <i name="e_wo_entrp">  29237.19110001 </i>
    <i name="e_0_energy">  29236.66737015 </i>
   </energy>
  </scstep>
  <scstep>
   <time name="dav">   54.34   54.38</time>
   <time name="total">   54.35   54.39</time>
   <energy>
    <i name="e_fr_energy">   1197.84223991 </i>
    <i name="e_wo_entrp">   1199.31451028 </i>
    <i name="e_0_energy">   1198.57837510 </i>
   </energy>
  </scstep>
  <scstep>
   <time name="dav">   71.37   71.41</time>
   <time name="total">   71.38   71.42</time>
   <energy>
    <i name="e_fr_energy">  -1940.70620913 </i>
    <i name="e_wo_entrp">  -1937.12602136 </i>
    <i name="e_0_energy">  -1938.91611525 </i>
   </energy>
  </scstep>
  <scstep>
   <time name="dav">   89.29   89.34</time>
   <time name="total">   89.30   89.35</time>
   <energy>
    <i name="e_fr_energy">  -2610.81040044 </i>
    <i name="e_wo_entrp">  -2607.24858875 </i>
    <i name="e_0_energy">  -2609.02949460 </i>
   </energy>
  </scstep>
  <scstep>
   <time name="dav">   85.29   85.30</time>
   <time name="total">   87.36   87.37</time>
   <energy>
    <i name="e_fr_energy">  -2731.07666669 </i>
    <i name="e_wo_entrp">  -2727.39984412 </i>
    <i name="e_0_energy">  -2729.23825540 </i>
   </energy>
  </scstep>
  <scstep>
   <time name="diag">    8.28    8.28</time>
   <time name="diis">   38.00   38.01</time>
   <time name="orth">    2.34    2.34</time>
   <time name="total">   50.80   50.84</time>
   <energy>
    <i name="e_fr_energy">  -6140.74773866 </i>
    <i name="e_wo_entrp">  -6137.32548035 </i>
    <i name="e_0_energy">  -6139.03660950 </i>
   </energy>
  </scstep>
  <scstep>
   <time name="diag">    8.28    8.28</time>
   <time name="diis">   38.25   38.25</time>
   <time name="orth">    2.30    2.30</time>
   <time name="total">   51.02   51.08</time>
[...]
       <r>     5.8561     0.0000  2772.0000 </r>
       <r>     5.8989     0.0000  2772.0000 </r>
       <r>     5.9417     0.0000  2772.0000 </r>
       <r>     5.9846     0.0000  2772.0000 </r>
       <r>     6.0274     0.0000  2772.0000 </r>
       <r>     6.0702     0.0000  2772.0000 </r>
       <r>     6.1130     0.0000  2772.0000 </r>
       <r>     6.1559     0.0000  2772.0000 </r>
       <r>     6.1987     0.0000  2772.0000 </r>
       <r>     6.2415     0.0000  2772.0000 </r>
       <r>     6.2844     0.0000  2772.0000 </r>
       <r>     6.3272     0.0000  2772.0000 </r>
       <r>     6.3700     0.0000  2772.0000 </r>
       <r>     6.4128     0.0000  2772.0000 </r>
       <r>     6.4557     0.0000  2772.0000 </r>
       <r>     6.4985     0.0000  2772.0000 </r>
       <r>     6.5413     0.0000  2772.0000 </r>
       <r>     6.5842     0.0000  2772.0000 </r>
       <r>     6.6270     0.0000  2772.0000 </r>
       <r>     6.6698     0.0000  2772.0000 </r>
       <r>     6.7126     0.0000  2772.0000 </r>
       <r>     6.7555     0.0000  2772.0000 </r>
       <r>     6.7983     0.0000  2772.0000 </r>
      </set>
     </set>
    </array>
   </total>
  </dos>
 </calculation>
 <structure name="finalpos" >
  <crystal>
   <varray name="basis" >
    <v>       9.72667804       0.00000000       0.00000000 </v>
    <v>       0.00000000       8.42355028       0.00000000 </v>
    <v>       0.00000000       0.00000000      45.00000000 </v>
   </varray>
   <i name="volume">   3686.99226691 </i>
   <varray name="rec_basis" >
    <v>       0.10281002       0.00000000       0.00000000 </v>
    <v>       0.00000000       0.11871479       0.00000000 </v>
    <v>       0.00000000       0.00000000       0.02222222 </v>
   </varray>
  </crystal>
  <varray name="positions" >
   <v>       0.06294339       0.03279373       0.12482106 </v>
   <v>       0.06312805       0.87270268       0.52165418 </v>
   <v>       0.19115174       0.12456593       0.78824712 </v>
   <v>       0.43508664       0.28749894       0.38945782 </v>
   <v>       0.31073433       0.71140502       0.83345983 </v>
   <v>       0.81071915       0.21136008       0.83343692 </v>
   <v>       0.18547476       0.78760022       0.38950342 </v>
   <v>       0.56306047       0.20677461       0.56550688 </v>
   <v>       0.06200394       0.04130278       0.74385418 </v>
   <v>       0.81319193       0.87310530       0.52170241 </v>
   <v>       0.18714034       0.29138893       0.74386723 </v>
   <v>       0.93797855       0.45324887       0.34506650 </v>
   <v>       0.93535565       0.28722513       0.38945637 </v>
   <v>       0.81301282       0.04353141       0.87525142 </v>
   <v>       0.18727783       0.79128998       0.61055050 </v>
   <v>       0.56040264       0.03748598       0.38947586 </v>
   <v>       0.93563137       0.96141405       0.83345348 </v>
   <v>       0.31297587       0.54356941       0.87524362 </v>
   <v>       0.68717537       0.29134797       0.74389587 </v>
   <v>       0.19097166       0.61443687       0.16664606 </v>
   <v>       0.81290023       0.20508479       0.47809580 </v>
   <v>       0.81259031       0.54108018       0.61040932 </v>
   <v>       0.31242825       0.87101278       0.43408920 </v>
   <v>       0.81282235       0.03643227       0.25610269 </v>
   <v>       0.68812991       0.95345072       0.34510490 </v>
   <v>       0.94086295       0.11463654       0.16679846 </v>
   <v>       0.93844004       0.12303452       0.52167272 </v>
   <v>       0.56287144       0.53642769       0.25605502 </v>
   <v>       0.68825286       0.79351595       0.87530996 </v>
   <v>       0.56674900       0.36513435       0.16655462 </v>
   <v>       0.43710593       0.79151431       0.74389493 </v>
   <v>       0.81318964       0.70741851       0.56559726 </v>
   <v>       0.56617467       0.87441379       0.78822204 </v>
   <v>       0.68856753       0.12327217       0.52167530 </v>
   <v>       0.18800054       0.28662596       0.25615819 </v>
   <v>       0.93566518       0.46140137       0.83344734 </v>
   <v>       0.06317241       0.20796344       0.69964242 </v>
   <v>       0.43848704       0.95781422       0.69969075 </v>
   <v>       0.31071319       0.21145028       0.83342913 </v>
   <v>       0.43547104       0.62513218       0.65485846 </v>
   <v>       0.31270428       0.54108790       0.61047843 </v>
   <v>       0.93792857       0.45696060       0.56569566 </v>
   <v>       0.68708929       0.79127535       0.74390198 </v>
   <v>       0.31069659       0.87507577       0.65487491 </v>
   <v>       0.68522993       0.78745120       0.38945075 </v>
   <v>       0.93705113       0.79135939       0.74385505 </v>
   <v>       0.06294167       0.20327733       0.34512755 </v>
   <v>       0.81047599       0.03750413       0.38943678 </v>
   <v>       0.44108251       0.12456085       0.78825085 </v>
   <v>       0.06040125       0.20315573       0.21183672 </v>
   <v>       0.06615848       0.36575177       0.16667993 </v>
   <v>       0.93816051       0.78619475       0.25614080 </v>
   <v>       0.56365857       0.20791490       0.69968055 </v>
   <v>       0.68841646       0.95776425       0.69965367 </v>
   <v>       0.68543354       0.28727231       0.38944115 </v>
   <v>       0.43824862       0.95673558       0.56581749 </v>
   <v>       0.81609503       0.37437213       0.78822048 </v>
   <v>       0.68800659       0.28666015       0.25609802 </v>
   <v>       0.18823388       0.45685416       0.56573663 </v>
   <v>       0.06547246       0.86518204       0.16648890 </v>
   <v>       0.18765020       0.29100031       0.61045344 </v>
   <v>       0.56297520       0.70348720       0.34502565 </v>
   <v>       0.31348845       0.20793926       0.69963723 </v>
   <v>       0.56296077       0.54356035       0.87524877 </v>
   <v>       0.06287573       0.70691829       0.56576613 </v>
   <v>       0.69108175       0.62456538       0.78824357 </v>
   <v>       0.31074156       0.53752067       0.38938640 </v>
   <v>       0.18772450       0.62298430       0.52172191 </v>
   <v>       0.56255271       0.87094583       0.43414600 </v>
   <v>       0.43830080       0.45630438       0.56572089 </v>
   <v>       0.43707324       0.29140253       0.74387989 </v>
   <v>       0.80839006       0.87139412       0.30039136 </v>
   <v>       0.81303530       0.70327535       0.34521636 </v>
   <v>       0.43555321       0.46141541       0.83343650 </v>
   <v>       0.68785671       0.95452259       0.47817182 </v>
   <v>       0.68854178       0.45788989       0.69967669 </v>
   <v>       0.56318262       0.87345714       0.52167009 </v>
   <v>       0.56022985       0.37494874       0.65485819 </v>
   <v>       0.81044488       0.87495594       0.65485038 </v>
   <v>       0.81290928       0.37108706       0.43425187 </v>
   <v>       0.81282643       0.53618928       0.25609835 </v>
   <v>       0.68558182       0.46135536       0.83345350 </v>
   <v>       0.18853507       0.78191511       0.12494233 </v>
   <v>       0.06302604       0.04354048       0.87525371 </v>
   <v>       0.31054854       0.37508397       0.65487517 </v>
   <v>       0.31269415       0.20305884       0.34494785 </v>
   <v>       0.81212363       0.54119275       0.74390476 </v>
   <v>       0.68566820       0.96134037       0.83345615 </v>
   <v>       0.56025329       0.87512285       0.65489896 </v>
   <v>       0.31277526       0.70709556       0.56585621 </v>
   <v>       0.31285431       0.53341023       0.12446041 </v>
   <v>       0.68468275       0.95367380       0.21203880 </v>
   <v>       0.31316747       0.20708377       0.56574633 </v>
   <v>       0.31210939       0.54117633       0.74388549 </v>
   <v>       0.68800651       0.95713975       0.56569289 </v>
   <v>       0.43741684       0.79090690       0.61043489 </v>
   <v>       0.69047773       0.61554183       0.16654103 </v>
   <v>       0.30817814       0.87182276       0.30029659 </v>
   <v>       0.31287258       0.70458688       0.47815178 </v>
   <v>       0.93780713       0.29124441       0.61037120 </v>
   <v>       0.43331970       0.62129020       0.30039025 </v>
   <v>       0.81668459       0.86547894       0.16664989 </v>
   <v>       0.56005467       0.20265955       0.21185801 </v>
   <v>       0.94049649       0.61566742       0.16675372 </v>
   <v>       0.93829960       0.79347353       0.87530743 </v>
   <v>       0.56610999       0.37452539       0.78823546 </v>
   <v>       0.06333844       0.37253771       0.52171576 </v>
   <v>       0.56375679       0.37287216       0.52163663 </v>
   <v>       0.68294779       0.12181460       0.30044066 </v>
   <v>       0.43562317       0.96133070       0.83345856 </v>
   <v>       0.18986754       0.28299745       0.12474279 </v>
   <v>       0.81609170       0.87452916       0.78819672 </v>
   <v>       0.31216029       0.37089266       0.43415984 </v>
   <v>       0.93780418       0.79138712       0.61045284 </v>
   <v>       0.43752585       0.29083822       0.61051024 </v>
   <v>       0.18801963       0.45309152       0.34514275 </v>
   <v>       0.43933733       0.28319235       0.12460285 </v>
   <v>       0.68804286       0.78643022       0.25611758 </v>
   <v>       0.18857373       0.95794091       0.69968329 </v>
   <v>       0.18824130       0.29349071       0.87530294 </v>
   <v>       0.18557147       0.12468809       0.65483252 </v>
   <v>       0.93562227       0.12484385       0.65483895 </v>
   <v>       0.30949470       0.20232651       0.21189051 </v>
   <v>       0.06060918       0.03741008       0.38951878 </v>
   <v>       0.19059660       0.11523124       0.16696433 </v>
   <v>       0.06227192       0.54115690       0.61046570 </v>
   <v>       0.93802903       0.28625883       0.25619114 </v>
   <v>       0.56238941       0.54105899       0.61041497 </v>
   <v>       0.93814642       0.95715366       0.56578950 </v>
   <v>       0.68328448       0.62148640       0.30035690 </v>
   <v>       0.93732990       0.62129444       0.43425197 </v>
   <v>       0.94122303       0.62454444       0.78826940 </v>
   <v>       0.56332353       0.70790282       0.69970120 </v>
   <v>       0.06075635       0.71138831       0.83341138 </v>
   <v>       0.93325276       0.12177603       0.30045057 </v>
   <v>       0.93867789       0.45780164       0.69969347 </v>
   <v>       0.43806343       0.78666678       0.25599705 </v>
   <v>       0.31613313       0.37440841       0.78821046 </v>
   <v>       0.43523711       0.45306455       0.21198055 </v>
   <v>       0.18756942       0.12361215       0.52166834 </v>
   <v>       0.81353346       0.70796536       0.69967796 </v>
   <v>       0.06268142       0.04118037       0.61045756 </v>
   <v>       0.56076891       0.21139565       0.83344221 </v>
   <v>       0.31336263       0.87316957       0.52171048 </v>
   <v>       0.69031010       0.28332545       0.12498978 </v>
   <v>       0.18547729       0.95388520       0.21186716 </v>
   <v>       0.68753616       0.29119156       0.61041673 </v>
   <v>       0.31234444       0.04078368       0.61050441 </v>
   <v>       0.94122724       0.12459410       0.78827614 </v>
   <v>       0.43828429       0.79348847       0.87530203 </v>
   <v>       0.81209113       0.04106431       0.74391476 </v>
   <v>       0.43804883       0.12301725       0.52167528 </v>
   <v>       0.18552110       0.62518839       0.65492227 </v>
   <v>       0.31347685       0.70790408       0.69968998 </v>
   <v>       0.93907142       0.28302380       0.12508488 </v>
   <v>       0.43821841       0.45482073       0.47819118 </v>
   <v>       0.06237464       0.70450690       0.47814168 </v>
   <v>       0.93777701       0.12060741       0.43416683 </v>
   <v>       0.43326978       0.12142931       0.30032465 </v>
   <v>       0.18778533       0.12122071       0.43415822 </v>
   <v>       0.56304360       0.04353711       0.87525285 </v>
   <v>       0.18793730       0.95685889       0.56544135 </v>
   <v>       0.69019513       0.78119986       0.12488852 </v>
   <v>       0.56441416       0.53366706       0.12472130 </v>
   <v>       0.31009221       0.03733221       0.38948594 </v>
   <v>       0.69077420       0.11457640       0.16683367 </v>
   <v>       0.80996627       0.20327509       0.21183314 </v>
   <v>       0.06291894       0.53622945       0.25609492 </v>
   <v>       0.56272077       0.70482423       0.47816504 </v>
   <v>       0.06310202       0.20693623       0.56568630 </v>
   <v>       0.55821447       0.37170281       0.30039024 </v>
   <v>       0.43805417       0.95328956       0.34505491 </v>
   <v>       0.18562793       0.96133903       0.83345664 </v>
   <v>       0.44096895       0.61522160       0.16670183 </v>
   <v>       0.93494100       0.45328545       0.21193511 </v>
   <v>       0.06364164       0.53306338       0.12483195 </v>
   <v>       0.81310112       0.37262638       0.52179590 </v>
   <v>       0.93326039       0.62121256       0.30049702 </v>
   <v>       0.31319199       0.03639749       0.25609232 </v>
   <v>       0.68761654       0.79149768       0.61053714 </v>
   <v>       0.18569521       0.46133017       0.83343424 </v>
   <v>       0.44049778       0.11383948       0.16679933 </v>
   <v>       0.31231589       0.37258796       0.52176662 </v>
   <v>       0.44129342       0.62440714       0.78821157 </v>
   <v>       0.06303395       0.03642956       0.25608230 </v>
   <v>       0.56348742       0.70695008       0.56563667 </v>
   <v>       0.93710234       0.29135490       0.74388303 </v>
   <v>       0.69123145       0.12457464       0.78826574 </v>
   <v>       0.18521987       0.45361936       0.21203665 </v>
   <v>       0.93518132       0.78719926       0.38940735 </v>
   <v>       0.68822709       0.29347451       0.87531182 </v>
   <v>       0.31693408       0.86451348       0.16660872 </v>
   <v>       0.43853601       0.45808870       0.69969286 </v>
   <v>       0.93788793       0.95302799       0.34505682 </v>
   <v>       0.68845794       0.62279626       0.52176628 </v>
   <v>       0.06099807       0.87481662       0.65483217 </v>
   <v>       0.06622370       0.87459262       0.78822651 </v>
   <v>       0.06094786       0.37500816       0.65488807 </v>
   <v>       0.68760595       0.45531914       0.47816315 </v>
   <v>       0.18796714       0.78639910       0.25602672 </v>
   <v>       0.43703858       0.12119634       0.43419454 </v>
   <v>       0.81343753       0.03387543       0.12483104 </v>
   <v>       0.93821717       0.62348397       0.52172982 </v>
   <v>       0.06237704       0.87090342       0.43419945 </v>
   <v>       0.81313113       0.53324920       0.12479907 </v>
   <v>       0.43801247       0.45312933       0.34509260 </v>
   <v>       0.81308800       0.20311385       0.34503865 </v>
   <v>       0.31308473       0.70304843       0.34509561 </v>
   <v>       0.68563146       0.12480989       0.65485925 </v>
   <v>       0.55845748       0.87189489       0.30038219 </v>
   <v>       0.06219512       0.54132298       0.74390914 </v>
   <v>       0.93960560       0.78322791       0.12478859 </v>
   <v>       0.80948641       0.70284382       0.21185755 </v>
   <v>       0.05827240       0.87172087       0.30035183 </v>
   <v>       0.18363949       0.12175172       0.30048116 </v>
   <v>       0.06290705       0.70313409       0.34508369 </v>
   <v>       0.81259170       0.04149479       0.61048825 </v>
   <v>       0.06261141       0.37106571       0.43425660 </v>
   <v>       0.56309056       0.20320906       0.34500512 </v>
   <v>       0.80813501       0.37139240       0.30037777 </v>
   <v>       0.43816408       0.95492067       0.47817816 </v>
   <v>       0.56017551       0.53766758       0.38941756 </v>
   <v>       0.06220474       0.20521156       0.47810023 </v>
   <v>       0.31614645       0.87444423       0.78822124 </v>
   <v>       0.93850156       0.95777969       0.69971666 </v>
   <v>       0.05824644       0.37165906       0.30034133 </v>
   <v>       0.68544144       0.62509230       0.65489637 </v>
   <v>       0.68797779       0.45715669       0.56570034 </v>
   <v>       0.43509446       0.95352663       0.21188655 </v>
   <v>       0.31376566       0.20519453       0.47804613 </v>
   <v>       0.43562915       0.12475913       0.65479187 </v>
   <v>       0.68796842       0.62102477       0.43411213 </v>
   <v>       0.81361533       0.20788420       0.69969198 </v>
   <v>       0.81303239       0.70483464       0.47813649 </v>
   <v>       0.81312595       0.87087549       0.43426666 </v>
   <v>       0.93714664       0.95508257       0.47810908 </v>
   <v>       0.56246348       0.20501578       0.47822298 </v>
   <v>       0.18757495       0.62148640       0.43414046 </v>
   <v>       0.31210381       0.04126667       0.74387527 </v>
   <v>       0.93591009       0.62490496       0.65490844 </v>
   <v>       0.56071206       0.71135056       0.83341172 </v>
   <v>       0.30849324       0.37172495       0.30036360 </v>
   <v>       0.56014529       0.70279871       0.21179092 </v>
   <v>       0.18821978       0.45509835       0.47819919 </v>
   <v>       0.31303751       0.04355739       0.87526110 </v>
   <v>       0.18846513       0.45811293       0.69965228 </v>
   <v>       0.81297254       0.54355806       0.87525491 </v>
   <v>       0.18537908       0.28748237       0.38935814 </v>
   <v>       0.43757697       0.62115786       0.43449890 </v>
   <v>       0.06056985       0.70280691       0.21189583 </v>
   <v>       0.56342425       0.03352457       0.12486588 </v>
   <v>       0.81664176       0.36512127       0.16663678 </v>
   <v>       0.81073523       0.71134730       0.83344805 </v>
   <v>       0.06618979       0.37446084       0.78823070 </v>
   <v>       0.43826142       0.29355488       0.87530445 </v>
   <v>       0.31320009       0.03513679       0.12483708 </v>
   <v>       0.68788538       0.12092614       0.43419894 </v>
   <v>       0.18790959       0.95327609       0.34514361 </v>
   <v>       0.06066115       0.21140996       0.83341743 </v>
   <v>       0.56245178       0.04097056       0.61046731 </v>
   <v>       0.68479597       0.45368664       0.21198633 </v>
   <v>       0.18713487       0.79147819       0.74387233 </v>
   <v>       0.18307103       0.62167397       0.30041525 </v>
   <v>       0.43565370       0.78712819       0.38932674 </v>
   <v>       0.43776706       0.28658349       0.25615034 </v>
   <v>       0.06301254       0.54357503       0.87525436 </v>
   <v>       0.56211083       0.04124545       0.74387416 </v>
   <v>       0.18822963       0.79346465       0.87529970 </v>
   <v>       0.93729395       0.45469567       0.47817091 </v>
   <v>       0.81016874       0.53737018       0.38947186 </v>
   <v>       0.81318410       0.20721556       0.56561570 </v>
   <v>       0.19124838       0.62437880       0.78822318 </v>
   <v>       0.06025643       0.53756864       0.38945630 </v>
   <v>       0.06349806       0.70787411       0.69966738 </v>
   <v>       0.31272692       0.53653755       0.25615087 </v>
   <v>       0.30994623       0.70240917       0.21179775 </v>
   <v>       0.56655751       0.86482784       0.16662447 </v>
   <v>       0.56201124       0.54132677       0.74392835 </v>
   <v>       0.68779429       0.45336681       0.34506198 </v>
   <v>       0.93826703       0.29345689       0.87529736 </v>
   <v>       0.56263318       0.03648062       0.25612131 </v>
   <v>       0.43962405       0.78405193       0.12504720 </v>
   <v>       0.31664297       0.36421043       0.16627906 </v>
   <v>       0.43842425       0.62350910       0.52155787 </v>
   <v>       0.56277993       0.37070169       0.43405281 </v>
   <v>       0.93451168       0.95420469       0.21217021 </v>
   <v>       0.81036183       0.37479474       0.65478301 </v>
   <v>       0.18772747       0.95463828       0.47827658 </v>
  </varray>
 </structure>
</modeling>
