unknown system                          
           1
     9.726678    0.000000    0.000000
     0.000000    8.423550    0.000000
     0.000000    0.000000   45.000000
   Fe   Mn
 281   7
Direct configuration=     1
   0.06124094  0.03166202  0.12455129
   0.06302993  0.87128818  0.52121791
   0.19132952  0.12242195  0.78846677
   0.43359869  0.28771278  0.38906051
   0.30847047  0.71285055  0.83315468
   0.80844531  0.21267350  0.83314611
   0.18362367  0.78773107  0.38908550
   0.56295483  0.20722111  0.56536251
   0.05931210  0.04052255  0.74394040
   0.81335102  0.87148337  0.52129166
   0.18534475  0.29068872  0.74400745
   0.94132395  0.45237333  0.34494568
   0.93357944  0.28764952  0.38906703
   0.81327992  0.04216754  0.87556821
   0.18841151  0.79113042  0.61064250
   0.55866877  0.03744503  0.38903351
   0.93333474  0.96256566  0.83317070
   0.31338261  0.54207150  0.87557095
   0.68516047  0.29067700  0.74407242
   0.19225114  0.61298783  0.16677125
   0.81288135  0.20562986  0.47860847
   0.81364570  0.54057430  0.61069051
   0.31317104  0.87011946  0.43448921
   0.81601083  0.03683572  0.25617714
   0.69114211  0.95270128  0.34513285
   0.94233172  0.11282043  0.16679660
   0.93845012  0.12146729  0.52126707
   0.56612449  0.53704803  0.25611991
   0.68839504  0.79345911  0.87553308
   0.56784013  0.36398361  0.16704416
   0.43465671  0.79018116  0.74399866
   0.81386027  0.70767050  0.56539739
   0.56618367  0.87275671  0.78842013
   0.68838430  0.12145620  0.52126519
   0.19122659  0.28750740  0.25584557
   0.93345487  0.46267248  0.83314453
   0.06409917  0.20763251  0.69966264
   0.43856073  0.95781214  0.69966000
   0.30835119  0.21241238  0.83318189
   0.43495222  0.62529649  0.65480779
   0.31365295  0.54067638  0.61063451
   0.93895156  0.45732251  0.56542658
   0.68502449  0.79123606  0.74412713
   0.30992059  0.87571852  0.65474005
   0.68381513  0.78751792  0.38907154
   0.93532421  0.79110219  0.74411494
   0.06656125  0.20210317  0.34504501
   0.80831036  0.03756776  0.38905049
   0.44236002  0.12234689  0.78861105
   0.06015916  0.20516020  0.21193028
   0.06788992  0.36375814  0.16689892
   0.94147832  0.78737240  0.25622016
   0.56343708  0.20803603  0.69959654
   0.68851373  0.95802304  0.69964043
   0.44054748  0.78750028  0.12461400
   0.43893983  0.95742244  0.56542699
   0.81657528  0.37240205  0.78839067
   0.69142785  0.28708608  0.25616959
   0.18872905  0.45743696  0.56540514
   0.06743365  0.86326436  0.16693235
   0.18874597  0.29070478  0.61063435
   0.56629514  0.70246219  0.34502478
   0.31331744  0.20798627  0.69966139
   0.56318279  0.54202553  0.87554741
   0.06367873  0.70725186  0.56546035
   0.69217353  0.62268769  0.78835566
   0.30865045  0.53784793  0.38904915
   0.18845034  0.62148018  0.52126513
   0.56295842  0.87014947  0.43446593
   0.43861704  0.45753552  0.56536982
   0.43469905  0.29057293  0.74398487
   0.80448128  0.87313682  0.30031236
   0.81658515  0.70232787  0.34507690
   0.43354661  0.46274028  0.83314260
   0.68769509  0.95572492  0.47864416
   0.68894299  0.45776249  0.69970516
   0.56341337  0.87144595  0.52126075
   0.55994530  0.37550474  0.65481921
   0.80954742  0.87522181  0.65480292
   0.81302602  0.36961713  0.43445934
   0.81569378  0.53694683  0.25614566
   0.68342026  0.46265600  0.83316756
   0.19122172  0.78718516  0.12482739
   0.06348302  0.04213162  0.87561598
   0.30898396  0.37570328  0.65491983
   0.31624524  0.20239617  0.34495280
   0.80981438  0.54076085  0.74398485
   0.68333650  0.96246967  0.83314515
   0.55925578  0.87553064  0.65488366
   0.31373202  0.70718478  0.56552143
   0.31355072  0.53128017  0.12447008
   0.68433397  0.95534150  0.21197266
   0.31378735  0.20789159  0.56547802
   0.81804298  0.36306348  0.16725877
   0.68875106  0.95754014  0.56538212
   0.43867772  0.79087602  0.61060489
   0.69344147  0.61483913  0.16714558
   0.30454553  0.87310339  0.30032866
   0.31256056  0.70535971  0.47858552
   0.93859872  0.29102115  0.61062248
   0.42967058  0.62331748  0.30032768
   0.81809717  0.86336787  0.16692918
   0.55955649  0.20476733  0.21168781
   0.94295072  0.61416923  0.16686219
   0.93889574  0.79334635  0.87560445
   0.56649455  0.37255337  0.78835887
   0.06340916  0.37159078  0.52125459
   0.56348772  0.37145411  0.52123956
   0.67949890  0.12320356  0.30035058
   0.43344291  0.96262383  0.83317895
   0.19082255  0.28725888  0.12465192
   0.81642874  0.87244108  0.78841662
   0.31262974  0.37029415  0.43444615
   0.56305953  0.03161858  0.12462018
   0.43819511  0.29106246  0.61067529
   0.19141111  0.45198391  0.34498381
   0.44005857  0.28758627  0.12461627
   0.69130578  0.78704520  0.25621539
   0.43828124  0.12129511  0.52126119
   0.18860327  0.29337987  0.87568705
   0.18465963  0.12505570  0.65475755
   0.93466156  0.12532102  0.65481090
   0.30897319  0.20483017  0.21180676
   0.05857941  0.03738191  0.38904009
   0.19434346  0.11456137  0.16730505
   0.06283524  0.54100055  0.61065214
   0.94141168  0.28745600  0.25582584
   0.56341691  0.54076613  0.61070688
   0.93863830  0.95755290  0.56537883
   0.67959816  0.62336841  0.30023938
   0.93807456  0.61999155  0.43445359
   0.94126547  0.62254536  0.78838585
   0.56342512  0.70776208  0.69963107
   0.05831265  0.71275320  0.83314830
   0.92969335  0.12321605  0.30033420
   0.93818596  0.79122743  0.61063347
   0.44154609  0.78697256  0.25615076
   0.31666510  0.37260813  0.78837065
   0.43497842  0.45538453  0.21202872
   0.18859511  0.12185317  0.52121145
   0.81374436  0.70742349  0.69961753
   0.06366180  0.04073321  0.61062097
   0.55840893  0.21272585  0.83315831
   0.31360360  0.87121705  0.52115666
   0.69058530  0.28742933  0.12465524
   0.18520601  0.95495381  0.21193285
   0.68848861  0.29145151  0.61066991
   0.31339511  0.04077356  0.61070397
   0.94161327  0.12201052  0.78857717
   0.43862125  0.79357156  0.87559294
   0.80975735  0.04085074  0.74396358
   0.93840041  0.45786116  0.69965787
   0.18466350  0.62536380  0.65484001
   0.31313923  0.70816994  0.69962987
   0.93902947  0.28676458  0.12468177
   0.43784445  0.45571402  0.47862901
   0.06298468  0.70542218  0.47860075
   0.93812241  0.12016080  0.43446573
   0.42930656  0.12289954  0.30034801
   0.18796276  0.11979778  0.43457504
   0.56329230  0.04205426  0.87555781
   0.18864578  0.95668476  0.56521525
   0.69070249  0.78609713  0.12473642
   0.56285865  0.53091602  0.12447626
   0.30866887  0.03744119  0.38905862
   0.69232274  0.11361477  0.16710238
   0.80891705  0.20544965  0.21192953
   0.06619740  0.53713714  0.25619238
   0.56274940  0.70577424  0.47860890
   0.06365825  0.20749062  0.56543382
   0.55437132  0.37308487  0.30033754
   0.44138361  0.95195152  0.34497326
   0.18347552  0.96265472  0.83316539
   0.44228733  0.61255984  0.16698430
   0.93448786  0.45446834  0.21195006
   0.06300415  0.53281099  0.12450860
   0.81333806  0.37141868  0.52126925
   0.92927416  0.62300101  0.30035643
   0.31599575  0.03731797  0.25607192
   0.68839794  0.79133277  0.61068074
   0.18348207  0.46260605  0.83311478
   0.44265098  0.11415304  0.16696420
   0.31343744  0.37174120  0.52130612
   0.44164463  0.62240367  0.78839672
   0.06622025  0.03752938  0.25589888
   0.56335182  0.70781187  0.56539544
   0.93512912  0.29077020  0.74406153
   0.69137391  0.12240809  0.78847980
   0.18340827  0.45540603  0.21193492
   0.93375001  0.78754658  0.38908611
   0.68859564  0.29358573  0.87568594
   0.31833799  0.86365969  0.16709528
   0.43886046  0.45757936  0.69960883
   0.94153479  0.95225555  0.34500881
   0.68850544  0.62147700  0.52126067
   0.05945197  0.87580390  0.65490916
   0.06608424  0.87265581  0.78840308
   0.05868334  0.37575214  0.65492721
   0.68785782  0.45558926  0.47862006
   0.19143294  0.78662839  0.25622335
   0.43745790  0.12024757  0.43446830
   0.81408402  0.03285925  0.12452854
   0.93846047  0.62130322  0.52123418
   0.06289239  0.86958543  0.43445196
   0.81222038  0.53267451  0.12454058
   0.44142698  0.45216855  0.34502096
   0.81645835  0.20183967  0.34496363
   0.31642580  0.70208724  0.34498003
   0.68533808  0.12588053  0.65482191
   0.55444344  0.87312180  0.30030210
   0.06013906  0.54079301  0.74405563
   0.93475959  0.95469827  0.21198150
   0.80994790  0.70503844  0.21174587
   0.05434731  0.87307190  0.30034598
   0.17951248  0.12319357  0.30031078
   0.06655182  0.70219663  0.34498617
   0.81365237  0.04096714  0.61064906
   0.06325491  0.37002700  0.43433482
   0.56636898  0.20184799  0.34495806
   0.80431408  0.37288071  0.30035068
   0.43790843  0.95577513  0.47860390
   0.55857509  0.53711512  0.38905469
   0.06273083  0.20582999  0.47862523
   0.31621986  0.87230759  0.78845670
   0.93903578  0.95773033  0.69969271
   0.05430921  0.37274881  0.30035604
   0.68476822  0.62512596  0.65485524
   0.68872507  0.45750904  0.56537818
   0.43479511  0.95507093  0.21194700
   0.31277491  0.20578985  0.47859645
   0.43522404  0.12483897  0.65475177
   0.68808348  0.62050079  0.43441725
   0.81350394  0.20811162  0.69955645
   0.81278281  0.70568945  0.47861327
   0.81308696  0.87009357  0.43445008
   0.93769729  0.95588655  0.47861263
   0.56261189  0.20550976  0.47856771
   0.18796920  0.62031416  0.43439060
   0.31002577  0.04067327  0.74404503
   0.93465694  0.62522780  0.65474527
   0.55864832  0.71285744  0.83316590
   0.30437019  0.37303398  0.30034706
   0.55922361  0.70524305  0.21176300
   0.18782184  0.45567041  0.47859439
   0.31310724  0.04223256  0.87554694
   0.18836306  0.45734572  0.69935991
   0.81313998  0.54196223  0.87557508
   0.18345949  0.28765991  0.38904766
   0.43810135  0.62036566  0.43443142
   0.05863405  0.70518149  0.21183828
   0.56314736  0.36957679  0.43447923
   0.43845066  0.62146161  0.52124457
   0.80835162  0.71266546  0.83315751
   0.06630432  0.37202059  0.78853844
   0.43884777  0.29362002  0.87566113
   0.31255887  0.03220155  0.12463826
   0.68788790  0.12044820  0.43442557
   0.19120181  0.95220391  0.34501056
   0.05852880  0.21275226  0.83316060
   0.56316996  0.04112848  0.61063371
   0.68469311  0.45466554  0.21189037
   0.18512858  0.79035329  0.74406468
   0.17949160  0.62305149  0.30028626
   0.43367004  0.78753703  0.38903793
   0.44136037  0.28708254  0.25622344
   0.06333886  0.54204381  0.87557641
   0.56005809  0.04072765  0.74392218
   0.18850591  0.79364820  0.87560493
   0.93775350  0.45573091  0.47863412
   0.80853561  0.53737498  0.38908180
   0.81369602  0.20749475  0.56534944
   0.19154567  0.62205592  0.78857377
   0.05860674  0.53756978  0.38907612
   0.06429465  0.70835249  0.69964771
   0.31580876  0.53678346  0.25606521
   0.30983442  0.70470825  0.21190901
   0.56767793  0.86420490  0.16707357
   0.55936043  0.54068957  0.74394988
   0.69144593  0.45220657  0.34503054
   0.93880556  0.29378140  0.87563185
   0.56617125  0.03732744  0.25589003
   0.68259801  0.28796554  0.38900463
   0.31909883  0.36427527  0.16644636
   0.30933652  0.54082279  0.74420026
   0.18896624  0.95614283  0.69965083
   0.93928126  0.78809325  0.12480754
   0.80940593  0.37538454  0.65465926
   0.18785430  0.95569213  0.47856807
Direct configuration=     2
   0.06170113  0.03204825  0.12460654
   0.06306220  0.87152526  0.52128463
   0.19102981  0.12262858  0.78842605
   0.43382491  0.28767947  0.38912602
   0.30878113  0.71255976  0.83320757
   0.80876705  0.21240271  0.83318300
   0.18393124  0.78773823  0.38915181
   0.56297313  0.20710955  0.56538743
   0.05958961  0.04061526  0.74393969
   0.81334655  0.87166790  0.52136249
   0.18551700  0.29070162  0.74397934
   0.94074052  0.45251155  0.34497782
   0.93390829  0.28762875  0.38912927
   0.81314048  0.04236043  0.87551826
   0.18830454  0.79111300  0.61059639
   0.55894564  0.03740744  0.38910890
   0.93364048  0.96232571  0.83321849
   0.31322651  0.54226894  0.87551837
   0.68537648  0.29068401  0.74404339
   0.19194548  0.61342286  0.16676161
   0.81291327  0.20546051  0.47853333
   0.81349922  0.54066837  0.61064080
   0.31314466  0.87020651  0.43443729
   0.81561853  0.03684341  0.25616728
   0.69063227  0.95283087  0.34513428
   0.94216632  0.11312988  0.16678643
   0.93846641  0.12168863  0.52133373
   0.56567276  0.53702795  0.25611554
   0.68824594  0.79340165  0.87549483
   0.56768460  0.36440608  0.16699025
   0.43492823  0.79031124  0.74398060
   0.81377042  0.70758599  0.56542608
   0.56588684  0.87292041  0.78838432
   0.68834503  0.12171872  0.52133302
   0.19082354  0.28748635  0.25589058
   0.93376186  0.46242987  0.83318989
   0.06379326  0.20762967  0.69964530
   0.43849881  0.95778946  0.69964843
   0.30867504  0.21215738  0.83323451
   0.43514612  0.62528307  0.65480867
   0.31353184  0.54075566  0.61060482
   0.93881856  0.45719234  0.56545509
   0.68521979  0.79122677  0.74408037
   0.31009339  0.87565099  0.65473874
   0.68408477  0.78749035  0.38913873
   0.93552856  0.79112054  0.74407014
   0.06598214  0.20230730  0.34505553
   0.80865025  0.03756932  0.38912123
   0.44186297  0.12260692  0.78855236
   0.06036639  0.20489079  0.21190855
   0.06763798  0.36409641  0.16686465
   0.94101154  0.78733874  0.25620510
   0.56337681  0.20803974  0.69959266
   0.68841119  0.95793251  0.69962932
   0.44054381  0.78694601  0.12467989
   0.43886207  0.95733188  0.56546921
   0.81621648  0.37262949  0.78835228
   0.69093166  0.28707543  0.25615729
   0.18865212  0.45728329  0.56544259
   0.06712413  0.86365402  0.16690184
   0.18860356  0.29073812  0.61058779
   0.56575799  0.70265019  0.34504106
   0.31324011  0.20798477  0.69965269
   0.56306200  0.54221550  0.87550426
   0.06360198  0.70712532  0.56549915
   0.69170801  0.62287295  0.78833278
   0.30895627  0.53784319  0.38911513
   0.18840982  0.62179026  0.52133060
   0.56290994  0.87023469  0.43442773
   0.43861906  0.45737451  0.56540818
   0.43502584  0.29064316  0.74397104
   0.80514725  0.87296508  0.30034123
   0.81600546  0.70253264  0.34509984
   0.43382640  0.46245438  0.83318514
   0.68774538  0.95551543  0.47856005
   0.68872748  0.45772208  0.69968810
   0.56336546  0.87166996  0.52133265
   0.56004042  0.37541688  0.65481251
   0.80979763  0.87517474  0.65480647
   0.81298154  0.36983303  0.43442985
   0.81531389  0.53699790  0.25614584
   0.68370471  0.46239553  0.83320120
   0.19115829  0.78646780  0.12486046
   0.06330870  0.04229565  0.87556544
   0.30933228  0.37559922  0.65489864
   0.31570464  0.20251714  0.34496979
   0.81004788  0.54078576  0.74397353
   0.68365952  0.96225210  0.83318729
   0.55950699  0.87542158  0.65487180
   0.31366041  0.70709046  0.56555614
   0.31357075  0.53168405  0.12448160
   0.68462647  0.95521033  0.21198890
   0.31372157  0.20773832  0.56551505
   0.81788143  0.36342236  0.16718347
   0.68866221  0.95746799  0.56542283
   0.43856269  0.79084511  0.61055612
   0.69313791  0.61505489  0.16708656
   0.30518453  0.87292867  0.30033701
   0.31262522  0.70513512  0.47850387
   0.93851184  0.29099188  0.61058162
   0.43030098  0.62308595  0.30034689
   0.81801682  0.86369150  0.16690317
   0.55982447  0.20462666  0.21173007
   0.94261324  0.61461134  0.16685103
   0.93872940  0.79329055  0.87555219
   0.56611760  0.37277820  0.78833023
   0.06338277  0.37179480  0.52132229
   0.56344988  0.37166123  0.52130880
   0.68017369  0.12301157  0.30036118
   0.43373526  0.96232277  0.83321559
   0.19072437  0.28665461  0.12467310
   0.81607870  0.87268520  0.78837854
   0.31267111  0.37039971  0.43441455
   0.56321848  0.03194391  0.12466709
   0.43813113  0.29101627  0.61062968
   0.19085423  0.45215782  0.34502037
   0.44001788  0.28689528  0.12463562
   0.69086960  0.78701608  0.25620092
   0.43822503  0.12157174  0.52133608
   0.18845703  0.29334144  0.87563324
   0.18490064  0.12501723  0.65475446
   0.93494760  0.12518866  0.65481610
   0.30934359  0.20465314  0.21182461
   0.05888753  0.03733333  0.38911249
   0.19386205  0.11472350  0.16724290
   0.06280875  0.54099694  0.61061458
   0.94093554  0.28738744  0.25587386
   0.56335815  0.54079185  0.61065634
   0.93857327  0.95748707  0.56542615
   0.68023450  0.62319735  0.30025860
   0.93799736  0.62010686  0.43442138
   0.94098139  0.62275615  0.78836394
   0.56328959  0.70769479  0.69962925
   0.05860744  0.71250915  0.83319915
   0.93035770  0.12297234  0.30033606
   0.93813637  0.79119637  0.61058957
   0.44103711  0.78697615  0.25613596
   0.31631096  0.37273407  0.78834644
   0.43524369  0.45520074  0.21202201
   0.18849826  0.12203061  0.52128998
   0.81357771  0.70741447  0.69961208
   0.06358046  0.04072645  0.61058044
   0.55870980  0.21249098  0.83318723
   0.31357550  0.87145084  0.52124471
   0.69064248  0.28688770  0.12471669
   0.18541972  0.95480553  0.21194572
   0.68837445  0.29136663  0.61062683
   0.31327705  0.04076933  0.61065804
   0.94125363  0.12236067  0.78853159
   0.43848863  0.79350198  0.87555015
   0.81000749  0.04086944  0.74396281
   0.93825756  0.45775816  0.69965564
   0.18490129  0.62536256  0.65483682
   0.31315163  0.70803045  0.69961335
   0.93910455  0.28631930  0.12473947
   0.43791382  0.45551742  0.47855167
   0.06294907  0.70517974  0.47851842
   0.93806467  0.12027008  0.43442178
   0.42996536  0.12272830  0.30036065
   0.18793450  0.12003861  0.43450654
   0.56317263  0.04224653  0.87551534
   0.18859472  0.95670147  0.56523883
   0.69051403  0.78550277  0.12478134
   0.56308736  0.53141882  0.12454737
   0.30893396  0.03734486  0.38913192
   0.69211426  0.11389367  0.16708276
   0.80922388  0.20511581  0.21192418
   0.06573270  0.53713587  0.25618287
   0.56272496  0.70550241  0.47852653
   0.06360452  0.20733409  0.56546683
   0.55505198  0.37291032  0.30035039
   0.44080471  0.95218742  0.34499104
   0.18373743  0.96236375  0.83320461
   0.44217516  0.61302859  0.16696871
   0.93477440  0.45433261  0.21196613
   0.06337287  0.53302864  0.12456153
   0.81331571  0.37165380  0.52134288
   0.92996964  0.62282063  0.30037686
   0.31557172  0.03724367  0.25608403
   0.68830867  0.79128737  0.61064179
   0.18378927  0.46236049  0.83316364
   0.44234154  0.11437094  0.16694607
   0.31340851  0.37189487  0.52136675
   0.44129591  0.62260945  0.78836050
   0.06572846  0.03741058  0.25594490
   0.56336232  0.70763100  0.56543462
   0.93532774  0.29075552  0.74403467
   0.69105652  0.12267287  0.78843788
   0.18383625  0.45525220  0.21195868
   0.93405863  0.78750055  0.38914123
   0.68847296  0.29355096  0.87562885
   0.31809774  0.86397832  0.16703979
   0.43871691  0.45756505  0.69960165
   0.94095829  0.95246064  0.34501728
   0.68844313  0.62169685  0.52132964
   0.05974961  0.87565136  0.65488712
   0.06579919  0.87284772  0.78837673
   0.05912450  0.37561928  0.65490090
   0.68784518  0.45543252  0.47853821
   0.19094983  0.78668114  0.25620325
   0.43744682  0.12032548  0.43442316
   0.81405637  0.03327307  0.12458255
   0.93841007  0.62160688  0.52131459
   0.06281014  0.86975737  0.43441098
   0.81236169  0.53293357  0.12460341
   0.44087809  0.45236575  0.34503239
   0.81592042  0.20210170  0.34497649
   0.31589111  0.70226401  0.34500099
   0.68544943  0.12565347  0.65482425
   0.55512208  0.87297485  0.30031549
   0.06029666  0.54079327  0.74403607
   0.93499299  0.95463049  0.21198465
   0.81013821  0.70479438  0.21177012
   0.05505149  0.87291425  0.30035761
   0.18015956  0.12298344  0.30032216
   0.06597261  0.70239328  0.34499735
   0.81351004  0.04099701  0.61061444
   0.06315021  0.37018223  0.43431902
   0.56581949  0.20211263  0.34498333
   0.80501300  0.37271970  0.30036069
   0.43799727  0.95561051  0.47851333
   0.55887092  0.53714431  0.38912311
   0.06262977  0.20561982  0.47853384
   0.31592600  0.87253715  0.78841519
   0.93873458  0.95768863  0.69966930
   0.05498981  0.37261959  0.30036451
   0.68496909  0.62510755  0.65484748
   0.68866018  0.45739853  0.56541343
   0.43506092  0.95488738  0.21194938
   0.31290631  0.20563133  0.47851371
   0.43533532  0.12483879  0.65476098
   0.68802560  0.62051683  0.43438374
   0.81343871  0.20807101  0.69956907
   0.81286311  0.70546125  0.47852795
   0.81302436  0.87017460  0.43441758
   0.93762281  0.95569522  0.47852405
   0.56261174  0.20536701  0.47850661
   0.18791814  0.62044626  0.43436124
   0.31022924  0.04071679  0.74402998
   0.93490737  0.62522640  0.65475936
   0.55894506  0.71258704  0.83320660
   0.30505996  0.37282210  0.30035169
   0.55951004  0.70496865  0.21179305
   0.18781710  0.45549982  0.47851606
   0.31299263  0.04245584  0.87550069
   0.18826991  0.45743125  0.69939769
   0.81303439  0.54217157  0.87552725
   0.18374573  0.28767435  0.38910294
   0.43803139  0.62042293  0.43440160
   0.05909972  0.70493818  0.21184955
   0.56305739  0.36981286  0.43444084
   0.43841443  0.62173293  0.52132074
   0.80867927  0.71237424  0.83318993
   0.06601446  0.37229590  0.78847964
   0.43866145  0.29357817  0.87560188
   0.31277485  0.03263981  0.12469283
   0.68785572  0.12045313  0.43439889
   0.19068939  0.95242146  0.34502352
   0.05882827  0.21247838  0.83320512
   0.56312596  0.04105533  0.61059153
   0.68489348  0.45457924  0.21191286
   0.18530496  0.79046012  0.74405011
   0.18013321  0.62289571  0.30031717
   0.43389525  0.78750564  0.38909286
   0.44088605  0.28707121  0.25620868
   0.06320182  0.54222976  0.87552388
   0.56033510  0.04079079  0.74391847
   0.18835948  0.79356062  0.87555557
   0.93771158  0.45548325  0.47854975
   0.80887454  0.53735889  0.38914779
   0.81363343  0.20737928  0.56538288
   0.19118778  0.62225904  0.78852439
   0.05886452  0.53760980  0.38913797
   0.06401758  0.70819967  0.69964562
   0.31540795  0.53678916  0.25607735
   0.31004663  0.70449788  0.21190864
   0.56756242  0.86451478  0.16702494
   0.55972395  0.54076536  0.74394885
   0.69091248  0.45240011  0.34503935
   0.93863323  0.29371544  0.87557856
   0.56574364  0.03721437  0.25592023
   0.68299530  0.28789043  0.38905991
   0.31872449  0.36447238  0.16642613
   0.30961452  0.54079271  0.74416019
   0.18882061  0.95643485  0.69965462
   0.93938534  0.78750687  0.12485711
   0.80959190  0.37535377  0.65466696
   0.18781439  0.95548812  0.47852411
Direct configuration=     3
   0.06308172  0.03320693  0.12477230
   0.06315900  0.87223648  0.52148480
   0.19013071  0.12324845  0.78830388
   0.43450357  0.28757952  0.38932254
   0.30971310  0.71168739  0.83336627
   0.80973226  0.21159035  0.83329367
   0.18485397  0.78775971  0.38935073
   0.56302802  0.20677485  0.56546221
   0.06042216  0.04089341  0.74393757
   0.81333316  0.87222149  0.52157496
   0.18603373  0.29074033  0.74389502
   0.93899024  0.45292622  0.34507423
   0.93489485  0.28756644  0.38931596
   0.81272215  0.04293910  0.87536841
   0.18798363  0.79106075  0.61045806
   0.55977625  0.03729468  0.38933506
   0.93455769  0.96160583  0.83336185
   0.31275819  0.54286128  0.87536063
   0.68602450  0.29070502  0.74395630
   0.19102848  0.61472795  0.16673270
   0.81300901  0.20495247  0.47830790
   0.81305977  0.54095058  0.61049167
   0.31306551  0.87046767  0.43428151
   0.81444162  0.03686650  0.25613773
   0.68910273  0.95321962  0.34513860
   0.94167013  0.11405825  0.16675593
   0.93851528  0.12235266  0.52153370
   0.56431755  0.53696769  0.25610243
   0.68779864  0.79322926  0.87538008
   0.56721801  0.36567348  0.16682855
   0.43574279  0.79070147  0.74392641
   0.81350089  0.70733245  0.56551217
   0.56499634  0.87341151  0.78827687
   0.68822722  0.12250628  0.52153651
   0.18961436  0.28742320  0.25602563
   0.93468281  0.46170203  0.83332597
   0.06287553  0.20762116  0.69959328
   0.43831305  0.95772139  0.69961374
   0.30964660  0.21139238  0.83339237
   0.43572782  0.62524279  0.65481133
   0.31316850  0.54099350  0.61051576
   0.93841953  0.45680185  0.56554062
   0.68580571  0.79119889  0.74394010
   0.31061178  0.87544841  0.65473481
   0.68489367  0.78740762  0.38934032
   0.93614162  0.79117557  0.74393574
   0.06424483  0.20291969  0.34508711
   0.80966992  0.03757402  0.38933344
   0.44037182  0.12338703  0.78837629
   0.06098807  0.20408258  0.21184337
   0.06688217  0.36511121  0.16676184
   0.93961120  0.78723777  0.25615991
   0.56319601  0.20805089  0.69958105
   0.68810354  0.95766092  0.69959601
   0.44053282  0.78528322  0.12487757
   0.43862882  0.95706020  0.56559584
   0.81514011  0.37331179  0.78823712
   0.68944308  0.28704349  0.25612037
   0.18842133  0.45682228  0.56555494
   0.06619556  0.86482301  0.16681028
   0.18817630  0.29083815  0.61044812
   0.56414652  0.70321420  0.34508993
   0.31300814  0.20798026  0.69962658
   0.56269964  0.54278542  0.87537479
   0.06337172  0.70674571  0.56561552
   0.69031147  0.62342874  0.78826415
   0.30987373  0.53782899  0.38931305
   0.18828826  0.62272051  0.52152699
   0.56276449  0.87049036  0.43431312
   0.43862514  0.45689151  0.56552326
   0.43600621  0.29085386  0.74392957
   0.80714513  0.87244987  0.30042782
   0.81426640  0.70314695  0.34516866
   0.43466576  0.46159668  0.83331278
   0.68789626  0.95488695  0.47830769
   0.68808097  0.45760084  0.69963692
   0.56322172  0.87234199  0.52154835
   0.56032581  0.37515329  0.65479240
   0.81054826  0.87503354  0.65481714
   0.81284810  0.37048074  0.43434135
   0.81417424  0.53715111  0.25614640
   0.68455805  0.46161412  0.83330212
   0.19096802  0.78431570  0.12495966
   0.06278574  0.04278776  0.87541384
   0.31037724  0.37528704  0.65483506
   0.31408286  0.20288007  0.34502075
   0.81074837  0.54086048  0.74393956
   0.68462858  0.96159941  0.83331369
   0.56026061  0.87509440  0.65483621
   0.31344559  0.70680749  0.56566030
   0.31363087  0.53289568  0.12451615
   0.68550397  0.95481679  0.21203763
   0.31352426  0.20727850  0.56562614
   0.81739677  0.36449899  0.16695757
   0.68839564  0.95725153  0.56554497
   0.43821760  0.79075239  0.61040981
   0.69222722  0.61570219  0.16690950
   0.30710153  0.87240450  0.30036205
   0.31281920  0.70446136  0.47825893
   0.93825119  0.29090408  0.61045906
   0.43219219  0.62239137  0.30040452
   0.81777576  0.86466241  0.16682512
   0.56062840  0.20420462  0.21185686
   0.94160080  0.61593765  0.16681755
   0.93823037  0.79312317  0.87539539
   0.56498674  0.37345269  0.78824432
   0.06330360  0.37240687  0.52152536
   0.56333636  0.37228259  0.52151654
   0.68219804  0.12243557  0.30039298
   0.43461232  0.96141957  0.83332550
   0.19042984  0.28484178  0.12473663
   0.81502858  0.87341753  0.78826432
   0.31279522  0.37071638  0.43431974
   0.56369533  0.03291988  0.12480783
   0.43793922  0.29087769  0.61049285
   0.18918358  0.45267956  0.34513003
   0.43989580  0.28482232  0.12469365
   0.68956106  0.78692871  0.25615753
   0.43805639  0.12240163  0.52156075
   0.18801833  0.29322615  0.87547180
   0.18562365  0.12490181  0.65474521
   0.93580572  0.12479158  0.65483172
   0.31045481  0.20412204  0.21187817
   0.05981187  0.03718757  0.38932968
   0.19241783  0.11520990  0.16705645
   0.06272927  0.54098613  0.61050188
   0.93950712  0.28718178  0.25601790
   0.56318189  0.54086902  0.61050473
   0.93837819  0.95728958  0.56556812
   0.68214352  0.62268418  0.30031629
   0.93776576  0.62045279  0.43432475
   0.94012916  0.62338855  0.78829823
   0.56288300  0.70749294  0.69962378
   0.05949179  0.71177701  0.83335172
   0.93235077  0.12224120  0.30034165
   0.93798759  0.79110318  0.61045787
   0.43951018  0.78698692  0.25609158
   0.31524855  0.37311188  0.78827379
   0.43603948  0.45464940  0.21200190
   0.18820772  0.12256292  0.52152557
   0.81307775  0.70738740  0.69959571
   0.06333646  0.04070617  0.61045886
   0.55961242  0.21178638  0.83327399
   0.31349118  0.87215223  0.52150883
   0.69081404  0.28526281  0.12490105
   0.18606084  0.95436069  0.21198434
   0.68803198  0.29111196  0.61049758
   0.31292286  0.04075664  0.61052026
   0.94017472  0.12341110  0.78839483
   0.43809079  0.79329324  0.87542181
   0.81075790  0.04092553  0.74396049
   0.93782899  0.45744917  0.69964898
   0.18561467  0.62535883  0.65482724
   0.31318880  0.70761196  0.69956379
   0.93932978  0.28498348  0.12491256
   0.43812192  0.45492764  0.47831964
   0.06284227  0.70445243  0.47827144
   0.93789145  0.12059793  0.43428995
   0.43194177  0.12221456  0.30039855
   0.18784971  0.12076112  0.43430104
   0.56281362  0.04282334  0.87538794
   0.18844152  0.95675158  0.56530955
   0.68994866  0.78371969  0.12491610
   0.56377347  0.53292721  0.12476070
   0.30972922  0.03705586  0.38935180
   0.69148884  0.11473038  0.16702390
   0.81014438  0.20411427  0.21190813
   0.06433859  0.53713208  0.25615432
   0.56265164  0.70468692  0.47827942
   0.06344333  0.20686451  0.56556584
   0.55709394  0.37238669  0.30038896
   0.43906799  0.95289512  0.34504438
   0.18452316  0.96149087  0.83332226
   0.44183865  0.61443485  0.16692194
   0.93563399  0.45392542  0.21201434
   0.06447903  0.53368161  0.12472030
   0.81324869  0.37235918  0.52156376
   0.93205609  0.62227950  0.30043816
   0.31429965  0.03702079  0.25612037
   0.68804087  0.79115116  0.61052494
   0.18471087  0.46162382  0.83331021
   0.44141322  0.11502462  0.16689166
   0.31332173  0.37235586  0.52154863
   0.44024975  0.62322679  0.78825185
   0.06425310  0.03705420  0.25608299
   0.56339382  0.70708836  0.56555218
   0.93592357  0.29071148  0.74395408
   0.69010434  0.12346723  0.78831214
   0.18512020  0.45479069  0.21202997
   0.93498450  0.78736245  0.38930659
   0.68810493  0.29344663  0.87545761
   0.31737699  0.86493419  0.16687331
   0.43828627  0.45752213  0.69958010
   0.93922877  0.95307593  0.34504270
   0.68825619  0.62235640  0.52153654
   0.06064252  0.87519373  0.65482100
   0.06494403  0.87342346  0.78829767
   0.06044799  0.37522069  0.65482197
   0.68780727  0.45496231  0.47829266
   0.18950049  0.78683940  0.25614293
   0.43741358  0.12055920  0.43428775
   0.81397341  0.03451454  0.12474461
   0.93825887  0.62251788  0.52155580
   0.06256339  0.87027321  0.43428803
   0.81278561  0.53371075  0.12479188
   0.43923140  0.45295738  0.34506668