       N       E                     dE             d eps       ncg     rms          rms(c)
DAV:   1     0.303878906606E+05    0.30388E+05   -0.91689E+05 27770   0.213E+03
DAV:   2     0.152301826536E+04   -0.28865E+05   -0.28269E+05 27600   0.616E+02
DAV:   3    -0.189744115726E+04   -0.34205E+04   -0.29723E+04 38430   0.298E+02
DAV:   4    -0.260917733522E+04   -0.71174E+03   -0.64805E+03 50640   0.103E+02
DAV:   5    -0.273943688887E+04   -0.13026E+03   -0.12181E+03 48260   0.424E+01    0.206E+02
RMM:   6    -0.576038356522E+04   -0.30209E+04   -0.11984E+04 48287   0.251E+02    0.647E+02
RMM:   7    -0.370320277947E+04    0.20572E+04   -0.37184E+03 44062   0.103E+02    0.387E+02
RMM:   8    -0.734878699649E+04   -0.36456E+04   -0.11241E+04 47206   0.260E+02    0.758E+02
RMM:   9    -0.671222521055E+04    0.63656E+03   -0.92163E+03 49679   0.134E+02    0.677E+02
RMM:  10    -0.115415220072E+05   -0.48293E+04   -0.89394E+03 43701   0.189E+02    0.644E+02
RMM:  11    -0.695622239430E+04    0.45853E+04   -0.60271E+03 35756   0.136E+02    0.539E+02
RMM:  12    -0.826785311898E+04   -0.13116E+04   -0.44335E+03 48124   0.128E+02    0.552E+02
RMM:  13    -0.797823973164E+04    0.28961E+03   -0.56253E+03 43077   0.220E+02    0.568E+02
RMM:  14    -0.769488771252E+04    0.28335E+03   -0.54342E+03 47095   0.137E+02    0.548E+02
RMM:  15    -0.776585427254E+04   -0.70967E+02   -0.36294E+03 49153   0.755E+01    0.517E+02
RMM:  16    -0.529023501324E+04    0.24756E+04   -0.36944E+03 39867   0.139E+02    0.404E+02
RMM:  17    -0.357144677038E+04    0.17188E+04   -0.35365E+03 49175   0.892E+01    0.366E+02
RMM:  18    -0.270332922645E+04    0.86812E+03   -0.21417E+03 48356   0.749E+01    0.331E+02
RMM:  19    -0.221633769363E+04    0.48699E+03   -0.13731E+03 47364   0.490E+01    0.222E+02
RMM:  20    -0.234357190642E+04   -0.12723E+03   -0.83642E+02 48862   0.485E+01    0.240E+02
RMM:  21    -0.260240715848E+04   -0.25884E+03   -0.83186E+02 47988   0.586E+01    0.263E+02
RMM:  22    -0.229602273323E+04    0.30638E+03   -0.70679E+02 49516   0.448E+01    0.222E+02
RMM:  23    -0.217338228200E+04    0.12264E+03   -0.39736E+02 47890   0.385E+01    0.163E+02
RMM:  24    -0.219470193433E+04   -0.21320E+02   -0.67428E+02 50918   0.276E+01    0.148E+02
RMM:  25    -0.221039638361E+04   -0.15694E+02   -0.44174E+02 49412   0.265E+01    0.119E+02
RMM:  26    -0.225693563850E+04   -0.46539E+02   -0.38726E+02 50892   0.217E+01    0.112E+02
RMM:  27    -0.230275429099E+04   -0.45819E+02   -0.29574E+02 50130   0.196E+01    0.111E+02
RMM:  28    -0.235392714034E+04   -0.51173E+02   -0.26354E+02 51282   0.170E+01    0.117E+02
RMM:  29    -0.239614692220E+04   -0.42220E+02   -0.19037E+02 48826   0.185E+01    0.119E+02
RMM:  30    -0.243516177038E+04   -0.39015E+02   -0.23825E+02 49401   0.166E+01    0.123E+02
RMM:  31    -0.247332142004E+04   -0.38160E+02   -0.22830E+02 51113   0.142E+01    0.132E+02
RMM:  32    -0.251170321602E+04   -0.38382E+02   -0.22040E+02 48185   0.135E+01    0.143E+02
RMM:  33    -0.254505006488E+04   -0.33347E+02   -0.23564E+02 49774   0.137E+01    0.155E+02
RMM:  34    -0.256993188182E+04   -0.24882E+02   -0.28883E+02 50442   0.126E+01    0.167E+02
RMM:  35    -0.258607843012E+04   -0.16147E+02   -0.26016E+02 49134   0.115E+01    0.171E+02
RMM:  36    -0.261107949652E+04   -0.25001E+02   -0.28565E+02 49934   0.109E+01    0.181E+02
RMM:  37    -0.264149938828E+04   -0.30420E+02   -0.26357E+02 49998   0.978E+00    0.187E+02
RMM:  38    -0.267293116702E+04   -0.31432E+02   -0.25279E+02 50603   0.876E+00    0.193E+02
RMM:  39    -0.270094701814E+04   -0.28016E+02   -0.24490E+02 48334   0.824E+00    0.200E+02
RMM:  40    -0.272269627448E+04   -0.21749E+02   -0.26121E+02 46545   0.820E+00    0.206E+02
RMM:  41    -0.273003222506E+04   -0.73360E+01   -0.26013E+02 47136   0.806E+00    0.211E+02
RMM:  42    -0.273710584826E+04   -0.70736E+01   -0.24548E+02 48179   0.762E+00    0.212E+02
RMM:  43    -0.273105019209E+04    0.60557E+01   -0.24459E+02 46807   0.736E+00    0.214E+02
RMM:  44    -0.269888439737E+04    0.32166E+02   -0.27206E+02 45891   0.898E+00    0.212E+02
RMM:  45    -0.270479444657E+04   -0.59100E+01   -0.26753E+02 48508   0.632E+00    0.212E+02
RMM:  46    -0.274488930350E+04   -0.40095E+02   -0.26677E+02 46883   0.599E+00    0.215E+02
RMM:  47    -0.275926197809E+04   -0.14373E+02   -0.27171E+02 45293   0.602E+00    0.216E+02
RMM:  48    -0.281350130929E+04   -0.54239E+02   -0.28731E+02 46253   0.560E+00    0.220E+02
RMM:  49    -0.283152718563E+04   -0.18026E+02   -0.32070E+02 45407   0.631E+00    0.224E+02
RMM:  50    -0.291105664899E+04   -0.79529E+02   -0.36999E+02 43887   0.662E+00    0.232E+02
RMM:  51    -0.307483358455E+04   -0.16378E+03   -0.66304E+02 36839   0.276E+01    0.248E+02
RMM:  52    -0.283044394630E+04    0.24439E+03   -0.52343E+02 37479   0.240E+01    0.235E+02
RMM:  53    -0.277393113288E+04    0.56513E+02   -0.38627E+02 37131   0.175E+01    0.227E+02
RMM:  54    -0.274987486900E+04    0.24056E+02   -0.33332E+02 40638   0.125E+01    0.225E+02
RMM:  55    -0.269412512498E+04    0.55750E+02   -0.24839E+02 42534   0.101E+01    0.215E+02
RMM:  56    -0.274927782360E+04   -0.55153E+02   -0.15299E+02 37370   0.102E+01    0.221E+02
RMM:  57    -0.271378591579E+04    0.35492E+02   -0.91768E+01 39442   0.778E+00    0.214E+02
RMM:  58    -0.269054912749E+04    0.23237E+02   -0.65521E+01 35429   0.770E+00    0.207E+02
RMM:  59    -0.266116442128E+04    0.29385E+02   -0.51800E+01 39091   0.651E+00    0.202E+02
RMM:  60    -0.263135388545E+04    0.29811E+02   -0.32346E+01 35473   0.570E+00    0.197E+02
RMM:  61    -0.260929127490E+04    0.22063E+02   -0.91648E+01 33762   0.113E+01    0.191E+02
RMM:  62    -0.262914940492E+04   -0.19858E+02   -0.31498E+01 29615   0.974E+00    0.193E+02
RMM:  63    -0.264303259238E+04   -0.13883E+02   -0.22038E+01 32657   0.571E+00    0.194E+02
RMM:  64    -0.266701671548E+04   -0.23984E+02   -0.20622E+01 41429   0.317E+00    0.196E+02
RMM:  65    -0.270404051588E+04   -0.37024E+02   -0.15331E+01 33678   0.358E+00    0.200E+02
RMM:  66    -0.271059470097E+04   -0.65542E+01   -0.69305E+01 30591   0.133E+01    0.215E+02
RMM:  67    -0.273179441542E+04   -0.21200E+02   -0.23605E+01 27661   0.114E+01    0.209E+02
RMM:  68    -0.275967942315E+04   -0.27885E+02   -0.21581E+01 30423   0.741E+00    0.209E+02
RMM:  69    -0.280707312519E+04   -0.47394E+02   -0.29436E+01 31427   0.725E+00    0.213E+02
RMM:  70    -0.281767777388E+04   -0.10605E+02   -0.18968E+01 31831   0.616E+00    0.215E+02
RMM:  71    -0.268363639632E+04    0.13404E+03   -0.66273E+02 31148   0.439E+01    0.219E+02
RMM:  72    -0.259053530049E+04    0.93101E+02   -0.52042E+02 37085   0.291E+01    0.182E+02
RMM:  73    -0.255138832616E+04    0.39147E+02   -0.33950E+02 44128   0.144E+01    0.166E+02
RMM:  74    -0.257124106158E+04   -0.19853E+02   -0.19382E+02 45150   0.830E+00    0.174E+02
RMM:  75    -0.257751654515E+04   -0.62755E+01   -0.10931E+02 43995   0.557E+00    0.178E+02
RMM:  76    -0.326254969024E+04   -0.68503E+03   -0.23520E+03 38934   0.850E+01    0.291E+02
RMM:  77    -0.269666660991E+04    0.56588E+03   -0.49297E+02 27603   0.536E+01    0.213E+02
RMM:  78    -0.260784125938E+04    0.88825E+02   -0.17778E+02 29040   0.249E+01    0.191E+02
RMM:  79    -0.254755922053E+04    0.60282E+02   -0.16734E+02 30414   0.209E+01    0.171E+02
RMM:  80    -0.255818996762E+04   -0.10631E+02   -0.17409E+02 35405   0.176E+01    0.174E+02
RMM:  81    -0.291893255252E+04   -0.36074E+03   -0.90760E+02 35695   0.448E+01    0.261E+02
RMM:  82    -0.251326427092E+04    0.40567E+03   -0.17632E+02 27647   0.276E+01    0.172E+02
RMM:  83    -0.250261136680E+04    0.10653E+02   -0.15185E+02 33481   0.162E+01    0.174E+02
RMM:  84    -0.248064757006E+04    0.21964E+02   -0.10368E+02 38688   0.100E+01    0.167E+02
RMM:  85    -0.245141134690E+04    0.29236E+02   -0.42430E+01 33570   0.849E+00    0.157E+02
RMM:  86    -0.242251207191E+04    0.28899E+02   -0.12826E+02 29059   0.214E+01    0.124E+02
RMM:  87    -0.244850849842E+04   -0.25996E+02   -0.70820E+01 27600   0.208E+01    0.151E+02
RMM:  88    -0.238468055300E+04    0.63828E+02   -0.45612E+01 30856   0.112E+01    0.109E+02
RMM:  89    -0.236283361677E+04    0.21847E+02   -0.56709E+01 30955   0.120E+01    0.930E+01
RMM:  90    -0.234823598801E+04    0.14598E+02   -0.64392E+01 38488   0.868E+00    0.737E+01
RMM:  91    -0.238896688735E+04   -0.40731E+02   -0.14924E+02 29751   0.223E+01    0.101E+02
RMM:  92    -0.234123025787E+04    0.47737E+02   -0.60034E+01 27602   0.194E+01    0.581E+01
RMM:  93    -0.233992243712E+04    0.13078E+01   -0.37856E+01 31111   0.954E+00    0.559E+01
RMM:  94    -0.233817396820E+04    0.17485E+01   -0.26675E+01 35320   0.620E+00    0.504E+01
RMM:  95    -0.233808342754E+04    0.90541E-01   -0.13939E+01 32217   0.529E+00    0.494E+01
RMM:  96    -0.234729974166E+04   -0.92163E+01   -0.23602E+01 29529   0.896E+00    0.624E+01
RMM:  97    -0.233760886325E+04    0.96909E+01   -0.10643E+01 28193   0.750E+00    0.502E+01
RMM:  98    -0.233367127650E+04    0.39376E+01   -0.86261E+00 35062   0.324E+00    0.434E+01
RMM:  99    -0.233498530066E+04   -0.13140E+01   -0.44332E+00 30430   0.360E+00    0.471E+01
RMM: 100    -0.233387255471E+04    0.11127E+01   -0.47621E+00 37236   0.237E+00
   1 F= -.23338726E+04 E0= -.23311596E+04  d E =-.233387E+04
       N       E                     dE             d eps       ncg     rms          rms(c)
DAV:   1    -0.235282974324E+04   -0.17844E+02   -0.38135E+02 41260   0.285E+01    0.719E+01
RMM:   2    -0.169209646436E+05   -0.14568E+05   -0.26957E+04 49099   0.399E+02    0.137E+03
RMM:   3    -0.133715199379E+05    0.35494E+04   -0.16755E+04 48894   0.218E+02    0.719E+02
RMM:   4    -0.908139182871E+04    0.42901E+04   -0.45010E+03 46096   0.143E+02    0.459E+02
RMM:   5    -0.787514933753E+04    0.12062E+04   -0.44280E+03 44085   0.134E+02    0.429E+02
RMM:   6    -0.686000308020E+04    0.10151E+04   -0.41290E+03 31383   0.116E+02    0.413E+02
RMM:   7    -0.296983670651E+04    0.38902E+04   -0.87371E+02 31535   0.535E+01    0.255E+02
RMM:   8    -0.269677080496E+04    0.27307E+03   -0.65905E+02 30787   0.445E+01    0.203E+02
RMM:   9    -0.246322536050E+04    0.23355E+03   -0.52530E+02 39287   0.245E+01    0.160E+02
RMM:  10    -0.238111592260E+04    0.82109E+02   -0.39042E+02 38593   0.202E+01    0.101E+02
RMM:  11    -0.237563437955E+04    0.54815E+01   -0.17817E+02 36007   0.158E+01    0.106E+02
RMM:  12    -0.235325775636E+04    0.22377E+02   -0.12140E+02 35623   0.128E+01    0.766E+01
RMM:  13    -0.235828013247E+04   -0.50224E+01   -0.84321E+01 33158   0.127E+01    0.791E+01
RMM:  14    -0.234133508173E+04    0.16945E+02   -0.32542E+01 29554   0.110E+01    0.552E+01
RMM:  15    -0.233512398063E+04    0.62111E+01   -0.34950E+01 40669   0.452E+00    0.404E+01
RMM:  16    -0.233315474458E+04    0.19692E+01   -0.11819E+01 37744   0.315E+00    0.364E+01
RMM:  17    -0.233899834450E+04   -0.58436E+01   -0.69481E+00 31895   0.371E+00    0.499E+01
RMM:  18    -0.236280713604E+04   -0.23809E+02   -0.84609E+00 29199   0.560E+00    0.801E+01
RMM:  19    -0.237234372713E+04   -0.95366E+01   -0.97885E+00 35423   0.380E+00    0.904E+01
RMM:  20    -0.236964685567E+04    0.26969E+01   -0.53734E+00 42007   0.175E+00    0.889E+01
RMM:  21    -0.236849409444E+04    0.11528E+01   -0.18182E+00 30529   0.218E+00    0.878E+01
RMM:  22    -0.236433714789E+04    0.41569E+01   -0.18209E+00 36618   0.162E+00    0.835E+01
RMM:  23    -0.235711283508E+04    0.72243E+01   -0.15855E+00 29484   0.243E+00    0.745E+01
RMM:  24    -0.235529083205E+04    0.18220E+01   -0.22403E+00 29171   0.287E+00    0.726E+01
RMM:  25    -0.235051607968E+04    0.47748E+01   -0.27930E+00 30698   0.276E+00    0.652E+01
RMM:  26    -0.234260772916E+04    0.79084E+01   -0.18486E+00 31665   0.212E+00    0.539E+01
RMM:  27    -0.233818500784E+04    0.44227E+01   -0.21516E+00 32931   0.212E+00    0.463E+01
RMM:  28    -0.233582039842E+04    0.23646E+01   -0.12579E+00 38227   0.123E+00    0.416E+01
RMM:  29    -0.233610532895E+04   -0.28493E+00   -0.59087E-01 35384   0.907E-01    0.421E+01
RMM:  30    -0.233706831803E+04   -0.96299E+00   -0.37946E-01 36147   0.760E-01    0.439E+01
RMM:  31    -0.233862475282E+04   -0.15564E+01   -0.26165E-01 29411   0.995E-01    0.469E+01
RMM:  32    -0.233656752376E+04    0.20572E+01   -0.62113E-01 29946   0.139E+00    0.429E+01
RMM:  33    -0.233332414471E+04    0.32434E+01   -0.94018E-01 30498   0.163E+00    0.358E+01
RMM:  34    -0.233182996763E+04    0.14942E+01   -0.96542E-01 38777   0.983E-01    0.321E+01
RMM:  35    -0.233119871799E+04    0.63125E+00   -0.40832E-01 32962   0.854E-01    0.303E+01
RMM:  36    -0.233024632774E+04    0.95239E+00   -0.24265E-01 29951   0.884E-01    0.278E+01
RMM:  37    -0.232983079562E+04    0.41553E+00   -0.23963E-01 31952   0.738E-01    0.267E+01
RMM:  38    -0.232836422208E+04    0.14666E+01   -0.40522E-01 36795   0.754E-01    0.220E+01
RMM:  39    -0.232752488772E+04    0.83933E+00   -0.26423E-01 33271   0.680E-01    0.186E+01
RMM:  40    -0.232734238409E+04    0.18250E+00   -0.22476E-01 41843   0.392E-01    0.178E+01
RMM:  41    -0.232735820602E+04   -0.15822E-01   -0.98732E-02 30507   0.551E-01    0.175E+01
RMM:  42    -0.232732688644E+04    0.31320E-01   -0.96048E-02 34491   0.393E-01    0.173E+01
RMM:  43    -0.232718838294E+04    0.13850E+00   -0.81354E-02 35018   0.363E-01    0.166E+01
RMM:  44    -0.232690264776E+04    0.28574E+00   -0.77490E-02 31724   0.417E-01    0.153E+01
RMM:  45    -0.232669316674E+04    0.20948E+00   -0.14398E-01 34517   0.503E-01    0.143E+01
RMM:  46    -0.232651359042E+04    0.17958E+00   -0.13790E-01 36163   0.441E-01    0.135E+01
RMM:  47    -0.233019928904E+04   -0.36857E+01   -0.39345E+00 28534   0.413E+00    0.285E+01
RMM:  48    -0.233119405491E+04   -0.99477E+00   -0.37677E+00 41875   0.158E+00    0.307E+01
RMM:  49    -0.233039214264E+04    0.80191E+00   -0.92659E-01 28196   0.204E+00    0.284E+01
RMM:  50    -0.232940805187E+04    0.98409E+00   -0.84772E-01 27680   0.216E+00    0.255E+01
RMM:  51    -0.232979147398E+04   -0.38342E+00   -0.11362E+00 27812   0.225E+00    0.273E+01
RMM:  52    -0.232750729096E+04    0.22842E+01   -0.35502E+00 27658   0.405E+00    0.180E+01
RMM:  53    -0.232735224927E+04    0.15504E+00   -0.22713E+00 28440   0.293E+00    0.167E+01
RMM:  54    -0.232647433371E+04    0.87792E+00   -0.12573E+00 27934   0.248E+00    0.117E+01
RMM:  55    -0.232616434805E+04    0.30999E+00   -0.57085E-01 28544   0.167E+00    0.928E+00
RMM:  56    -0.232613607890E+04    0.28269E-01   -0.71428E-01 33022   0.115E+00    0.888E+00
RMM:  57    -0.232642773091E+04   -0.29165E+00   -0.96743E-01 27721   0.199E+00    0.114E+01
RMM:  58    -0.232623323244E+04    0.19450E+00   -0.66883E-01 27656   0.187E+00    0.939E+00
RMM:  59    -0.232636798104E+04   -0.13475E+00   -0.43955E-01 28341   0.143E+00    0.105E+01
RMM:  60    -0.232624455773E+04    0.12342E+00   -0.25565E-01 28389   0.112E+00    0.930E+00
RMM:  61    -0.232602260093E+04    0.22196E+00   -0.17524E-01 28813   0.874E-01    0.689E+00
RMM:  62    -0.232608481923E+04   -0.62218E-01   -0.29588E-01 28581   0.105E+00    0.765E+00
RMM:  63    -0.232585508546E+04    0.22973E+00   -0.11426E-01 27628   0.813E-01    0.411E+00
RMM:  64    -0.232579113919E+04    0.63946E-01   -0.71389E-02 31692   0.389E-01    0.235E+00
RMM:  65    -0.232577684976E+04    0.14289E-01   -0.33363E-02 32786   0.254E-01    0.162E+00
RMM:  66    -0.232577278661E+04    0.40632E-02   -0.15000E-02 29652   0.224E-01    0.130E+00
RMM:  67    -0.232578721501E+04   -0.14428E-01   -0.20129E-02 29660   0.255E-01    0.211E+00
RMM:  68    -0.232578268804E+04    0.45270E-02   -0.10543E-02 28679   0.217E-01    0.186E+00
RMM:  69    -0.232579014183E+04   -0.74538E-02   -0.19110E-02 31165   0.221E-01    0.215E+00
RMM:  70    -0.232578244998E+04    0.76919E-02   -0.11410E-02 28373   0.224E-01    0.176E+00
RMM:  71    -0.232577254638E+04    0.99036E-02   -0.10235E-02 29320   0.189E-01    0.108E+00
RMM:  72    -0.232577394320E+04   -0.13968E-02   -0.15553E-02 28949   0.248E-01    0.114E+00
RMM:  73    -0.232577145402E+04    0.24892E-02   -0.76774E-03 28452   0.194E-01    0.985E-01
RMM:  74    -0.232576949810E+04    0.19559E-02   -0.69002E-03 33679   0.987E-02    0.712E-01
RMM:  75    -0.232576763789E+04    0.18602E-02   -0.25205E-03 32806   0.722E-02    0.419E-01
RMM:  76    -0.232576753701E+04    0.10087E-03   -0.11863E-03 30645   0.571E-02    0.396E-01
RMM:  77    -0.232576758440E+04   -0.47387E-04   -0.10395E-03 29533   0.595E-02    0.396E-01
RMM:  78    -0.232576731730E+04    0.26710E-03   -0.66863E-04 29732   0.486E-02    0.319E-01
RMM:  79    -0.232576703096E+04    0.28634E-03   -0.71152E-04 32501   0.372E-02    0.199E-01
RMM:  80    -0.232576694514E+04    0.85822E-04   -0.36815E-04 31398   0.286E-02    0.142E-01
RMM:  81    -0.232576697492E+04   -0.29784E-04   -0.29589E-04 33288   0.200E-02    0.150E-01
RMM:  82    -0.232576703956E+04   -0.64637E-04   -0.17505E-04 29432   0.234E-02    0.188E-01
RMM:  83    -0.232576697641E+04    0.63149E-04   -0.73855E-05 24667   0.193E-02    0.149E-01
RMM:  84    -0.232576690670E+04    0.69708E-04   -0.81133E-05 23202   0.139E-02    0.975E-02
RMM:  85    -0.232576686391E+04    0.42792E-04   -0.39138E-05 19583   0.138E-02    0.417E-02
RMM:  86    -0.232576686455E+04   -0.64378E-06   -0.27869E-05 18424   0.905E-03
   2 F= -.23257669E+04 E0= -.23229992E+04  d E =0.810569E+01
       N       E                     dE             d eps       ncg     rms          rms(c)
DAV:   1    -0.232583938382E+04   -0.72520E-01   -0.12381E+01 29230   0.370E+00    0.957E-01
RMM:   2    -0.232847896983E+04   -0.26396E+01   -0.87964E-01 30575   0.160E+00    0.221E+01
RMM:   3    -0.232792618568E+04    0.55278E+00   -0.44370E-01 33053   0.988E-01    0.190E+01
RMM:   4    -0.232687242789E+04    0.10538E+01   -0.15734E-01 27614   0.895E-01    0.139E+01
RMM:   5    -0.232650218803E+04    0.37024E+00   -0.14412E-01 34141   0.508E-01    0.107E+01
RMM:   6    -0.232594670367E+04    0.55548E+00   -0.81957E-02 27851   0.575E-01    0.402E+00
RMM:   7    -0.232604749074E+04   -0.10079E+00   -0.21782E-01 29682   0.777E-01    0.610E+00
RMM:   8    -0.232599607509E+04    0.51416E-01   -0.14554E-01 29534   0.668E-01    0.491E+00
RMM:   9    -0.232589022514E+04    0.10585E+00   -0.56063E-02 27726   0.483E-01    0.280E+00
RMM:  10    -0.232585166669E+04    0.38558E-01   -0.32407E-02 28924   0.318E-01    0.109E+00
RMM:  11    -0.232584994128E+04    0.17254E-02   -0.31828E-02 35389   0.210E-01    0.916E-01
RMM:  12    -0.232585201145E+04   -0.20702E-02   -0.19285E-02 33269   0.195E-01    0.104E+00
RMM:  13    -0.232584775138E+04    0.42601E-02   -0.53158E-03 27808   0.159E-01    0.593E-01
RMM:  14    -0.232584739624E+04    0.35514E-03   -0.49626E-03 33922   0.925E-02    0.515E-01
RMM:  15    -0.232584689462E+04    0.50161E-03   -0.31720E-03 30183   0.959E-02    0.399E-01
RMM:  16    -0.232584622918E+04    0.66544E-03   -0.12352E-03 27918   0.776E-02    0.221E-01
RMM:  17    -0.232584625142E+04   -0.22235E-04   -0.13061E-03 37261   0.401E-02    0.209E-01
RMM:  18    -0.232584622920E+04    0.22219E-04   -0.50472E-04 30648   0.376E-02    0.191E-01
RMM:  19    -0.232584607804E+04    0.15116E-03   -0.21336E-04 28553   0.313E-02    0.994E-02
RMM:  20    -0.232584607473E+04    0.33089E-05   -0.21887E-04 30959   0.172E-02    0.836E-02
RMM:  21    -0.232584608047E+04   -0.57429E-05   -0.15581E-04 29781   0.180E-02    0.809E-02
RMM:  22    -0.232584605338E+04    0.27090E-04   -0.60481E-05 21629   0.146E-02    0.395E-02
RMM:  23    -0.232584605447E+04   -0.10893E-05   -0.43923E-05 20615   0.779E-03
   3 F= -.23258461E+04 E0= -.23230784E+04  d E =0.802650E+01
       N       E                     dE             d eps       ncg     rms          rms(c)
DAV:   1    -0.232588892632E+04   -0.42873E-01   -0.59738E+00 28490   0.257E+00    0.674E-01
RMM:   2    -0.232724946516E+04   -0.13605E+01   -0.46478E-01 30999   0.114E+00    0.159E+01
RMM:   3    -0.232695399313E+04    0.29547E+00   -0.21306E-01 32339   0.709E-01    0.136E+01
RMM:   4    -0.232639047036E+04    0.56352E+00   -0.77983E-02 27620   0.626E-01    0.969E+00
RMM:   5    -0.232624427245E+04    0.14620E+00   -0.75238E-02 33904   0.366E-01    0.785E+00
RMM:   6    -0.232593955580E+04    0.30472E+00   -0.41465E-02 27834   0.410E-01    0.274E+00
RMM:   7    -0.232599766659E+04   -0.58111E-01   -0.11326E-01 30080   0.548E-01    0.441E+00
RMM:   8    -0.232598008076E+04    0.17586E-01   -0.78809E-02 29865   0.480E-01    0.378E+00
RMM:   9    -0.232591196037E+04    0.68120E-01   -0.29202E-02 27710   0.353E-01    0.188E+00
RMM:  10    -0.232589497326E+04    0.16987E-01   -0.17963E-02 29456   0.227E-01    0.799E-01
RMM:  11    -0.232589406858E+04    0.90468E-03   -0.16318E-02 35546   0.150E-01    0.672E-01
RMM:  12    -0.232589482835E+04   -0.75977E-03   -0.96332E-03 33166   0.140E-01    0.721E-01
RMM:  13    -0.232589265639E+04    0.21720E-02   -0.26687E-03 27903   0.113E-01    0.393E-01
RMM:  14    -0.232589250816E+04    0.14824E-03   -0.24920E-03 34084   0.644E-02    0.339E-01
RMM:  15    -0.232589234686E+04    0.16130E-03   -0.15950E-03 30482   0.665E-02    0.279E-01
RMM:  16    -0.232589201799E+04    0.32887E-03   -0.62905E-04 27976   0.547E-02    0.151E-01
RMM:  17    -0.232589201232E+04    0.56630E-05   -0.62259E-04 36572   0.284E-02    0.132E-01
RMM:  18    -0.232589202106E+04   -0.87405E-05   -0.27332E-04 30864   0.264E-02    0.133E-01
RMM:  19    -0.232589194678E+04    0.74282E-04   -0.11038E-04 26894   0.225E-02    0.666E-02
RMM:  20    -0.232589194111E+04    0.56708E-05   -0.79725E-05 22858   0.124E-02
   4 F= -.23258919E+04 E0= -.23231242E+04  d E =0.798061E+01
       N       E                     dE             d eps       ncg     rms          rms(c)
DAV:   1    -0.232595202670E+04   -0.60080E-01   -0.43563E+01 27710   0.694E+00    0.181E+00
RMM:   2    -0.233407246681E+04   -0.81204E+01   -0.30796E+00 30654   0.305E+00    0.382E+01
RMM:   3    -0.233294106070E+04    0.11314E+01   -0.14547E+00 32456   0.184E+00    0.344E+01
RMM:   4    -0.232753822371E+04    0.54028E+01   -0.57851E-01 27608   0.171E+00    0.172E+01
RMM:   5    -0.232791945325E+04   -0.38123E+00   -0.30418E-01 29728   0.957E-01    0.190E+01
RMM:   6    -0.232650970341E+04    0.14097E+01   -0.29344E-01 36443   0.664E-01    0.929E+00
RMM:   7    -0.232650546024E+04    0.42432E-02   -0.47780E-01 28252   0.131E+00    0.969E+00
RMM:   8    -0.232646945035E+04    0.36010E-01   -0.46107E-01 29895   0.115E+00    0.894E+00
RMM:   9    -0.232613172230E+04    0.33773E+00   -0.17478E-01 27642   0.881E-01    0.518E+00
RMM:  10    -0.232599703939E+04    0.13468E+00   -0.80461E-02 28035   0.584E-01    0.192E+00
RMM:  11    -0.232599124501E+04    0.57944E-02   -0.89394E-02 33149   0.392E-01    0.168E+00
RMM:  12    -0.232600058573E+04   -0.93407E-02   -0.67758E-02 33329   0.365E-01    0.199E+00
RMM:  13    -0.232598654344E+04    0.14042E-01   -0.18355E-02 27945   0.298E-01    0.125E+00
RMM:  14    -0.232598421114E+04    0.23323E-02   -0.15342E-02 33042   0.172E-01    0.105E+00
RMM:  15    -0.232598153254E+04    0.26786E-02   -0.11723E-02 30604   0.176E-01    0.752E-01
RMM:  16    -0.232597948441E+04    0.20481E-02   -0.46085E-03 27673   0.149E-01    0.489E-01
RMM:  17    -0.232597956145E+04   -0.77036E-04   -0.43739E-03 35174   0.824E-02    0.481E-01
RMM:  18    -0.232597951703E+04    0.44421E-04   -0.19483E-03 30693   0.733E-02    0.460E-01
RMM:  19    -0.232597876223E+04    0.75480E-03   -0.87863E-04 28635   0.628E-02    0.283E-01
RMM:  20    -0.232597864834E+04    0.11389E-03   -0.92203E-04 35825   0.349E-02    0.223E-01
RMM:  21    -0.232597856204E+04    0.86299E-04   -0.65590E-04 32093   0.374E-02    0.173E-01
RMM:  22    -0.232597850955E+04    0.52495E-04   -0.26455E-04 29264   0.308E-02    0.145E-01
RMM:  23    -0.232597850589E+04    0.36538E-05   -0.26904E-04 31005   0.152E-02    0.132E-01
RMM:  24    -0.232597845418E+04    0.51718E-04   -0.90115E-05 24310   0.141E-02    0.838E-02
RMM:  25    -0.232597842585E+04    0.28329E-04   -0.31386E-05 18781   0.122E-02    0.432E-02
RMM:  26    -0.232597842464E+04    0.12037E-05   -0.19992E-05 17968   0.674E-03
   5 F= -.23259784E+04 E0= -.23232105E+04  d E =0.789413E+01
       N       E                     dE             d eps       ncg     rms          rms(c)
DAV:   1    -0.232599536704E+04   -0.16941E-01   -0.10897E+01 27710   0.347E+00    0.904E-01
RMM:   2    -0.232842630461E+04   -0.24309E+01   -0.82738E-01 30901   0.152E+00    0.212E+01
RMM:   3    -0.232792862038E+04    0.49768E+00   -0.39553E-01 32881   0.942E-01    0.183E+01
RMM:   4    -0.232705535088E+04    0.87327E+00   -0.14241E-01 27641   0.839E-01    0.140E+01
RMM:   5    -0.232654911503E+04    0.50624E+00   -0.13621E-01 33426   0.510E-01    0.976E+00
RMM:   6    -0.232608967991E+04    0.45944E+00   -0.76895E-02 27832   0.559E-01    0.383E+00
RMM:   7    -0.232619546662E+04   -0.10579E+00   -0.21904E-01 30407   0.743E-01    0.601E+00
RMM:   8    -0.232615030811E+04    0.45159E-01   -0.13672E-01 29427   0.652E-01    0.490E+00
RMM:   9    -0.232603874245E+04    0.11157E+00   -0.52459E-02 27741   0.468E-01    0.259E+00
RMM:  10    -0.232600637120E+04    0.32371E-01   -0.31819E-02 29345   0.307E-01    0.106E+00
RMM:  11    -0.232600468096E+04    0.16902E-02   -0.29700E-02 35650   0.201E-01    0.884E-01
RMM:  12    -0.232600637640E+04   -0.16954E-02   -0.17870E-02 33383   0.188E-01    0.980E-01
RMM:  13    -0.232600261707E+04    0.37593E-02   -0.49523E-03 27982   0.152E-01    0.569E-01
RMM:  14    -0.232600224386E+04    0.37321E-03   -0.45812E-03 33859   0.884E-02    0.487E-01
RMM:  15    -0.232600180964E+04    0.43422E-03   -0.30028E-03 30557   0.902E-02    0.378E-01
RMM:  16    -0.232600123989E+04    0.56975E-03   -0.11972E-03 27905   0.749E-02    0.224E-01
RMM:  17    -0.232600119280E+04    0.47091E-04   -0.10717E-03 35259   0.410E-02    0.188E-01
RMM:  18    -0.232600122375E+04   -0.30956E-04   -0.57895E-04 32193   0.363E-02    0.195E-01
RMM:  19    -0.232600106157E+04    0.16219E-03   -0.21696E-04 28395   0.315E-02    0.948E-02
RMM:  20    -0.232600105403E+04    0.75350E-05   -0.19962E-04 30613   0.175E-02    0.764E-02
RMM:  21    -0.232600106232E+04   -0.82880E-05   -0.14184E-04 29079   0.173E-02    0.781E-02
RMM:  22    -0.232600103743E+04    0.24889E-04   -0.57589E-05 21425   0.146E-02    0.374E-02
RMM:  23    -0.232600103744E+04   -0.88476E-08   -0.38429E-05 20126   0.770E-03
   6 F= -.23260010E+04 E0= -.23232329E+04  d E =0.787152E+01
       N       E                     dE             d eps       ncg     rms          rms(c)
DAV:   1    -0.232600580714E+04   -0.47697E-02   -0.27251E+00 28190   0.173E+00    0.455E-01
RMM:   2    -0.232661047189E+04   -0.60466E+00   -0.21936E-01 31099   0.771E-01    0.106E+01
RMM:   3    -0.232649877802E+04    0.11169E+00   -0.95763E-02 32200   0.480E-01    0.928E+00
RMM:   4    -0.232621877156E+04    0.28001E+00   -0.35219E-02 27624   0.419E-01    0.633E+00
RMM:   5    -0.232617984567E+04    0.38926E-01   -0.34981E-02 33946   0.247E-01    0.551E+00
RMM:   6    -0.232602823863E+04    0.15161E+00   -0.18760E-02 27869   0.275E-01    0.180E+00
RMM:   7    -0.232605483841E+04   -0.26600E-01   -0.51302E-02 30171   0.366E-01    0.297E+00
RMM:   8    -0.232605000539E+04    0.48330E-02   -0.38083E-02 30165   0.326E-01    0.264E+00
RMM:   9    -0.232601606410E+04    0.33941E-01   -0.13648E-02 27713   0.242E-01    0.125E+00
RMM:  10    -0.232600869594E+04    0.73682E-02   -0.87630E-03 29776   0.154E-01    0.564E-01
RMM:  11    -0.232600823103E+04    0.46491E-03   -0.75734E-03 35478   0.103E-01    0.474E-01
RMM:  12    -0.232600845851E+04   -0.22748E-03   -0.44520E-03 32888   0.960E-02    0.482E-01
RMM:  13    -0.232600745417E+04    0.10043E-02   -0.12349E-03 27897   0.769E-02    0.256E-01
RMM:  14    -0.232600736292E+04    0.91253E-04   -0.10779E-03 33137   0.444E-02    0.210E-01
RMM:  15    -0.232600734073E+04    0.22187E-04   -0.78978E-04 31101   0.447E-02    0.191E-01
RMM:  16    -0.232600719513E+04    0.14560E-03   -0.32474E-04 28181   0.379E-02    0.106E-01
RMM:  17    -0.232600717679E+04    0.18337E-04   -0.26693E-04 32814   0.205E-02    0.816E-02
RMM:  18    -0.232600718388E+04   -0.70895E-05   -0.12767E-04 28231   0.171E-02    0.860E-02
RMM:  19    -0.232600715365E+04    0.30237E-04   -0.53987E-05 21606   0.161E-02    0.450E-02
RMM:  20    -0.232600714884E+04    0.48029E-05   -0.23106E-05 17921   0.915E-03
   7 F= -.23260071E+04 E0= -.23232388E+04  d E =0.786541E+01
       N       E                     dE             d eps       ncg     rms          rms(c)
DAV:   1    -0.232600854181E+04   -0.13882E-02   -0.68127E-01 28680   0.868E-01    0.219E-01
RMM:   2    -0.232612802146E+04   -0.11948E+00   -0.49179E-02 31140   0.369E-01    0.468E+00
RMM:   3    -0.232611680615E+04    0.11215E-01   -0.21347E-02 32491   0.224E-01    0.436E+00
RMM:   4    -0.232604571613E+04    0.71090E-01   -0.78720E-03 27626   0.197E-01    0.264E+00
RMM:   5    -0.232605476180E+04   -0.90457E-02   -0.73825E-03 34017   0.113E-01    0.286E+00
RMM:   6    -0.232601398723E+04    0.40775E-01   -0.39639E-03 28020   0.124E-01    0.865E-01
RMM:   7    -0.232601904870E+04   -0.50615E-02   -0.10066E-02 29589   0.170E-01    0.137E+00
RMM:   8    -0.232601921239E+04   -0.16369E-03   -0.10162E-02 31639   0.154E-01    0.130E+00
RMM:   9    -0.232601113002E+04    0.80824E-02   -0.33772E-03 27658   0.121E-01    0.621E-01
RMM:  10    -0.232600928628E+04    0.18437E-02   -0.21105E-03 29669   0.771E-02    0.279E-01
RMM:  11    -0.232600920327E+04    0.83011E-04   -0.19187E-03 35958   0.502E-02    0.242E-01
RMM:  12    -0.232600923365E+04   -0.30382E-04   -0.10251E-03 32477   0.472E-02    0.239E-01
RMM:  13    -0.232600897440E+04    0.25925E-03   -0.29965E-04 27699   0.380E-02    0.117E-01
RMM:  14    -0.232600895791E+04    0.16493E-04   -0.26326E-04 31884   0.226E-02    0.988E-02
RMM:  15    -0.232600895858E+04   -0.67288E-06   -0.18399E-04 29353   0.225E-02    0.951E-02
RMM:  16    -0.232600892216E+04    0.36425E-04   -0.80665E-05 25004   0.196E-02    0.522E-02
RMM:  17    -0.232600891191E+04    0.10240E-04   -0.31448E-05 18661   0.108E-02    0.324E-02
RMM:  18    -0.232600891452E+04   -0.26088E-05   -0.23919E-05 17333   0.930E-03
   8 F= -.23260089E+04 E0= -.23232405E+04  d E =0.786364E+01
       N       E                     dE             d eps       ncg     rms          rms(c)
DAV:   1    -0.232600936977E+04   -0.45785E-03   -0.17025E-01 28890   0.434E-01    0.110E-01
RMM:   2    -0.232604884509E+04   -0.39475E-01   -0.12501E-02 31000   0.188E-01    0.268E+00
RMM:   3    -0.232603759164E+04    0.11253E-01   -0.61729E-03 35664   0.104E-01    0.223E+00
RMM:   4    -0.232603180730E+04    0.57843E-02   -0.22975E-03 28015   0.977E-02    0.202E+00
RMM:   5    -0.232601628184E+04    0.15525E-01   -0.19723E-03 29422   0.787E-02    0.108E+00
RMM:   6    -0.232601103447E+04    0.52474E-02   -0.15471E-03 28299   0.752E-02    0.536E-01
RMM:   7    -0.232601277500E+04   -0.17405E-02   -0.42238E-03 31785   0.972E-02    0.784E-01
RMM:   8    -0.232601242074E+04    0.35426E-03   -0.27875E-03 30673   0.872E-02    0.688E-01
RMM:   9    -0.232601019437E+04    0.22264E-02   -0.10196E-03 27660   0.657E-02    0.358E-01
RMM:  10    -0.232600959513E+04    0.59924E-03   -0.61067E-04 29089   0.439E-02    0.160E-01
RMM:  11    -0.232600956330E+04    0.31826E-04   -0.61936E-04 36731   0.271E-02    0.135E-01
RMM:  12    -0.232600957047E+04   -0.71635E-05   -0.31321E-04 32431   0.254E-02    0.132E-01
RMM:  13    -0.232600948773E+04    0.82735E-04   -0.93608E-05 25312   0.205E-02    0.571E-02
RMM:  14    -0.232600948606E+04    0.16758E-05   -0.66508E-05 22489   0.122E-02
   9 F= -.23260095E+04 E0= -.23232411E+04  d E =0.786307E+01
       N       E                     dE             d eps       ncg     rms          rms(c)
DAV:   1    -0.232600965185E+04   -0.16412E-03   -0.42464E-02 29180   0.218E-01    0.748E-02
RMM:   2    -0.232602041310E+04   -0.10761E-01   -0.53651E-03 30060   0.127E-01    0.140E+00
RMM:   3    -0.232602259122E+04   -0.21781E-02   -0.20907E-03 30079   0.785E-02    0.152E+00
RMM:   4    -0.232601300972E+04    0.95815E-02   -0.90954E-04 27557   0.657E-02    0.793E-01
RMM:   5    -0.232601505388E+04   -0.20442E-02   -0.66576E-04 30667   0.399E-02    0.988E-01
RMM:   6    -0.232601031884E+04    0.47350E-02   -0.46398E-04 30338   0.341E-02    0.303E-01
RMM:   7    -0.232601050610E+04   -0.18726E-03   -0.76793E-04 27906   0.540E-02    0.389E-01
RMM:   8    -0.232601060597E+04   -0.99869E-04   -0.11969E-03 32901   0.491E-02    0.389E-01
RMM:   9    -0.232601004167E+04    0.56430E-03   -0.40924E-04 27522   0.411E-02    0.253E-01
RMM:  10    -0.232600973040E+04    0.31127E-03   -0.18579E-04 27219   0.308E-02    0.107E-01
RMM:  11    -0.232600968533E+04    0.45072E-04   -0.13889E-04 27110   0.172E-02    0.631E-02
RMM:  12    -0.232600969761E+04   -0.12282E-04   -0.11550E-04 26602   0.146E-02    0.747E-02
RMM:  13    -0.232600967619E+04    0.21423E-04   -0.54970E-05 21443   0.142E-02    0.367E-02
RMM:  14    -0.232600967305E+04    0.31419E-05   -0.22525E-05 15700   0.923E-03
  10 F= -.23260097E+04 E0= -.23232412E+04  d E =0.786288E+01
       N       E                     dE             d eps       ncg     rms          rms(c)
DAV:   1    -0.232600974588E+04   -0.69692E-04   -0.10647E-02 29200   0.109E-01    0.434E-02
RMM:   2    -0.232602306456E+04   -0.13319E-01   -0.19327E-03 29578   0.776E-02    0.155E+00
RMM:   3    -0.232601341202E+04    0.96525E-02   -0.10978E-03 35883   0.405E-02    0.787E-01
RMM:   4    -0.232601096546E+04    0.24466E-02   -0.59659E-04 27581   0.529E-02    0.473E-01
RMM:   5    -0.232601022501E+04    0.74045E-03   -0.46397E-04 28371   0.392E-02    0.298E-01
RMM:   6    -0.232601172706E+04   -0.15021E-02   -0.66785E-04 37782   0.255E-02    0.608E-01
RMM:   7    -0.232601022508E+04    0.15020E-02   -0.51490E-04 29104   0.397E-02    0.273E-01
RMM:   8    -0.232601035029E+04   -0.12521E-03   -0.49199E-04 29758   0.376E-02    0.313E-01
RMM:   9    -0.232600993503E+04    0.41527E-03   -0.19048E-04 27153   0.308E-02    0.180E-01
RMM:  10    -0.232600977068E+04    0.16434E-03   -0.71645E-05 23579   0.196E-02    0.631E-02
RMM:  11    -0.232600975860E+04    0.12085E-04   -0.46401E-05 20425   0.128E-02    0.502E-02
RMM:  12    -0.232600976268E+04   -0.40858E-05   -0.48537E-05 20541   0.123E-02
  11 F= -.23260098E+04 E0= -.23232414E+04  d E =0.786279E+01
       N       E                     dE             d eps       ncg     rms          rms(c)
DAV:   1    -0.232601645531E+04   -0.66967E-02   -0.12985E+00 27600   0.120E+00    0.206E-01
RMM:   2    -0.232619867598E+04   -0.18222E+00   -0.37187E-02 29520   0.360E-01    0.578E+00
RMM:   3    -0.232603649021E+04    0.16219E+00   -0.15634E-02 35132   0.180E-01    0.160E+00
RMM:   4    -0.232609578050E+04   -0.59290E-01   -0.63835E-03 27748   0.177E-01    0.378E+00
RMM:   5    -0.232602490772E+04    0.70873E-01   -0.44507E-03 32367   0.107E-01    0.966E-01
RMM:   6    -0.232603034420E+04   -0.54365E-02   -0.74422E-03 28652   0.156E-01    0.144E+00
RMM:   7    -0.232602499958E+04    0.53446E-02   -0.92024E-03 29015   0.174E-01    0.113E+00
RMM:   8    -0.232603133373E+04   -0.63342E-02   -0.49624E-03 28877   0.126E-01    0.160E+00
RMM:   9    -0.232601970363E+04    0.11630E-01   -0.21718E-03 27637   0.104E-01    0.534E-01
RMM:  10    -0.232601816404E+04    0.15396E-02   -0.12859E-03 28093   0.726E-02    0.281E-01
RMM:  11    -0.232601849970E+04   -0.33566E-03   -0.19928E-03 33709   0.576E-02    0.368E-01
RMM:  12    -0.232601848131E+04    0.18394E-04   -0.10596E-03 31514   0.508E-02    0.346E-01
RMM:  13    -0.232601785719E+04    0.62412E-03   -0.37681E-04 27584   0.448E-02    0.121E-01
RMM:  14    -0.232601781297E+04    0.44221E-04   -0.25811E-04 30358   0.258E-02    0.910E-02
RMM:  15    -0.232601784003E+04   -0.27065E-04   -0.29649E-04 32001   0.254E-02    0.111E-01
RMM:  16    -0.232601778864E+04    0.51394E-04   -0.12809E-04 26846   0.205E-02    0.506E-02
RMM:  17    -0.232601778801E+04    0.62585E-06   -0.82441E-05 24265   0.106E-02
  12 F= -.23260178E+04 E0= -.23232490E+04  d E =-.802533E-02
       N       E                     dE             d eps       ncg     rms          rms(c)
DAV:   1    -0.232601750708E+04    0.28156E-03   -0.11688E+01 27600   0.359E+00    0.632E-01
RMM:   2    -0.232792160107E+04   -0.19041E+01   -0.35701E-01 29356   0.112E+00    0.187E+01
RMM:   3    -0.232619572394E+04    0.17259E+01   -0.14846E-01 34460   0.573E-01    0.459E+00
RMM:   4    -0.232621112915E+04   -0.15405E-01   -0.64451E-02 27611   0.609E-01    0.590E+00
RMM:   5    -0.232619865828E+04    0.12471E-01   -0.50867E-02 39844   0.224E-01    0.550E+00
RMM:   6    -0.232613984264E+04    0.58816E-01   -0.43693E-02 28444   0.379E-01    0.437E+00
RMM:   7    -0.232616339739E+04   -0.23555E-01   -0.87625E-02 29995   0.485E-01    0.478E+00
RMM:   8    -0.232609242275E+04    0.70975E-01   -0.66942E-02 31049   0.419E-01    0.328E+00
RMM:   9    -0.232604527965E+04    0.47143E-01   -0.27185E-02 27604   0.391E-01    0.165E+00
RMM:  10    -0.232603354559E+04    0.11734E-01   -0.13128E-02 28134   0.230E-01    0.936E-01
RMM:  11    -0.232603569897E+04   -0.21534E-02   -0.17714E-02 34363   0.164E-01    0.108E+00
RMM:  12    -0.232603657019E+04   -0.87122E-03   -0.11293E-02 32205   0.158E-01    0.109E+00
RMM:  13    -0.232603035449E+04    0.62157E-02   -0.37212E-03 27612   0.139E-01    0.370E-01
RMM:  14    -0.232602994295E+04    0.41153E-03   -0.26033E-03 31857   0.770E-02    0.285E-01
RMM:  15    -0.232603006248E+04   -0.11953E-03   -0.21085E-03 31484   0.722E-02    0.327E-01
RMM:  16    -0.232602962006E+04    0.44242E-03   -0.12699E-03 29901   0.610E-02    0.142E-01
RMM:  17    -0.232602965605E+04   -0.35983E-04   -0.11545E-03 39186   0.322E-02    0.133E-01
RMM:  18    -0.232602965390E+04    0.21470E-05   -0.29881E-04 30457   0.292E-02    0.134E-01
RMM:  19    -0.232602958159E+04    0.72306E-04   -0.12481E-04 27608   0.237E-02    0.741E-02
RMM:  20    -0.232602957357E+04    0.80273E-05   -0.93888E-05 24045   0.124E-02
  13 F= -.23260296E+04 E0= -.23232597E+04  d E =-.198109E-01
       N       E                     dE             d eps       ncg     rms          rms(c)
DAV:   1    -0.232602953384E+04    0.47749E-04   -0.18804E-01 27920   0.456E-01    0.957E-02
RMM:   2    -0.232606879984E+04   -0.39266E-01   -0.87339E-03 30027   0.168E-01    0.271E+00
RMM:   3    -0.232603435370E+04    0.34446E-01   -0.43543E-03 36453   0.851E-02    0.806E-01
RMM:   4    -0.232603088547E+04    0.34682E-02   -0.19967E-03 27602   0.108E-01    0.467E-01
RMM:   5    -0.232603638716E+04   -0.55017E-02   -0.15086E-03 38559   0.425E-02    0.113E+00
RMM:   6    -0.232603376621E+04    0.26209E-02   -0.13482E-03 38578   0.404E-02    0.833E-01
RMM:   7    -0.232603114798E+04    0.26182E-02   -0.12704E-03 27998   0.676E-02    0.492E-01
RMM:   8    -0.232603178908E+04   -0.64111E-03   -0.16137E-03 31179   0.616E-02    0.597E-01
RMM:   9    -0.232603032395E+04    0.14651E-02   -0.64702E-04 27588   0.564E-02    0.302E-01
RMM:  10    -0.232602996457E+04    0.35938E-03   -0.33502E-04 28222   0.371E-02    0.215E-01
RMM:  11    -0.232602995976E+04    0.48038E-05   -0.41225E-04 33635   0.243E-02    0.201E-01
RMM:  12    -0.232602989913E+04    0.60631E-04   -0.22943E-04 29859   0.248E-02    0.165E-01
RMM:  13    -0.232602976764E+04    0.13150E-03   -0.86763E-05 24921   0.209E-02    0.716E-02
RMM:  14    -0.232602974669E+04    0.20948E-04   -0.36422E-05 19138   0.129E-02    0.436E-02
RMM:  15    -0.232602974871E+04   -0.20204E-05   -0.26227E-05 17645   0.980E-03
  14 F= -.23260297E+04 E0= -.23232597E+04  d E =-.199860E-01
