unknown system                          
            1
     9.726678    0.000000    0.000000
     0.000000    8.423550    0.000000
     0.000000    0.000000   45.000000
   Fe   Mn
 273  15
Direct configuration=     1
   0.81237835  0.20565512  0.47849473
   0.68766786  0.12718011  0.78783591
   0.31310068  0.20510118  0.34524656
   0.43749718  0.29450164  0.87474551
   0.81227258  0.86987974  0.30066380
   0.81274574  0.04275876  0.74359890
   0.18753179  0.78541583  0.25629552
   0.31200484  0.53313442  0.12519696
   0.56299188  0.03518967  0.25639718
   0.18762426  0.28506621  0.25637913
   0.56226425  0.03298767  0.12497661
   0.68736047  0.45038595  0.21202459
   0.56240182  0.20602446  0.56578376
   0.56173308  0.70035379  0.21233241
   0.18753899  0.79013306  0.61063043
   0.06256810  0.87110128  0.43458337
   0.93752115  0.95914940  0.83269198
   0.43774406  0.29251470  0.74355187
   0.93770591  0.12713339  0.78777139
   0.31299839  0.70680141  0.56577928
   0.68772957  0.45583399  0.47852320
   0.31220392  0.36928275  0.30064274
   0.93730193  0.62259669  0.52145681
   0.06279402  0.04355650  0.87503151
   0.06252741  0.87285558  0.65486816
   0.43791653  0.45490527  0.34521890
   0.31259890  0.37335192  0.65487710
   0.68607070  0.28426011  0.12524568
   0.81222807  0.36993462  0.30069679
   0.93739430  0.45659342  0.56555882
   0.93721434  0.45953911  0.83275995
   0.31266101  0.37169657  0.43452785
   0.93739336  0.62326511  0.65479190
   0.68750341  0.28759706  0.38936616
   0.06222340  0.87692697  0.78784667
   0.06266447  0.04244153  0.74356835
   0.68757858  0.12176192  0.43433306
   0.81245635  0.37105082  0.43463006
   0.43767922  0.78426257  0.12492714
   0.56259110  0.70641807  0.56562246
   0.43745246  0.78853728  0.38933962
   0.43795897  0.78502212  0.25634135
   0.68749728  0.79371746  0.87478647
   0.56250191  0.70863721  0.69946540
   0.81222368  0.70892130  0.83267024
   0.43751979  0.11988711  0.30061274
   0.31223409  0.04246787  0.74356329
   0.18736696  0.45091059  0.21226032
   0.68745394  0.95968467  0.83278096
   0.93759459  0.95660911  0.56562468
   0.68766531  0.62327010  0.65473926
   0.93752539  0.79218938  0.74361654
   0.31274771  0.87720511  0.78778443
   0.56301333  0.37206424  0.52146784
   0.06259815  0.54231964  0.74356842
   0.56246044  0.20548982  0.47853645
   0.56208384  0.36990189  0.30061131
   0.68768289  0.45904490  0.83261828
   0.93762123  0.45809035  0.69939732
   0.43718146  0.45060696  0.21206946
   0.56256553  0.53816944  0.38940471
   0.06248405  0.03395420  0.12514476
   0.81250128  0.37307971  0.65483851
   0.81256056  0.70575429  0.47851091
   0.31234751  0.54266308  0.74363506
   0.68747106  0.79261602  0.74357479
   0.31268597  0.53814329  0.38943070
   0.31198849  0.36892966  0.16723756
   0.68755958  0.95801565  0.69932937
   0.93740379  0.95529759  0.47853971
   0.93745033  0.61990339  0.30055663
   0.18744878  0.45589892  0.47851421
   0.68793332  0.78518343  0.25636992
   0.68791017  0.45493603  0.34520868
   0.81219227  0.70841326  0.69941355
   0.81287264  0.54248292  0.74359351
   0.18740560  0.45704011  0.56573488
   0.43753484  0.12271095  0.52156481
   0.68751233  0.62091002  0.43423648
   0.43737404  0.95795897  0.69933290
   0.31309861  0.53494212  0.25629777
   0.31269929  0.70803530  0.69941021
   0.31277191  0.70966392  0.83269554
   0.43736353  0.28834574  0.38946271
   0.43744473  0.78983079  0.61054258
   0.06256183  0.04023912  0.61062786
   0.93700160  0.61791991  0.16716381
   0.06248656  0.87252464  0.52158954
   0.93747137  0.95806228  0.69941070
   0.56216503  0.20091197  0.21230014
   0.68730399  0.78989006  0.61058825
   0.93802162  0.45448213  0.34523604
   0.06334546  0.53261398  0.12504456
   0.06230550  0.70787510  0.69937945
   0.31266840  0.20788159  0.69942555
   0.81257575  0.03759400  0.38939476
   0.18782535  0.12301054  0.65470662
   0.56144807  0.53273877  0.12525667
   0.93724725  0.45559859  0.47852949
   0.43793426  0.28533633  0.25643329
   0.81305372  0.36941779  0.16713108
   0.68732142  0.78782237  0.38940049
   0.31208320  0.86975928  0.30066859
   0.93768639  0.12134573  0.43445261
   0.68702438  0.78461202  0.12478391
   0.43783302  0.12215280  0.43425372
   0.18760045  0.29234120  0.74370246
   0.43784175  0.12319924  0.65475825
   0.43744037  0.95060620  0.21223950
   0.56264434  0.53943147  0.61077730
   0.31253677  0.70096036  0.21224778
   0.93786713  0.78554251  0.25640111
   0.06236853  0.37114041  0.43451438
   0.06224615  0.36917917  0.30058874
   0.81173587  0.04367512  0.87482770
   0.56248927  0.70471330  0.47852946
   0.68784985  0.95637544  0.56560449
   0.56248182  0.54268293  0.74362062
   0.81198376  0.70062317  0.21223715
   0.43771150  0.79278412  0.74364212
   0.93783869  0.95457863  0.34521581
   0.68742780  0.29407623  0.87482853
   0.93741278  0.28752927  0.38943291
   0.43750569  0.29013000  0.61064003
   0.93661413  0.45094928  0.21218218
   0.56297320  0.36795440  0.16724959
   0.56242101  0.37734118  0.78781402
   0.68741333  0.62243738  0.52154324
   0.31255483  0.37745059  0.78799515
   0.31272600  0.20565650  0.47842634
   0.43749752  0.95910683  0.83269217
   0.93671968  0.95043862  0.21206345
   0.31232828  0.87215402  0.52138253
   0.93743692  0.29259236  0.74360445
   0.18744772  0.62716585  0.78780380
   0.68764220  0.61804779  0.16721463
   0.18799057  0.62124999  0.43436699
   0.31133077  0.37163006  0.52143197
   0.18762342  0.29041877  0.61068015
   0.93724840  0.29433429  0.87472874
   0.56275626  0.53500342  0.25644081
   0.81250521  0.87730301  0.78786000
   0.93770737  0.62100390  0.43444183
   0.18687661  0.78499493  0.12522863
   0.68698155  0.11998224  0.30063110
   0.93684476  0.11966621  0.30054370
   0.56284904  0.70465900  0.34515885
   0.31287473  0.20653058  0.56569934
   0.06255409  0.70636047  0.56556872
   0.31222365  0.03298850  0.12521321
   0.56265723  0.70856302  0.83274303
   0.06205037  0.54357269  0.87481173
   0.68786474  0.45679350  0.56571372
   0.93795743  0.28588381  0.25643894
   0.18746952  0.62239890  0.52154853
   0.31287835  0.54345927  0.87478128
   0.43779985  0.95443350  0.34523023
   0.68775217  0.28599774  0.25648760
   0.31313044  0.70498068  0.34520208
   0.18736348  0.12766258  0.78771025
   0.18733461  0.95771542  0.69932637
   0.18739343  0.61921280  0.30062724
   0.31232745  0.70555922  0.47847898
   0.56246551  0.03973241  0.61049324
   0.93704620  0.78467253  0.12512989
   0.81293585  0.87115370  0.43432569
   0.43824098  0.61930828  0.16731661
   0.43698620  0.61945916  0.30054399
   0.18810742  0.61805971  0.16730401
   0.18692437  0.11926970  0.16717690
   0.43737439  0.79364915  0.87478826
   0.18636017  0.28474789  0.12475777
   0.18743501  0.45800731  0.69945354
   0.56315948  0.37168780  0.43453982
   0.56227621  0.03810704  0.38933594
   0.06206372  0.20057799  0.21230655
   0.81261177  0.87338331  0.65474766
   0.81255803  0.20461126  0.34532298
   0.68858719  0.95605033  0.47862490
   0.31211833  0.04357224  0.87504131
   0.18761511  0.12281028  0.52159287
   0.56255265  0.37347118  0.65470915
   0.06236245  0.37732960  0.78792273
   0.31224379  0.04038917  0.61058228
   0.18722364  0.28794396  0.38945827
   0.56256925  0.20455557  0.34524282
   0.68794025  0.11724635  0.16731314
   0.56277168  0.87177068  0.43467593
   0.81242737  0.37750846  0.78796460
   0.43755531  0.45653508  0.56534523
   0.06269387  0.37222233  0.52154030
   0.81300424  0.37217092  0.52156721
   0.43711819  0.12704570  0.78777933
   0.06297556  0.70414823  0.34521336
   0.31268813  0.54002257  0.61061933
   0.31182147  0.20104630  0.21216737
   0.93724858  0.28998137  0.61060904
   0.43745583  0.62703843  0.78779849
   0.18762359  0.29348376  0.87475157
   0.93748720  0.62710686  0.78783892
   0.43770861  0.45904683  0.83268751
   0.93835803  0.11881228  0.16728488
   0.56252686  0.20934707  0.83273008
   0.68701910  0.61975731  0.30052617
   0.81184195  0.03298250  0.12518718
   0.68751325  0.12320326  0.65476780
   0.56250626  0.54418908  0.87486614
   0.06267754  0.03782466  0.38943027
   0.93761847  0.12252879  0.52155923
   0.06214342  0.86993249  0.30064423
   0.43714929  0.45857836  0.69941974
   0.06286135  0.53506945  0.25632842
   0.18786922  0.95489925  0.34521541
   0.18749495  0.45977067  0.83266221
   0.18779605  0.45461411  0.34512322
   0.18714356  0.95533565  0.47848740
   0.18750868  0.78797760  0.38940607
   0.06252329  0.37292194  0.65476360
   0.06274922  0.70569508  0.47850331
   0.68726903  0.95033179  0.21219419
   0.43755321  0.28420012  0.12520877
   0.31278796  0.86903413  0.16714705
   0.43767163  0.11768597  0.16729846
   0.81244241  0.03588758  0.25619486
   0.56255836  0.87374369  0.65476805
   0.68722639  0.12237312  0.52159305
   0.56318305  0.04377130  0.87479733
   0.43770698  0.62325610  0.52153478
   0.81229627  0.53766872  0.38939390
   0.56235084  0.20804691  0.69943603
   0.43753123  0.62163226  0.43423963
   0.81208153  0.20800814  0.69944272
   0.18755941  0.12151779  0.43441052
   0.68744256  0.28991271  0.61061695
   0.81229262  0.20634102  0.56563465
   0.43722023  0.95646711  0.56551697
   0.06253675  0.20579050  0.47865159
   0.31183708  0.20919437  0.83278934
   0.68764911  0.45866033  0.69939071
   0.68736600  0.29268022  0.74354660
   0.06221439  0.53775519  0.38927911
   0.93811143  0.28386566  0.12486922
   0.81201839  0.70641127  0.56566983
   0.93703234  0.12310081  0.65469578
   0.68794873  0.95424078  0.34520558
   0.56223118  0.86976868  0.30058482
   0.18757422  0.95703459  0.56552768
   0.31218931  0.03829228  0.38943728
   0.81160283  0.86766822  0.16694011
   0.18754095  0.79215049  0.74353207
   0.06237453  0.70978750  0.83266841
   0.81243975  0.20029469  0.21243658
   0.06255766  0.54024594  0.61048562
   0.68746255  0.62697298  0.78781796
   0.43706224  0.95564197  0.47858552
   0.81266920  0.20962912  0.83282761
   0.93759591  0.79007712  0.61065163
   0.18746363  0.79430878  0.87492467
   0.81219418  0.53968486  0.61063378
   0.81273048  0.87195186  0.52151888
   0.18759870  0.11943137  0.30060576
   0.81237704  0.54387183  0.87487894
   0.93749299  0.79370570  0.87479813
   0.06308343  0.86840239  0.16725343
   0.43773476  0.62345224  0.65479428
   0.81267191  0.04002437  0.61059764
   0.06302684  0.20907947  0.83269009
   0.31247470  0.87303485  0.65472096
   0.81265203  0.53551455  0.25634005
   0.31319968  0.03486201  0.25634167
   0.56235862  0.87729016  0.78783686
   0.06237828  0.70126101  0.21241409
   0.93737867  0.78738123  0.38943924
   0.06327453  0.20481372  0.34546513
   0.06239745  0.20819642  0.69953126
   0.18755912  0.95934786  0.83338311
   0.56250298  0.86861179  0.16660248
   0.81274282  0.70487157  0.34530002
   0.43766611  0.45562931  0.47857776
   0.06267131  0.20663605  0.56570760
   0.18757017  0.95058518  0.21214321
   0.31230098  0.87149656  0.43434633
   0.06261695  0.03570107  0.25632803
   0.56263354  0.04278516  0.74365447
   0.56257024  0.87210209  0.52148614
   0.18762816  0.62287900  0.65462801
   0.06210422  0.36874106  0.16652603
   0.81230145  0.53323894  0.12546510
Direct configuration=     2
   0.81305058  0.20503161  0.47864615
   0.68823526  0.12744901  0.78796503
   0.31289835  0.20496268  0.34482831
   0.43724898  0.29515754  0.87471760
   0.81288624  0.87000627  0.30013371
   0.81387090  0.04246646  0.74346863
   0.18772157  0.78594526  0.25613736
   0.31274631  0.53287500  0.12534405
   0.56274578  0.03538519  0.25605219
   0.18728747  0.28486469  0.25613479
   0.56233495  0.03345970  0.12509754
   0.68781453  0.45019017  0.21200854
   0.56268176  0.20579921  0.56576745
   0.56190307  0.70124731  0.21225393
   0.18719282  0.78999063  0.61079505
   0.06164261  0.87170467  0.43512654
   0.93737120  0.95945099  0.83258363
   0.43697841  0.29304451  0.74341178
   0.93828123  0.12733338  0.78769333
   0.31304623  0.70669400  0.56569148
   0.68958768  0.45585403  0.47885866
   0.31183634  0.36896601  0.30011574
   0.93728088  0.62264025  0.52129594
   0.06261313  0.04432948  0.87498707
   0.06225847  0.87305012  0.65498032
   0.43731733  0.45480858  0.34469623
   0.31246778  0.37344693  0.65504162
   0.68561427  0.28411455  0.12526704
   0.81238442  0.36981525  0.30013508
   0.93712927  0.45700297  0.56563166
   0.93741998  0.45950141  0.83273833
   0.31047591  0.36994034  0.43480536
   0.93719252  0.62332074  0.65487300
   0.68767779  0.28708878  0.38948367
   0.06210952  0.87691644  0.78771183
   0.06255518  0.04260973  0.74346410
   0.68832099  0.12153536  0.43483790
   0.81370534  0.37046560  0.43510744
   0.43855849  0.78474922  0.12505455
   0.56287627  0.70635443  0.56566581
   0.43740513  0.78921482  0.38925671
   0.43699847  0.78555770  0.25616858
   0.68747706  0.79355366  0.87472801
   0.56251224  0.70859722  0.69929409
   0.81199901  0.70877874  0.83258484
   0.43691889  0.11938146  0.30011900
   0.31119990  0.04249599  0.74344782
   0.18688543  0.45065138  0.21231831
   0.68738488  0.95982474  0.83279724
   0.93716735  0.95600040  0.56561031
   0.68785546  0.62356209  0.65471823
   0.93785199  0.79203563  0.74354616
   0.31217978  0.87695712  0.78776281
   0.56329495  0.37157591  0.52169659
   0.06214843  0.54227731  0.74352791
   0.56319493  0.20361869  0.47882196
   0.56189351  0.36957771  0.30009193
   0.68741573  0.45901964  0.83257010
   0.93791250  0.45763583  0.69936031
   0.43716300  0.45039174  0.21204704
   0.56303149  0.53749970  0.38940173
   0.06236802  0.03455062  0.12556640
   0.81272289  0.37301073  0.65486687
   0.81319302  0.70611505  0.47862889
   0.31199498  0.54246463  0.74355994
   0.68834070  0.79203443  0.74349713
   0.31177355  0.53794158  0.38938089
   0.31178085  0.36833836  0.16739662
   0.68799823  0.95811099  0.69912736
   0.93760994  0.95546475  0.47856624
   0.93778766  0.62010072  0.30004926
   0.18544540  0.45551761  0.47866653
   0.68804566  0.78556549  0.25604888
   0.68786065  0.45424203  0.34482814
   0.81272555  0.70852925  0.69933583
   0.81364201  0.54282448  0.74357189
   0.18746398  0.45744556  0.56572461
   0.43733136  0.12316138  0.52146544
   0.68903082  0.62165406  0.43482182
   0.43712613  0.95820363  0.69917812
   0.31237256  0.53517406  0.25611410
   0.31241574  0.70779862  0.69929272
   0.31297978  0.70919624  0.83267816
   0.43751730  0.28764194  0.38953657
   0.43797029  0.78985406  0.61069491
   0.06235128  0.04030881  0.61090144
   0.93703467  0.61779426  0.16750709
   0.06249601  0.87262783  0.52141306
   0.93771232  0.95835778  0.69933107
   0.56238414  0.20045740  0.21226804
   0.68740247  0.78981860  0.61073209
   0.93868023  0.45439939  0.34492565
   0.06309535  0.53219083  0.12528046
   0.06209121  0.70789806  0.69934524
   0.31210426  0.20810818  0.69933171
   0.81289606  0.03797776  0.38964034
   0.18728068  0.12320322  0.65489903
   0.56172490  0.53209309  0.12535359
   0.93781498  0.45561791  0.47858282
   0.43751464  0.28481462  0.25621821
   0.81321725  0.36896151  0.16724401
   0.68779693  0.78853638  0.38962068
   0.31164772  0.86986243  0.30017824
   0.93849847  0.12123750  0.43505746
   0.68621144  0.78497526  0.12499324
   0.43752262  0.12232253  0.43476203
   0.18682359  0.29209577  0.74360139
   0.43787610  0.12318782  0.65486142
   0.43738018  0.95097432  0.21219487
   0.56304283  0.53962350  0.61093323
   0.31214316  0.70165025  0.21228839
   0.93838001  0.78593333  0.25610697
   0.06228160  0.37061249  0.43502872
   0.06278472  0.36880438  0.30003225
   0.81169935  0.04411361  0.87480269
   0.56378416  0.70622518  0.47884273
   0.68790123  0.95628135  0.56567328
   0.56248890  0.54276179  0.74361081
   0.81230742  0.70101985  0.21217173
   0.43716867  0.79241749  0.74358352
   0.93845813  0.95433326  0.34481600
   0.68741237  0.29413874  0.87479723
   0.93783177  0.28749995  0.38971162
   0.43778346  0.29010460  0.61074868
   0.93679092  0.45088665  0.21220245
   0.56290193  0.36740344  0.16729408
   0.56232185  0.37781584  0.78793769
   0.68769647  0.62228544  0.52148581
   0.31200936  0.37756348  0.78805553
   0.31152371  0.20399569  0.47863158
   0.43764468  0.95922306  0.83266547
   0.93698663  0.95073964  0.21205882
   0.31204099  0.87243435  0.52131029
   0.93828209  0.29263300  0.74350065
   0.18711385  0.62675778  0.78776230
   0.68763764  0.61851611  0.16740176
   0.18606478  0.62085744  0.43492407
   0.31107174  0.37140189  0.52157441
   0.18732144  0.29056090  0.61089998
   0.93755247  0.29480416  0.87478152
   0.56272898  0.53480197  0.25623539
   0.81318259  0.87693442  0.78778844
   0.93839019  0.62137277  0.43500954
   0.18820334  0.78436017  0.12551072
   0.68703080  0.12010384  0.30006385
   0.93748951  0.11940199  0.29997751
   0.56209540  0.70480325  0.34470327
   0.31334618  0.20658654  0.56561091
   0.06227650  0.70626057  0.56557326
   0.31430334  0.03318673  0.12538810
   0.56264060  0.70823033  0.83269267
   0.06259721  0.54269271  0.87490690
   0.68786095  0.45679354  0.56573922
   0.93846982  0.28555488  0.25613986
   0.18758947  0.62236615  0.52145012
   0.31240760  0.54250876  0.87482044
   0.43695665  0.95418955  0.34471846
   0.68787755  0.28554939  0.25615660
   0.31248563  0.70556761  0.34464611
   0.18681445  0.12786611  0.78764358
   0.18693566  0.95828756  0.69926557
   0.18761725  0.61983449  0.30019021
   0.31103382  0.70674075  0.47886659
   0.56279048  0.03955994  0.61059217
   0.93581603  0.78394295  0.12539410
   0.81399827  0.87145875  0.43493917
   0.43827428  0.61992413  0.16747043
   0.43631369  0.62003731  0.30007854
   0.18793055  0.61798844  0.16765443
   0.18730076  0.11934471  0.16778370
   0.43730598  0.79298534  0.87468851
   0.18728287  0.28574765  0.12500220
   0.18726130  0.45746420  0.69938740
   0.56408750  0.37005476  0.43475967
   0.56238154  0.03865410  0.38944815
   0.06228000  0.20015460  0.21231042
   0.81263615  0.87338833  0.65482514
   0.81262433  0.20462184  0.34503397
   0.68920101  0.95612138  0.47874766
   0.31217953  0.04436923  0.87494719
   0.18794524  0.12268446  0.52131174
   0.56278814  0.37380383  0.65477594
   0.06242611  0.37728751  0.78785780
   0.31230710  0.04048848  0.61074887
   0.18654857  0.28777185  0.38975822
   0.56250842  0.20436893  0.34492850
   0.68776978  0.11684542  0.16746940
   0.56364674  0.87282742  0.43521664
   0.81301130  0.37788572  0.78796012
   0.43774727  0.45659661  0.56521819
   0.06279153  0.37235684  0.52128394
   0.81288452  0.37211038  0.52143583
   0.43650857  0.12743829  0.78789726
   0.06358209  0.70418745  0.34488978
   0.31260886  0.53994934  0.61077034
   0.31145774  0.20039090  0.21220223
   0.93704511  0.29025613  0.61084474
   0.43743113  0.62652278  0.78784716
   0.18759075  0.29461410  0.87481363
   0.93759407  0.62679210  0.78770066
   0.43764418  0.45908847  0.83272062
   0.93786085  0.11907828  0.16780036
   0.56239656  0.20976581  0.83277308
   0.68723003  0.61977212  0.30002942
   0.80991553  0.03371058  0.12536485
   0.68789187  0.12327320  0.65484616
   0.56209586  0.54350714  0.87478741
   0.06270961  0.03802215  0.38977083
   0.93744078  0.12227406  0.52127874
   0.06296444  0.87034501  0.30010564
   0.43675884  0.45833541  0.69927310
   0.06325632  0.53497110  0.25604627
   0.18817442  0.95403506  0.34465595
   0.18762409  0.45971312  0.83271021
   0.18762133  0.45492808  0.34472681
   0.18633570  0.95596399  0.47863381
   0.18663166  0.78800548  0.38937459
   0.06219151  0.37260022  0.65488915
   0.06212578  0.70585104  0.47857623
   0.68740774  0.95067337  0.21209062
   0.43856462  0.28391971  0.12525008
   0.31306229  0.86915333  0.16744375
   0.43779334  0.11739676  0.16748041
   0.81287172  0.03614922  0.25589466
   0.56299399  0.87369341  0.65477145
   0.68727384  0.12274509  0.52148476
   0.56335368  0.04429081  0.87470715
   0.43730845  0.62347210  0.52177142
   0.81327177  0.53728017  0.38960179
   0.56212785  0.20812442  0.69920834
   0.43736097  0.62245220  0.43452222
   0.81297736  0.20786346  0.69924513
   0.18634933  0.12203617  0.43495218
   0.68771298  0.28997708  0.61076444
   0.81180838  0.20623971  0.56564573
   0.43755463  0.95653658  0.56551512
   0.06238392  0.20543277  0.47862605
   0.31186039  0.20981666  0.83278905
   0.68794178  0.45878946  0.69921617
   0.68807740  0.29319736  0.74349480
   0.06183059  0.53748663  0.38945394
   0.93680251  0.28489593  0.12504382
   0.81194187  0.70647714  0.56572616
   0.93714950  0.12338622  0.65487066
   0.68769473  0.95461440  0.34484542
   0.56142759  0.86989421  0.30005989
   0.18761420  0.95651256  0.56544085
   0.31178549  0.03889709  0.38951579
   0.81120499  0.86801770  0.16728056
   0.18685807  0.79231917  0.74348177
   0.06238412  0.70939723  0.83261673
   0.81248629  0.20005658  0.21244094
   0.06229262  0.54003250  0.61061518
   0.68772425  0.62639253  0.78779433
   0.43705836  0.95616648  0.47885249
   0.81262155  0.20990683  0.83283183
   0.93733810  0.78987050  0.61079188
   0.18741150  0.79316965  0.87493461
   0.81216630  0.53962932  0.61079493
   0.81307110  0.87206938  0.52139102
   0.18765385  0.11882727  0.30001746
   0.81271899  0.54318470  0.87485655
   0.93762973  0.79324915  0.87478220
   0.06312153  0.86788821  0.16788182
   0.43788586  0.62336959  0.65488250
   0.81250706  0.03998912  0.61075785
   0.06316834  0.20964973  0.83263365
   0.31228983  0.87305405  0.65482336
   0.81288197  0.53534320  0.25602718
   0.31248137  0.03451415  0.25616366
   0.56238064  0.87652875  0.78792366
   0.06245863  0.70155510  0.21247266
   0.93789629  0.78725479  0.38973345
   0.06335618  0.20481434  0.34497913
   0.06230427  0.20812801  0.69947853
   0.18763608  0.95957963  0.83319013
   0.56242037  0.86912801  0.16675233
   0.81346887  0.70494961  0.34480475
   0.43728756  0.45497368  0.47906887
   0.06237247  0.20677166  0.56576611
   0.18729333  0.95109654  0.21221165
   0.31110170  0.87298753  0.43496832
   0.06303706  0.03576122  0.25603458
   0.56257880  0.04244477  0.74341396
   0.56250699  0.87245869  0.52143591
   0.18740819  0.62299014  0.65477164
   0.06206106  0.36806732  0.16690577
   0.81141486  0.53230433  0.12560393
Direct configuration=     3
   0.81292716  0.20514608  0.47861835
   0.68813108  0.12739964  0.78794133
   0.31293550  0.20498811  0.34490510
   0.43729455  0.29503712  0.87472272
   0.81277357  0.86998304  0.30023104
   0.81366433  0.04252012  0.74349255
   0.18768672  0.78584806  0.25616640
   0.31261018  0.53292263  0.12531705
   0.56279096  0.03534929  0.25611553
   0.18734930  0.28490169  0.25617965
   0.56232197  0.03337304  0.12507534
   0.68773117  0.45022612  0.21201149
   0.56263036  0.20584057  0.56577044
   0.56187186  0.70108326  0.21226833
   0.18725638  0.79001678  0.61076483
   0.06181252  0.87159389  0.43502681
   0.93739873  0.95939562  0.83260352
   0.43711898  0.29294724  0.74343750
   0.93817560  0.12729666  0.78770766
   0.31303744  0.70671372  0.56570760
   0.68924654  0.45585035  0.47879707
   0.31190382  0.36902417  0.30021250
   0.93728474  0.62263225  0.52132547
   0.06264634  0.04418757  0.87499523
   0.06230784  0.87301440  0.65495972
   0.43742734  0.45482633  0.34479219
   0.31249185  0.37342949  0.65501141
   0.68569807  0.28414128  0.12526312
   0.81235571  0.36983716  0.30023821
   0.93717793  0.45692778  0.56561829
   0.93738223  0.45950833  0.83274230
   0.31087708  0.37026278  0.43475441
   0.93722940  0.62331053  0.65485811
   0.68764577  0.28718210  0.38946209
   0.06213043  0.87691837  0.78773658
   0.06257525  0.04257885  0.74348324
   0.68818469  0.12157696  0.43474522
   0.81347604  0.37057305  0.43501979
   0.43839706  0.78465988  0.12503116
   0.56282391  0.70636611  0.56565785
   0.43741382  0.78909043  0.38927193
   0.43717481  0.78545937  0.25620030
   0.68748077  0.79358373  0.87473874
   0.56251035  0.70860456  0.69932554
   0.81204026  0.70880491  0.83260052
   0.43702921  0.11947430  0.30020965
   0.31138977  0.04249082  0.74346902
   0.18697383  0.45069897  0.21230766
   0.68739756  0.95979902  0.83279425
   0.93724579  0.95611216  0.56561295
   0.68782055  0.62350848  0.65472209
   0.93779203  0.79206386  0.74355908
   0.31228405  0.87700265  0.78776678
   0.56324325  0.37166557  0.52165459
   0.06223100  0.54228508  0.74353535
   0.56306008  0.20396222  0.47876954
   0.56192845  0.36963723  0.30018729
   0.68746478  0.45902428  0.83257894
   0.93785902  0.45771928  0.69936710
   0.43716639  0.45043126  0.21205115
   0.56294594  0.53762266  0.38940228
   0.06238932  0.03444112  0.12548899
   0.81268220  0.37302339  0.65486166
   0.81307691  0.70604882  0.47860723
   0.31205970  0.54250106  0.74357373
   0.68818104  0.79214121  0.74351139
   0.31194107  0.53797861  0.38939004
   0.31181897  0.36844692  0.16736742
   0.68791770  0.95809348  0.69916444
   0.93757209  0.95543406  0.47856137
   0.93772573  0.62006449  0.30014241
   0.18581321  0.45558762  0.47863857
   0.68802503  0.78549534  0.25610782
   0.68786974  0.45436945  0.34489800
   0.81262764  0.70850796  0.69935010
   0.81350076  0.54276177  0.74357586
   0.18745326  0.45737112  0.56572649
   0.43736872  0.12307869  0.52148369
   0.68875203  0.62151746  0.43471436
   0.43717164  0.95815871  0.69920654
   0.31250586  0.53513148  0.25614782
   0.31246780  0.70784208  0.69931429
   0.31294162  0.70928210  0.83268135
   0.43748906  0.28777116  0.38952301
   0.43787380  0.78984979  0.61066694
   0.06238993  0.04029602  0.61085121
   0.93702860  0.61781733  0.16744406
   0.06249428  0.87260889  0.52144546
   0.93766808  0.95830353  0.69934569
   0.56234392  0.20054086  0.21227393
   0.68738439  0.78983172  0.61070568
   0.93855931  0.45441458  0.34498264
   0.06314127  0.53226852  0.12523715
   0.06213056  0.70789384  0.69935152
   0.31220783  0.20806658  0.69934894
   0.81283725  0.03790730  0.38959525
   0.18738068  0.12316784  0.65486371
   0.56167408  0.53221163  0.12533580
   0.93771075  0.45561436  0.47857303
   0.43759168  0.28491041  0.25625770
   0.81318722  0.36904528  0.16722328
   0.68770963  0.78840529  0.38958025
   0.31172767  0.86984349  0.30026827
   0.93834938  0.12125737  0.43494641
   0.68636069  0.78490857  0.12495481
   0.43757961  0.12229137  0.43466871
   0.18696622  0.29214083  0.74361995
   0.43786980  0.12318992  0.65484248
   0.43739123  0.95090673  0.21220307
   0.56296967  0.53958824  0.61090460
   0.31221542  0.70152359  0.21228094
   0.93828585  0.78586158  0.25616098
   0.06229756  0.37070941  0.43493429
   0.06268584  0.36887319  0.30013442
   0.81170605  0.04403310  0.87480728
   0.56354642  0.70594760  0.47878521
   0.68789179  0.95629863  0.56566065
   0.56248760  0.54274731  0.74361261
   0.81224799  0.70094702  0.21218374
   0.43726833  0.79248480  0.74359428
   0.93834440  0.95437831  0.34488941
   0.68741520  0.29412726  0.87480298
   0.93775485  0.28750533  0.38966045
   0.43773247  0.29010926  0.61072873
   0.93675846  0.45089815  0.21219873
   0.56291501  0.36750459  0.16728591
   0.56234006  0.37772870  0.78791498
   0.68764448  0.62231334  0.52149635
   0.31210951  0.37754276  0.78804444
   0.31174445  0.20430060  0.47859390
   0.43761766  0.95920172  0.83267037
   0.93693762  0.95068438  0.21205967
   0.31209374  0.87238288  0.52132355
   0.93812692  0.29262554  0.74351970
   0.18717515  0.62683270  0.78776992
   0.68763848  0.61843013  0.16736740
   0.18641834  0.62092951  0.43482179
   0.31111930  0.37144378  0.52154826
   0.18737689  0.29053481  0.61085962
   0.93749664  0.29471790  0.87477183
   0.56273399  0.53483896  0.25627310
   0.81305822  0.87700209  0.78780158
   0.93826482  0.62130505  0.43490532
   0.18795976  0.78447671  0.12545893
   0.68702176  0.12008152  0.30016799
   0.93737113  0.11945050  0.30008146
   0.56223377  0.70477676  0.34478691
   0.31325963  0.20657627  0.56562714
   0.06232746  0.70627891  0.56557242
   0.31392152  0.03315034  0.12535599
   0.56264365  0.70829141  0.83270191
   0.06249681  0.54285427  0.87488942
   0.68786165  0.45679353  0.56573454
   0.93837575  0.28561527  0.25619477
   0.18756745  0.62237216  0.52146819
   0.31249402  0.54268327  0.87481325
   0.43711146  0.95423434  0.34481242
   0.68785453  0.28563171  0.25621737
   0.31260401  0.70545985  0.34474819
   0.18691525  0.12782874  0.78765582
   0.18700890  0.95818251  0.69927673
   0.18757616  0.61972035  0.30027045
   0.31127133  0.70652383  0.47879543
   0.56273082  0.03959160  0.61057401
   0.93604188  0.78407689  0.12534559
   0.81380322  0.87140274  0.43482654
   0.43826817  0.61981106  0.16744219
   0.43643716  0.61993117  0.30016399
   0.18796302  0.61800153  0.16759010
   0.18723166  0.11933094  0.16767229
   0.43731854  0.79310721  0.87470682
   0.18711347  0.28556410  0.12495733
   0.18729319  0.45756391  0.69939954
   0.56391712  0.37035458  0.43471931
   0.56236220  0.03855366  0.38942755
   0.06224029  0.20023234  0.21230971
   0.81263167  0.87338741  0.65481091
   0.81261216  0.20461990  0.34508703
   0.68908831  0.95610834  0.47872512
   0.31216830  0.04422291  0.87496447
   0.18788463  0.12270756  0.52136335
   0.56274491  0.37374276  0.65476368
   0.06241442  0.37729524  0.78786972
   0.31229547  0.04047024  0.61071829
   0.18667251  0.28780344  0.38970315
   0.56251959  0.20440320  0.34498620
   0.68780108  0.11691903  0.16744071
   0.56348609  0.87263341  0.43511737
   0.81290410  0.37781646  0.78796095
   0.43771203  0.45658531  0.56524151
   0.06277360  0.37233215  0.52133101
   0.81290650  0.37212150  0.52145995
   0.43662049  0.12736622  0.78787561
   0.06347073  0.70418025  0.34494918
   0.31262341  0.53996279  0.61074262
   0.31152452  0.20051123  0.21219583
   0.93708246  0.29020569  0.61080147
   0.43743567  0.62661745  0.78783822
   0.18759678  0.29440658  0.87480224
   0.93757445  0.62684989  0.78772605
   0.43765601  0.45908083  0.83271454
   0.93795213  0.11902944  0.16770572
   0.56242049  0.20968894  0.83276519
   0.68719130  0.61976940  0.30012062
   0.81026921  0.03357691  0.12533223
   0.68782235  0.12326036  0.65483177