unknown system                          
           1
     9.726678    0.000000    0.000000
     0.000000    8.423550    0.000000
     0.000000    0.000000   45.000000
   Fe   Mn
 281   7
Direct configuration=     1
   0.06213882  0.03365718  0.12461547
   0.81444496  0.04269589  0.87567297
   0.19568531  0.12502286  0.78849584
   0.43364616  0.28735495  0.38904685
   0.31686444  0.36132083  0.16674125
   0.80865890  0.21299463  0.83312353
   0.18357681  0.78740347  0.38907657
   0.56378440  0.20763800  0.56542469
   0.06060638  0.04218786  0.74417579
   0.81357490  0.87205492  0.52129882
   0.18569901  0.29190280  0.74416336
   0.94139113  0.45201300  0.34489781
   0.93375609  0.28738513  0.38899124
   0.43845773  0.62212383  0.52132594
   0.18778074  0.79188350  0.61081500
   0.55868954  0.03753824  0.38901532
   0.93331899  0.96358122  0.83310097
   0.31432571  0.54247888  0.87554767
   0.68558650  0.29163380  0.74407411
   0.94124541  0.95191054  0.34491149
   0.81303300  0.20570661  0.47858825
   0.81270284  0.54179814  0.61085777
   0.31317319  0.87075276  0.43438607
   0.81547877  0.03523800  0.25599191
   0.69136775  0.95188194  0.34496013
   0.94168684  0.11286795  0.16690721
   0.93854781  0.12196035  0.52130653
   0.56533550  0.53534832  0.25603012
   0.69274034  0.79607133  0.87561213
   0.56729876  0.36264361  0.16691333
   0.43583108  0.79171555  0.74416032
   0.81391278  0.70765025  0.56541241
   0.57036681  0.87421428  0.78836002
   0.68847516  0.12199190  0.52126373
   0.19016645  0.28540187  0.25603205
   0.93362001  0.46329505  0.83302980
   0.06541692  0.20839604  0.69969090
   0.80865088  0.03750541  0.38906959
   0.30891583  0.21393458  0.83329077
   0.43404737  0.62598300  0.65494780
   0.31271296  0.54175634  0.61079513
   0.93881761  0.45767948  0.56543691
   0.68574259  0.79195954  0.74416754
   0.30881632  0.87567195  0.65492302
   0.68364399  0.78758985  0.38906044
   0.93575545  0.79179440  0.74415303
   0.06610534  0.20232728  0.34507189
   0.43699405  0.78207179  0.12438471
   0.44533069  0.12502640  0.78858646
   0.05478490  0.20263422  0.21182255
   0.06719543  0.36210170  0.16688421
   0.94019483  0.78530259  0.25604158
   0.56555451  0.20829074  0.69971033
   0.69069708  0.95831871  0.69972979
   0.68370700  0.28755281  0.38904251
   0.43879759  0.95778427  0.56545245
   0.82075344  0.37447243  0.78840948
   0.69000857  0.28534294  0.25605164
   0.18880590  0.45770051  0.56545067
   0.06722852  0.86190679  0.16671671
   0.18789694  0.29179625  0.61074853
   0.56629036  0.70217175  0.34491476
   0.31540791  0.20843401  0.69970467
   0.56528219  0.54179866  0.87559730
   0.06380019  0.70771109  0.56548045
   0.69535524  0.62464560  0.78854691
   0.30854165  0.53762591  0.38906868
   0.18846986  0.62203620  0.52132116
   0.56268067  0.87050954  0.43440435
   0.43873568  0.45776623  0.56544191
   0.43576219  0.29192742  0.74414015
   0.80466896  0.87243755  0.30015443
   0.81633303  0.70188553  0.34496634
   0.43361963  0.46390792  0.83321207
   0.68780937  0.95593041  0.47861471
   0.69072672  0.45837680  0.69970971
   0.56347126  0.87201747  0.52131164
   0.55886866  0.37547194  0.65495301
   0.80885764  0.87561362  0.65491218
   0.81283748  0.37038306  0.43444930
   0.81536025  0.53528308  0.25604300
   0.68353455  0.46312458  0.83306357
   0.18740747  0.78174833  0.12457191
   0.06414242  0.04264758  0.87558303
   0.30885821  0.37569238  0.65492428
   0.31636639  0.20170424  0.34487994
   0.81064436  0.54233257  0.74411204
   0.68377271  0.96350288  0.83307500
   0.55891039  0.87564308  0.65491844
   0.31388145  0.70767891  0.56551565
   0.31190606  0.53368897  0.12441906
   0.68003513  0.95297961  0.21179719
   0.31393234  0.20781476  0.56555127
   0.31087759  0.54242402  0.74422401
   0.68884901  0.95770076  0.56546005
   0.43768550  0.79186655  0.61086347
   0.69178897  0.61213633  0.16692473
   0.30361963  0.87210675  0.30034163
   0.31274381  0.70571677  0.47862933
   0.93794024  0.29171170  0.61072604
   0.42873858  0.62208968  0.30031588
   0.81668369  0.86216450  0.16695416
   0.55539761  0.20223920  0.21158786
   0.94158510  0.61275759  0.16687656
   0.94084194  0.79569023  0.87566252
   0.57083467  0.37447526  0.78838832
   0.06347196  0.37221143  0.52133711
   0.56350085  0.37200633  0.52130279
   0.67895838  0.12206049  0.30027294
   0.43283825  0.96297711  0.83320003
   0.18721958  0.28244631  0.12459931
   0.82081513  0.87448133  0.78837941
   0.31299706  0.37061386  0.43445986
   0.93778908  0.79175433  0.61078828
   0.43774603  0.29171657  0.61077720
   0.19133016  0.45151216  0.34498112
   0.43772452  0.28235527  0.12449671
   0.69010803  0.78536271  0.25600326
   0.19056832  0.95835697  0.69971272
   0.19077371  0.29595029  0.87578791
   0.18381051  0.12569005  0.65492252
   0.93403885  0.12591562  0.65494251
   0.30565393  0.20254916  0.21190986
   0.05865213  0.03751351  0.38907165
   0.44044844  0.95834452  0.69970161
   0.06273240  0.54180145  0.61083572
   0.94053141  0.28518054  0.25605746
   0.56265435  0.54176285  0.61084665
   0.93869795  0.95771651  0.56545076
   0.67901990  0.62203165  0.30017552
   0.93807068  0.61964238  0.43449967
   0.94549909  0.62492369  0.78854989
   0.56537133  0.70842574  0.69969044
   0.05877313  0.71306422  0.83322041
   0.92855466  0.12204823  0.30031222
   0.94051473  0.45833727  0.69969931
   0.44020152  0.78549071  0.25596292
   0.32073520  0.37457367  0.78841914
   0.43040751  0.45219615  0.21157742
   0.18850225  0.12218894  0.52127023
   0.81552448  0.70834011  0.69969438
   0.06267310  0.04187947  0.61085845
   0.55900408  0.21343650  0.83324130
   0.31367544  0.87197386  0.52125349
   0.68760090  0.28194657  0.12431243
   0.18008669  0.95234790  0.21173492
   0.68775685  0.29187126  0.61083872
   0.31268481  0.04183472  0.61085672
   0.94561043  0.12485405  0.78848158
   0.44089097  0.79684308  0.87575627
   0.81065578  0.04227400  0.74406123
   0.43836682  0.12192393  0.52131736
   0.18396695  0.62598324  0.65494690
   0.31527954  0.70832061  0.69968816
   0.93590978  0.28151688  0.12452526
   0.43797918  0.45595247  0.47861236
   0.06312325  0.70547242  0.47862839
   0.93842434  0.11971672  0.43440277
   0.42870168  0.12200556  0.30034640
   0.18803929  0.12037098  0.43444355
   0.56514500  0.04296757  0.87557482
   0.18874190  0.95740987  0.56530025
   0.68779988  0.78249459  0.12443934
   0.56336618  0.53273816  0.12454962
   0.30874293  0.03746723  0.38909117
   0.69228229  0.11205748  0.16702703
   0.80565944  0.20257659  0.21169113
   0.06556446  0.53534848  0.25597813
   0.56279508  0.70581002  0.47860795
   0.06362733  0.20784675  0.56546930
   0.55382165  0.37198161  0.30028761
   0.44149065  0.95174114  0.34497183
   0.18395592  0.96344974  0.83320859
   0.44170822  0.61256468  0.16684387
   0.93018171  0.45304671  0.21183576
   0.06210199  0.53322841  0.12457691
   0.81346667  0.37200237  0.52130283
   0.92884433  0.62203354  0.30024479
   0.31520812  0.03555977  0.25604571
   0.06331810  0.87188982  0.52124244
   0.18369805  0.46433725  0.83323567
   0.44247156  0.11171177  0.16674893
   0.31345839  0.37219635  0.52131346
   0.44604341  0.62462454  0.78836026
   0.06546412  0.03531900  0.25603675
   0.56374629  0.70774782  0.56543274
   0.93592661  0.29179723  0.74415983
   0.69575669  0.12470675  0.78843635
   0.18079166  0.45216569  0.21166273
   0.93354369  0.78710299  0.38902179
   0.69381189  0.29703066  0.87580476
   0.68769681  0.79189558  0.61088233
   0.44036900  0.45827463  0.69970078
   0.80890087  0.37565515  0.65491946
   0.68843588  0.62225939  0.52133327
   0.05882508  0.87561933  0.65490319
   0.07081436  0.87456826  0.78840131
   0.05884905  0.37568043  0.65492618
   0.68781673  0.45578549  0.47863243
   0.19029735  0.78546465  0.25602356
   0.43803830  0.11995811  0.43444975
   0.81097609  0.03326393  0.12443563
   0.93851575  0.62208535  0.52132627
   0.06285951  0.87036299  0.43444251
   0.81072019  0.53277392  0.12443834
   0.44147374  0.45205921  0.34501112
   0.81608646  0.20176014  0.34494762
   0.31642848  0.70173784  0.34496253
   0.68392662  0.12599639  0.65495223
   0.55390661  0.87217144  0.30030549
   0.06053950  0.54222566  0.74418993
   0.93616299  0.78146798  0.12465316
   0.80537836  0.70272581  0.21173276
   0.05456676  0.87253805  0.30010076
   0.17938832  0.12277353  0.30022203
   0.06639540  0.70168220  0.34495580
   0.81283026  0.04155759  0.61072193
   0.06301369  0.37049194  0.43443399
   0.56622345  0.20164492  0.34492730
   0.80364274  0.37187921  0.30031702
   0.43795810  0.95605584  0.47860258
   0.55850339  0.53731792  0.38905969
   0.06284792  0.20575912  0.47862902
   0.32075976  0.87467037  0.78840239
   0.94054752  0.95842024  0.69972466
   0.05394691  0.37228406  0.30026088
   0.68401436  0.62601036  0.65496107
   0.68877957  0.45767453  0.56544223
   0.43032242  0.95288846  0.21184680
   0.31286144  0.20585245  0.47862402
   0.43386813  0.12577799  0.65490934
   0.68791164  0.62041396  0.43438571
   0.81541757  0.20835478  0.69968828
   0.81285369  0.70566313  0.47862551
   0.56306076  0.37037839  0.43444017
   0.93775146  0.95583409  0.47860738
   0.56279005  0.20575745  0.47860372
   0.18812924  0.62030908  0.43440889
   0.31068374  0.04215649  0.74407549
   0.93395820  0.62590718  0.65492902
   0.55886270  0.71323676  0.83325770
   0.30375809  0.37292231  0.30026708
   0.55528584  0.70257974  0.21176712
   0.18784285  0.45574316  0.47861938
   0.31483462  0.04158619  0.87569348
   0.19028407  0.45823576  0.69967003
   0.81454417  0.54246693  0.87564424
   0.18333966  0.28783388  0.38908356
   0.43834194  0.62058836  0.43429188
   0.05559169  0.70227180  0.21175620
   0.56356701  0.03315493  0.12443953
   0.81660488  0.36241977  0.16688606
   0.80836531  0.71364390  0.83308414
   0.07075830  0.37444823  0.78840763
   0.44298820  0.29637711  0.87570053
   0.31262178  0.03360952  0.12450317
   0.68803209  0.12030357  0.43440359
   0.19148349  0.95204420  0.34499096
   0.05863151  0.21356090  0.83331438
   0.56284143  0.04172581  0.61075607
   0.68047152  0.45277372  0.21167834
   0.18593984  0.79162361  0.74416517
   0.81315779  0.87029608  0.43441029
   0.43369553  0.78756210  0.38907587
   0.44068900  0.28552735  0.25596616
   0.06437593  0.54224264  0.87566284
   0.56052203  0.04226221  0.74417446
   0.19347516  0.79697382  0.87588007
   0.93776198  0.45581701  0.47865094
   0.80862103  0.53772026  0.38906446
   0.81384409  0.20762537  0.56542013
   0.19518214  0.62464654  0.78836779
   0.93063623  0.95315130  0.21185849
   0.06538634  0.70840626  0.69968269
   0.31565313  0.53553222  0.25598640
   0.30556135  0.70229160  0.21190997
   0.56677935  0.86292762  0.16688420
   0.56067426  0.54243830  0.74409210
   0.69125566  0.45194156  0.34500744
   0.94109893  0.29682634  0.87580849
   0.56526504  0.03532865  0.25602093
   0.19249314  0.11129515  0.16617453
   0.30805032  0.71486489  0.83390820
   0.31806937  0.86052687  0.16615217
   0.17882433  0.62191690  0.30024196
   0.05830760  0.53786586  0.38896179
   0.19294656  0.61166125  0.16614354
   0.18803841  0.95604131  0.47864298
Direct configuration=     2
   0.06228492  0.03342894  0.12463402
   0.81437435  0.04300063  0.87559729
   0.19513422  0.12512762  0.78848027
   0.43388794  0.28728813  0.38910662
   0.31649068  0.36155627  0.16673407
   0.80916443  0.21286635  0.83316600
   0.18391193  0.78740253  0.38914099
   0.56370529  0.20755836  0.56546248
   0.06096580  0.04214867  0.74413255
   0.81351434  0.87222219  0.52136708
   0.18605710  0.29195469  0.74411675
   0.94084196  0.45218837  0.34492717
   0.93402691  0.28735840  0.38906503
   0.43844129  0.62232018  0.52139005
   0.18771081  0.79185573  0.61075870
   0.55897979  0.03752083  0.38908271
   0.93377168  0.96343474  0.83317704
   0.31423682  0.54291982  0.87552732
   0.68594532  0.29173965  0.74404303
   0.94071404  0.95210601  0.34493060
   0.81305071  0.20559266  0.47851239
   0.81264670  0.54175238  0.61079362
   0.31315370  0.87075027  0.43436090
   0.81492842  0.03526636  0.25600378
   0.69083505  0.95207034  0.34497853
   0.94130062  0.11317388  0.16688233
   0.93855463  0.12213411  0.52136463
   0.56485011  0.53536833  0.25602655
   0.69241722  0.79582603  0.87556608
   0.56705115  0.36285890  0.16686837
   0.43613123  0.79178292  0.74411827
   0.81380633  0.70756853  0.56546138
   0.56982119  0.87441042  0.78834442
   0.68844721  0.12219207  0.52133819
   0.18967731  0.28544039  0.25603821
   0.93404513  0.46303541  0.83311260
   0.06520049  0.20839987  0.69969186
   0.80885126  0.03747181  0.38912906
   0.30935741  0.21373523  0.83332311
   0.43432747  0.62586449  0.65494034
   0.31268693  0.54174978  0.61074350
   0.93871418  0.45758434  0.56548165
   0.68609858  0.79202238  0.74412376
   0.30915427  0.87562755  0.65492321
   0.68394518  0.78759088  0.38912367
   0.93609660  0.79187313  0.74411243
   0.06558935  0.20243744  0.34507221
   0.43703003  0.78200935  0.12440201
   0.44487422  0.12512619  0.78855982
   0.05529761  0.20259023  0.21182450
   0.06679671  0.36229945  0.16686498
   0.93972760  0.78530376  0.25602776
   0.56531652  0.20830493  0.69970460
   0.69042282  0.95833486  0.69972744
   0.68399334  0.28745119  0.38910582
   0.43875371  0.95770831  0.56550898
   0.82017530  0.37462365  0.78838328
   0.68956128  0.28538976  0.25605918
   0.18872766  0.45760598  0.56549079
   0.06679572  0.86222867  0.16673123
   0.18780823  0.29173546  0.61070039
   0.56576292  0.70230806  0.34494610
   0.31519549  0.20842338  0.69970789
   0.56505665  0.54230566  0.87553321
   0.06372337  0.70758815  0.56553485
   0.69484407  0.62478682  0.78850793
   0.30886578  0.53760389  0.38913202
   0.18844187  0.62227977  0.52138334
   0.56269012  0.87055101  0.43437663
   0.43867949  0.45766611  0.56548634
   0.43609131  0.29197247  0.74410543
   0.80516354  0.87221328  0.30018896
   0.81581741  0.70210777  0.34499173
   0.43409104  0.46371525  0.83325225
   0.68783566  0.95571757  0.47853607
   0.69044202  0.45839328  0.69970828
   0.56342446  0.87220663  0.52138027
   0.55917919  0.37547337  0.65494973
   0.80917601  0.87561212  0.65491371
   0.81283697  0.37047342  0.43441386
   0.81481112  0.53527579  0.25604510
   0.68396851  0.46289259  0.83313438
   0.18755864  0.78182962  0.12453531
   0.06405587  0.04311401  0.87551571
   0.30918603  0.37566666  0.65492001
   0.31579399  0.20193612  0.34490849
   0.81097393  0.54227413  0.74407531
   0.68417556  0.96337871  0.83314996
   0.55923139  0.87563217  0.65491606
   0.31377365  0.70756152  0.56556392
   0.31205295  0.53352180  0.12443618
   0.68055532  0.95277127  0.21179017
   0.31385396  0.20773720  0.56559243
   0.31118933  0.54235809  0.74416607
   0.68874559  0.95760732  0.56550241
   0.43764489  0.79182778  0.61079833
   0.69153739  0.61238381  0.16688851
   0.30437734  0.87190120  0.30035275
   0.31279060  0.70547695  0.47854998
   0.93784795  0.29169801  0.61068340
   0.42947561  0.62190990  0.30032002
   0.81640309  0.86243950  0.16692173
   0.55586391  0.20218692  0.21162444
   0.94117963  0.61299191  0.16684881
   0.94061611  0.79549275  0.87559799
   0.57025984  0.37463058  0.78835558
   0.06344551  0.37234525  0.52140315
   0.56345616  0.37219675  0.52137205
   0.67956945  0.12184081  0.30028017
   0.43331534  0.96285957  0.83326053
   0.18726004  0.28241591  0.12459408
   0.82024026  0.87462389  0.78835133
   0.31293546  0.37069330  0.43442892
   0.93774097  0.79173206  0.61073249
   0.43771461  0.29169909  0.61072499
   0.19082665  0.45164939  0.34500603
   0.43777172  0.28219092  0.12455854
   0.68964543  0.78534289  0.25601694
   0.19032172  0.95838417  0.69971325
   0.19063586  0.29566444  0.87571476
   0.18414155  0.12565857  0.65491996
   0.93432058  0.12583645  0.65493184
   0.30616531  0.20243130  0.21189404
   0.05895468  0.03743952  0.38913628
   0.44022825  0.95838029  0.69970350
   0.06266051  0.54177892  0.61077103
   0.93993686  0.28526816  0.25605393
   0.56263091  0.54172686  0.61078600
   0.93860706  0.95764560  0.56550643
   0.67960829  0.62183692  0.30019610
   0.93801374  0.61988687  0.43446212
   0.94500918  0.62505235  0.78851786
   0.56517246  0.70842534  0.69968802
   0.05921458  0.71288624  0.83326181
   0.92916802  0.12188443  0.30031767
   0.94028751  0.45836187  0.69970532
   0.43962234  0.78548565  0.25598024
   0.32017424  0.37474949  0.78840197
   0.43089808  0.45210195  0.21160717
   0.18845550  0.12241587  0.52133665
   0.81528476  0.70836141  0.69969715
   0.06264470  0.04182104  0.61079544
   0.55952772  0.21326772  0.83328299
   0.31364407  0.87213276  0.52132651
   0.68763821  0.28194973  0.12438963
   0.18053849  0.95221954  0.21174810
   0.68770500  0.29182964  0.61077945
   0.31262808  0.04178269  0.61079512
   0.94506568  0.12497507  0.78845881
   0.44073454  0.79646306  0.87571885
   0.81100333  0.04222808  0.74403700
   0.43830054  0.12213534  0.52138180
   0.18427790  0.62587461  0.65494097
   0.31508233  0.70832898  0.69969155
   0.93622124  0.28145406  0.12458338
   0.43803131  0.45580835  0.47853490
   0.06307919  0.70531583  0.47854782
   0.93835603  0.11990427  0.43436646
   0.42946538  0.12182337  0.30034533
   0.18800226  0.12052774  0.43439746
   0.56500734  0.04342466  0.87550767
   0.18866461  0.95737857  0.56532660
   0.68791196  0.78248559  0.12451384
   0.56342603  0.53255279  0.12460695
   0.30906509  0.03743810  0.38915079
   0.69193620  0.11245388  0.16698136
   0.80609828  0.20248169  0.21171159
   0.06504121  0.53539215  0.25597577
   0.56277423  0.70564466  0.47852939
   0.06355330  0.20775802  0.56552262
   0.55445264  0.37176120  0.30028731
   0.44090674  0.95193190  0.34498622
   0.18438683  0.96333162  0.83326547
   0.44145932  0.61285095  0.16680488
   0.93071925  0.45279383  0.21182104
   0.06217815  0.53292963  0.12459797
   0.81342404  0.37219339  0.52137359
   0.92943247  0.62188526  0.30025840
   0.31467272  0.03554351  0.25605477
   0.06328429  0.87206330  0.52131366
   0.18410402  0.46405452  0.83329161
   0.44212537  0.11198687  0.16671981
   0.31342414  0.37232802  0.52138565
   0.44547188  0.62473489  0.78834127
   0.06495817  0.03537513  0.25603593
   0.56367577  0.70764679  0.56547636
   0.93623671  0.29185758  0.74411752
   0.69518385  0.12485587  0.78841345
   0.18120627  0.45201064  0.21168294
   0.93376510  0.78710690  0.38909023
   0.69322702  0.29665722  0.87573516
   0.68764610  0.79182717  0.61081240
   0.44017472  0.45828673  0.69970450
   0.80921962  0.37561485  0.65491070
   0.68840355  0.62238493  0.52139867
   0.05913679  0.87559898  0.65490258
   0.07024484  0.87471156  0.78837571
   0.05917304  0.37564323  0.65492668
   0.68782518  0.45563102  0.47855167
   0.18978373  0.78544659  0.25602935
   0.43793973  0.12014642  0.43440833
   0.81120585  0.03308465  0.12450726
   0.93846662  0.62227568  0.52139414
   0.06279396  0.87035907  0.43440684
   0.81092087  0.53267680  0.12450660
   0.44086188  0.45220960  0.34501915
   0.81554965  0.20196291  0.34497064
   0.31582021  0.70194347  0.34499012
   0.68424227  0.12589851  0.65494317
   0.55456979  0.87201670  0.30031484
   0.06090728  0.54216927  0.74414676
   0.93633979  0.78144286  0.12469541
   0.80585238  0.70258667  0.21174264
   0.05506088  0.87235103  0.30013762
   0.17992159  0.12251388  0.30024900
   0.06583964  0.70193864  0.34495946
   0.81276623  0.04156591  0.61068022
   0.06296058  0.37053585  0.43441224
   0.56567121  0.20188044  0.34494588
   0.80429456  0.37164287  0.30030531
   0.43804644  0.95590077  0.47852299
   0.55880776  0.53733477  0.38912029
   0.06273369  0.20562184  0.47855403
   0.32017634  0.87486328  0.78836589
   0.94031478  0.95842213  0.69972361
   0.05456960  0.37204463  0.30028242
   0.68430668  0.62589679  0.65495188
   0.68869225  0.45760073  0.56548690
   0.43083130  0.95273175  0.21184958
   0.31300469  0.20570965  0.47854064
   0.43419066  0.12572352  0.65490852
   0.68790273  0.62048878  0.43435958
   0.81520453  0.20837028  0.69968884
   0.81289275  0.70554458  0.47855656
   0.56300796  0.37047578  0.43439857
   0.93768147  0.95572048  0.47852398
   0.56278183  0.20564802  0.47852695
   0.18807746  0.62047881  0.43438660
   0.31101136  0.04214395  0.74404917
   0.93425914  0.62581650  0.65492736
   0.55934013  0.71299975  0.83328497
   0.30448554  0.37258218  0.30026144
   0.55577256  0.70246641  0.21178316
   0.18787895  0.45562177  0.47854943
   0.31469937  0.04213609  0.87563152
   0.19008952  0.45826995  0.69967729
   0.81445384  0.54290935  0.87556430
   0.18366498  0.28779312  0.38914435
   0.43823956  0.62067805  0.43428675
   0.05600446  0.70228338  0.21176759
   0.56353710  0.03298158  0.12450824
   0.81631230  0.36272866  0.16687861
   0.80888041  0.71346460  0.83314525
   0.07018134  0.37461927  0.78838439
   0.44260947  0.29607178  0.87564868
   0.31268044  0.03338416  0.12447952
   0.68800794  0.12039642  0.43437511
   0.19089208  0.95221416  0.34501252
   0.05901598  0.21339055  0.83335644
   0.56276828  0.04169856  0.61070733
   0.68093122  0.45263679  0.21169621
   0.18627171  0.79172995  0.74412084
   0.81308858  0.87035094  0.43437832
   0.43400935  0.78756163  0.38913395
   0.44009637  0.28552664  0.25597525
   0.06435196  0.54268522  0.87559576
   0.56085922  0.04221165  0.74413679
   0.19303054  0.79654977  0.87584755
   0.93770426  0.45560977  0.47857389
   0.80886460  0.53768146  0.38912643
   0.81374293  0.20756128  0.56546226
   0.19468581  0.62478876  0.78836527
   0.93114811  0.95290769  0.21184848
   0.06517378  0.70840503  0.69968349
   0.31510461  0.53549811  0.25598578
   0.30607668  0.70217022  0.21188850
   0.56655444  0.86319560  0.16685329
   0.56100298  0.54232366  0.74406081
   0.69069789  0.45212325  0.34501491
   0.94097619  0.29650954  0.87573464
   0.56475095  0.03538068  0.25602245
   0.19204538  0.11163278  0.16621403
   0.30851115  0.71451741  0.83392049
   0.31773168  0.86093997  0.16617723
   0.17936539  0.62180384  0.30024939
   0.05859291  0.53781220  0.38901860
   0.19246851  0.61179687  0.16616811
   0.18799159  0.95582449  0.47858725
Direct configuration=     3
   0.06272321  0.03274423  0.12468965
   0.81416251  0.04391487  0.87537027
   0.19348094  0.12544191  0.78843357
   0.43461327  0.28708767  0.38928592
   0.31536939  0.36226260  0.16671254
   0.81068102  0.21248151  0.83329340
   0.18491728  0.78739971  0.38933427
   0.56346794  0.20731942  0.56557583
   0.06204407  0.04203110  0.74400284
   0.81333265  0.87272400  0.52157188
   0.18713137  0.29211037  0.74397694
   0.93919444  0.45271448  0.34501524
   0.93483936  0.28727818  0.38928639
   0.43839196  0.62290923  0.52158238
   0.18750103  0.79177242  0.61058980
   0.55985052  0.03746860  0.38928488
   0.93512975  0.96299530  0.83340525
   0.31397014  0.54424266  0.87546627
   0.68702180  0.29205720  0.74394981
   0.93911995  0.95269241  0.34498792
   0.81310386  0.20525084  0.47828480
   0.81247825  0.54161510  0.61060114
   0.31309521  0.87074280  0.43428539
   0.81327740  0.03535146  0.25603938
   0.68923697  0.95263554  0.34503374
   0.94014198  0.11409164  0.16680771
   0.93857510  0.12265538  0.52153893
   0.56339394  0.53542836  0.25601585
   0.69144784  0.79509014  0.87542794
   0.56630832  0.36350475  0.16673350
   0.43703170  0.79198502  0.74399211
   0.81348698  0.70732336  0.56560830
   0.56818434  0.87499883  0.78829762
   0.68836337  0.12279258  0.52156154
   0.18820988  0.28555596  0.25605668
   0.93532048  0.46225652  0.83336103
   0.06455120  0.20841135  0.69969475
   0.80945240  0.03737100  0.38930746
   0.31068215  0.21313719  0.83342015
   0.43516779  0.62550896  0.65491796
   0.31260882  0.54173007  0.61058862
   0.93840389  0.45729892  0.56561585
   0.68716658  0.79221088  0.74399242
   0.31016813  0.87549436  0.65492380
   0.68484877  0.78759397  0.38931335
   0.93712003  0.79210931  0.74399062
   0.06404139  0.20276793  0.34507315
   0.43713796  0.78182203  0.12445393
   0.44350480  0.12542555  0.78847990
   0.05683575  0.20245826  0.21183035
   0.06560055  0.36289270  0.16680730
   0.93832592  0.78530728  0.25598631
   0.56460254  0.20834753  0.69968742
   0.68960003  0.95838330  0.69972038
   0.68485235  0.28714631  0.38929575
   0.43862206  0.95748042  0.56567854
   0.81844089  0.37507729  0.78830467
   0.68821941  0.28553024  0.25608177
   0.18849296  0.45732240  0.56561118
   0.06549730  0.86319432  0.16677479
   0.18754210  0.29155309  0.61055597
   0.56418062  0.70271699  0.34504011
   0.31455823  0.20839152  0.69971756
   0.56438003  0.54382664  0.87534093
   0.06349289  0.70721933  0.56569806
   0.69331054  0.62521049  0.78839100
   0.30983814  0.53753784  0.38932202
   0.18835791  0.62301048  0.52156987
   0.56271849  0.87067542  0.43429349
   0.43851095  0.45736576  0.56561963
   0.43707869  0.29210761  0.74400126
   0.80664729  0.87154048  0.30029254
   0.81427055  0.70277451  0.34506789
   0.43550528  0.46313724  0.83337276
   0.68791453  0.95507904  0.47830014
   0.68958794  0.45844273  0.69970397
   0.56328406  0.87277409  0.52158615
   0.56011079  0.37547766  0.65493988
   0.81013114  0.87560764  0.65491829
   0.81283544  0.37074449  0.43430755
   0.81316374  0.53525392  0.25605141
   0.68527041  0.46219662  0.83334682
   0.18801216  0.78207348  0.12442552
   0.06379620  0.04451331  0.87531377
   0.31016950  0.37558950  0.65490720
   0.31407677  0.20263177  0.34499411
   0.81196265  0.54209882  0.74396512
   0.68538413  0.96300621  0.83337483
   0.56019440  0.87559946  0.65490894
   0.31345027  0.70720932  0.56570876
   0.31249365  0.53302028  0.12448753
   0.68211588  0.95214626  0.21176914
   0.31361883  0.20750453  0.56571588
   0.31212453  0.54216029  0.74399225
   0.68843533  0.95732702  0.56562950
   0.43752306  0.79171148  0.61060290
   0.69078265  0.61312627  0.16677985
   0.30665049  0.87128456  0.30038609
   0.31293098  0.70475749  0.47831191
   0.93757108  0.29165696  0.61055550
   0.43168671  0.62137056  0.30033245
   0.81556127  0.86326452  0.16682444
   0.55726282  0.20203009  0.21173417
   0.93996322  0.61369487  0.16676556
   0.93993862  0.79490033  0.87540439
   0.56853536  0.37509655  0.78825737
   0.06336615  0.37274669  0.52160126
   0.56332210  0.37276802  0.52157985
   0.68140266  0.12118175  0.30030184
   0.43474660  0.96250696  0.83344204
   0.18738143  0.28232471  0.12457837
   0.81851564  0.87505158  0.78826708
   0.31275067  0.37093164  0.43433609
   0.93759665  0.79166524  0.61056511
   0.43762036  0.29164666  0.61056838
   0.18931612  0.45206108  0.34508074
   0.43791334  0.28169785  0.12474402
   0.68825763  0.78528343  0.25605798
   0.18958191  0.95846576  0.69971484
   0.19022230  0.29480689  0.87549531
   0.18513467  0.12556412  0.65491229
   0.93516577  0.12559894  0.65489983
   0.30769944  0.20207772  0.21184658
   0.05986234  0.03721755  0.38933017
   0.43956770  0.95848759  0.69970914
   0.06244486  0.54171131  0.61057698
   0.93815322  0.28553101  0.25604333
   0.56256060  0.54161889  0.61060402
   0.93833438  0.95743287  0.56567345
   0.68137346  0.62125273  0.30025787
   0.93784290  0.62062036  0.43434948
   0.94353945  0.62543833  0.78842176
   0.56457585  0.70842414  0.69968076
   0.06053895  0.71235228  0.83338600
   0.93100811  0.12139302  0.30033401
   0.93960587  0.45843568  0.69972337
   0.43788481  0.78547049  0.25603219
   0.31849137  0.37527695  0.78835044
   0.43236976  0.45181936  0.21169642
   0.18831525  0.12309666  0.52153591
   0.81456561  0.70842533  0.69970545
   0.06255952  0.04164574  0.61060642
   0.56109862  0.21276137  0.83340807
   0.31354996  0.87260943  0.52154557
   0.68775013  0.28195920  0.12462120
   0.18189388  0.95183443  0.21178762
   0.68754945  0.29170479  0.61060165
   0.31245790  0.04162661  0.61061032
   0.94343143  0.12533813  0.78839048
   0.44026524  0.79532300  0.87560660
   0.81204599  0.04209034  0.74396433
   0.43810170  0.12276957  0.52157515
   0.18521076  0.62554870  0.65492318
   0.31449070  0.70835407  0.69970173
   0.93715562  0.28126561  0.12475771
   0.43818769  0.45537600  0.47830253
   0.06294700  0.70484606  0.47830609
   0.93815108  0.12046694  0.43425750
   0.43175647  0.12127681  0.30034214
   0.18789118  0.12099803  0.43425920
   0.56459435  0.04479593  0.87530623
   0.18843274  0.95728467  0.56540566
   0.68824818  0.78245859  0.12473736
   0.56360557  0.53199669  0.12477893
   0.31003155  0.03735069  0.38932963
   0.69089792  0.11364310  0.16684438
   0.80741478  0.20219698  0.21177299
   0.06347146  0.53552315  0.25596866
   0.56271170  0.70514858  0.47829372
   0.06333119  0.20749186  0.56568259
   0.55634562  0.37109996  0.30028641
   0.43915498  0.95250418  0.34502939
   0.18567958  0.96297727  0.83343610
   0.44071261  0.61370977  0.16668792
   0.93233186  0.45203521  0.21177688
   0.06240662  0.53203328  0.12466114
   0.81329616  0.37276646  0.52158589
   0.93119687  0.62144044  0.30029923
   0.31306653  0.03549473  0.25608194
   0.06318285  0.87258374  0.52152733
   0.18532194  0.46320632  0.83345943
   0.44108679  0.11281220  0.16663245
   0.31332139  0.37272305  0.52160221
   0.44375728  0.62506592  0.78828428
   0.06344034  0.03554355  0.25603346
   0.56346421  0.70734370  0.56560719
   0.93716701  0.29203863  0.74399058
   0.69346534  0.12530323  0.78834473
   0.18245010  0.45154548  0.21174356
   0.93442933  0.78711864  0.38929553
   0.69147240  0.29553687  0.87552635
   0.68749397  0.79162194  0.61060260
   0.43959190  0.45832302  0.69971565
   0.81017589  0.37549397  0.65488445
   0.68830656  0.62276155  0.52159489
   0.06007192  0.87553793  0.65490075
   0.06853627  0.87514146  0.78829892
   0.06014499  0.37553163  0.65492819
   0.68785053  0.45516760  0.47830940
   0.18824288  0.78539242  0.25604672
   0.43764400  0.12071135  0.43428408
   0.81189514  0.03254683  0.12472217
   0.93831925  0.62284665  0.52159776
   0.06259730  0.87034731  0.43429984
   0.81152291  0.53238543  0.12471141
   0.43902630  0.45266077  0.34504324