<?xml version="1.0" encoding="ISO-8859-1"?>
<modeling>
 <generator>
  <i name="program" type="string">vasp </i>
  <i name="version" type="string">5.4.4.18Apr17-6-g9f103f2a35  </i>
  <i name="subversion" type="string">(build Sep 27 2018 12:46:37) complex + VL-xray_ parallel </i>
  <i name="platform" type="string">LLNL_Quartz_ifc </i>
  <i name="date" type="string">2021 09 27 </i>
  <i name="time" type="string">01:16:19 </i>
 </generator>
 <incar>
  <i type="int" name="ISTART">     2</i>
  <i type="string" name="PREC">accurate</i>
  <i type="string" name="ALGO"> Fast</i>
  <i type="int" name="ICHARG">     2</i>
  <i type="int" name="INIWAV">     1</i>
  <i type="int" name="NELM">   100</i>
  <i type="int" name="NELMIN">     4</i>
  <i type="int" name="IBRION">     2</i>
  <i name="EDIFF">      0.00000100</i>
  <i type="int" name="NSW">     5</i>
  <i type="int" name="ISIF">     2</i>
  <i type="int" name="ISYM">     2</i>
  <i name="ENCUT">    450.00000000</i>
  <i name="POTIM">      0.25000000</i>
  <i type="string" name="LREAL"> Auto</i>
  <i type="int" name="ISMEAR">     0</i>
  <i name="SIGMA">      0.15000000</i>
  <i type="logical" name="LWAVE"> F  </i>
  <i type="logical" name="LCHARG"> F  </i>
  <i type="int" name="ICORELEVEL">     0</i>
  <i type="int" name="CLNT">     1</i>
  <i type="int" name="CLN">     1</i>
  <i type="int" name="INCAR     ">     0</i>
  <i name="CLZ">      0.00000000</i>
  <v type="int" name="KPOINT_BSE">    -1     0     0     0</v>
  <i type="int" name="NELM">   100</i>
 </incar>
 <structure name="primitive_cell" >
  <crystal>
   <varray name="basis" >
    <v>       9.72667804       0.00000000       0.00000000 </v>
    <v>       0.00000000       8.42355028       0.00000000 </v>
    <v>       0.00000000       0.00000000      45.00000000 </v>
   </varray>
   <i name="volume">   3686.99226691 </i>
   <varray name="rec_basis" >
    <v>       0.10281002       0.00000000       0.00000000 </v>
    <v>       0.00000000       0.11871479       0.00000000 </v>
    <v>       0.00000000       0.00000000       0.02222222 </v>
   </varray>
  </crystal>
  <varray name="positions" >
   <v>       0.06343509       0.02926753       0.12408077 </v>
   <v>       0.18278011       0.11320783       0.16656827 </v>
   <v>       0.18579172      -0.21191409       0.12416684 </v>
   <v>       0.05595027      -0.13432260       0.16663611 </v>
   <v>      -0.06452467      -0.21097751       0.12434000 </v>
   <v>       0.31174619       0.03133778       0.12408723 </v>
   <v>      -0.06889633       0.11427887       0.16684322 </v>
   <v>      -0.18600950       0.03085106       0.12405114 </v>
   <v>       0.18591944       0.28704664       0.12402837 </v>
   <v>      -0.06462224       0.28728444       0.12400157 </v>
   <v>       0.30656970      -0.13621905       0.16668074 </v>
   <v>       0.05566249       0.36557330       0.16662611 </v>
   <v>      -0.19249056      -0.13630002       0.16669911 </v>
   <v>       0.43236771       0.11311115       0.16657394 </v>
   <v>      -0.06033709      -0.04574515       0.21123804 </v>
   <v>       0.18191753      -0.38618063       0.16659290 </v>
   <v>       0.30678169       0.36443363       0.16664023 </v>
   <v>       0.43554277      -0.21255676       0.12404043 </v>
   <v>       0.19101520      -0.04429931       0.21158223 </v>
   <v>      -0.06771097      -0.38689503       0.16673778 </v>
   <v>       0.06511324       0.20599231       0.21124814 </v>
   <v>       0.43378856       0.28639199       0.12396104 </v>
   <v>       0.06222459      -0.47064980       0.12387213 </v>
   <v>      -0.31656679      -0.21145764       0.12421887 </v>
   <v>      -0.19465495       0.36621532       0.16586393 </v>
   <v>      -0.31796121       0.11351580       0.16662251 </v>
   <v>      -0.31415681       0.28744658       0.12385687 </v>
   <v>       0.06679477      -0.29558991       0.21124166 </v>
   <v>      -0.18453753       0.20372732       0.21125327 </v>
   <v>       0.31183418      -0.46985510       0.12398625 </v>
   <v>      -0.43802817       0.03257270       0.12428160 </v>
   <v>       0.31587776       0.20627821       0.21118434 </v>
   <v>      -0.18674296      -0.47107123       0.12397856 </v>
   <v>      -0.44278061      -0.13794551       0.16640864 </v>
   <v>      -0.18401808      -0.29581170       0.21137685 </v>
   <v>       0.43214395      -0.38697735       0.16615215 </v>
   <v>       0.31517070      -0.29354824       0.21161244 </v>
   <v>      -0.31041549      -0.04567234       0.21164501 </v>
   <v>       0.43978433      -0.04475649       0.21184280 </v>
   <v>      -0.31810109      -0.38770733       0.16612423 </v>
   <v>       0.18976196       0.45441573       0.21122997 </v>
   <v>      -0.05983589       0.45444965       0.21169247 </v>
   <v>      -0.44322728       0.36427761       0.16649368 </v>
   <v>       0.05948051       0.03803436       0.25561789 </v>
   <v>       0.18429353      -0.21200820       0.25543981 </v>
   <v>       0.30994163       0.03788888       0.25549312 </v>
   <v>      -0.06613024      -0.21254906       0.25567819 </v>
   <v>      -0.43413511       0.20370692       0.21122656 </v>
   <v>      -0.43723906      -0.46982031       0.12428256 </v>
   <v>      -0.19001112       0.03865414       0.25589141 </v>
   <v>       0.18454141       0.28865959       0.25598013 </v>
   <v>      -0.06636162       0.28808097       0.25585490 </v>
   <v>      -0.31092278       0.45402455       0.21163189 </v>
   <v>       0.44035633       0.45420309       0.21127778 </v>
   <v>      -0.43242145      -0.29525194       0.21175151 </v>
   <v>       0.43317442      -0.21212458       0.25555207 </v>
   <v>       0.05976305      -0.46237530       0.25575858 </v>
   <v>      -0.31652292      -0.21136931       0.25579329 </v>
   <v>       0.43383736       0.28874280       0.25588303 </v>
   <v>      -0.31575575       0.28847301       0.25592833 </v>
   <v>       0.30901674      -0.46232715       0.25568098 </v>
   <v>      -0.43984564       0.03823446       0.25546284 </v>
   <v>      -0.19109492      -0.46181810       0.25583214 </v>
   <v>       0.06918601      -0.12565102       0.30020427 </v>
   <v>      -0.05619268       0.12330286       0.29999006 </v>
   <v>       0.19394597       0.12414351       0.30018597 </v>
   <v>      -0.18021179      -0.12568321       0.30018019 </v>
   <v>       0.31872792      -0.12549506       0.30002228 </v>
   <v>       0.06845029       0.37480731       0.30013223 </v>
   <v>      -0.44162974      -0.46124568       0.25572276 </v>
   <v>      -0.05615617      -0.37656140       0.29990330 </v>
   <v>       0.19373798      -0.37612636       0.30020682 </v>
   <v>      -0.30620326       0.12319728       0.30013419 </v>
   <v>      -0.18076452       0.37373431       0.30008468 </v>
   <v>       0.31914462       0.37353211       0.29999796 </v>
   <v>       0.44410613       0.12356475       0.30041956 </v>
   <v>      -0.30649704      -0.37549726       0.30012021 </v>
   <v>      -0.43045850      -0.12590608       0.30020096 </v>
   <v>       0.44544465      -0.37523186       0.30024438 </v>
   <v>      -0.43144177       0.37364932       0.30018118 </v>
   <v>       0.18361532      -0.04778622       0.34486881 </v>
   <v>      -0.06586030      -0.04859867       0.34468580 </v>
   <v>       0.05932373       0.20334346       0.34495250 </v>
   <v>       0.05858741      -0.29761458       0.34488135 </v>
   <v>       0.30923093       0.20275373       0.34468567 </v>
   <v>      -0.19072621       0.20285073       0.34502663 </v>
   <v>       0.30924045      -0.29759777       0.34473837 </v>
   <v>       0.43376147      -0.04729965       0.34504056 </v>
   <v>      -0.19139191      -0.29724747       0.34485519 </v>
   <v>      -0.31666822      -0.04832929       0.34474846 </v>
   <v>       0.18385761       0.45260885       0.34493278 </v>
   <v>      -0.06632894       0.45231650       0.34482506 </v>
   <v>      -0.44067060       0.20301267       0.34465682 </v>
   <v>       0.43398960       0.45250664       0.34497087 </v>
   <v>       0.06570698       0.03826266      -0.12433780 </v>
   <v>      -0.31594087       0.45260567       0.34502953 </v>
   <v>      -0.44065504      -0.29758915       0.34501561 </v>
   <v>       0.18757095      -0.20411266      -0.12407167 </v>
   <v>      -0.06219698      -0.20546804      -0.12446281 </v>
   <v>       0.31439706       0.04035625      -0.12419360 </v>
   <v>      -0.18696272       0.04022226      -0.12424645 </v>
   <v>       0.18845131       0.29506557      -0.12403866 </v>
   <v>      -0.06455687       0.29664574      -0.12443052 </v>
   <v>       0.43660701      -0.20366029      -0.12397573 </v>
   <v>       0.06373500      -0.46053599      -0.12416486 </v>
   <v>      -0.31412287      -0.20368261      -0.12406998 </v>
   <v>       0.06646668       0.03798798       0.38908731 </v>
   <v>       0.43686305       0.29718124      -0.12377598 </v>
   <v>      -0.31389329       0.29813146      -0.12392991 </v>
   <v>       0.31368747      -0.46060381      -0.12397801 </v>
   <v>      -0.05875442      -0.21235517       0.38889831 </v>
   <v>       0.19318834      -0.21288785       0.38884842 </v>
   <v>      -0.18733658      -0.46100261      -0.12411252 </v>
   <v>      -0.18173152       0.03956210       0.38916598 </v>
   <v>      -0.05906761       0.28646303       0.38881308 </v>
   <v>       0.31595621       0.03729293       0.38888486 </v>
   <v>      -0.43676971       0.03978363      -0.12397341 </v>
   <v>       0.19088460       0.28742528       0.38890183 </v>
   <v>       0.06755669      -0.46136727       0.38907329 </v>
   <v>      -0.30864656      -0.21215331       0.38909329 </v>
   <v>       0.44158140      -0.21200023       0.38906893 </v>
   <v>      -0.30862132       0.28758399       0.38906819 </v>
   <v>       0.44151919       0.28758175       0.38912843 </v>
   <v>      -0.18361431      -0.46243036       0.38890555 </v>
   <v>       0.31587781      -0.46159728       0.38885587 </v>
   <v>      -0.43683678      -0.46048791      -0.12408730 </v>
   <v>      -0.43357318       0.03797917       0.38897250 </v>
   <v>      -0.05787487      -0.03614291      -0.16623757 </v>
   <v>       0.19130928      -0.03695159      -0.16641398 </v>
   <v>       0.06684601       0.21402530      -0.16610836 </v>
   <v>       0.06617990      -0.28430565      -0.16617398 </v>
   <v>      -0.18216909       0.21456013      -0.16643026 </v>
   <v>       0.31682598       0.21273527      -0.16645454 </v>
   <v>      -0.43343834      -0.46246213       0.38906953 </v>
   <v>      -0.18324936      -0.28508016      -0.16655230 </v>
   <v>      -0.30833691      -0.03802330      -0.16653157 </v>
   <v>       0.31749339      -0.28680396      -0.16680296 </v>
   <v>       0.44293403      -0.03744077      -0.16662477 </v>
   <v>      -0.05812279       0.46336635      -0.16632984 </v>
   <v>       0.19173570       0.46315101      -0.16650634 </v>
   <v>       0.06181939      -0.12864300       0.43429425 </v>
   <v>       0.18724059       0.12000801       0.43412848 </v>
   <v>      -0.43376635       0.21299170      -0.16673532 </v>
   <v>      -0.06318594       0.11947017       0.43446651 </v>
   <v>      -0.30791018       0.46218869      -0.16665177 </v>
   <v>       0.44222645       0.46260147      -0.16669843 </v>
   <v>      -0.43337006      -0.28669043      -0.16667252 </v>
   <v>      -0.18890738      -0.12894841       0.43418453 </v>
   <v>       0.31179274      -0.12949795       0.43443879 </v>
   <v>       0.06292674       0.37188447       0.43428999 </v>
   <v>       0.18694848      -0.38020488       0.43432726 </v>
   <v>      -0.06289475      -0.37978491       0.43441751 </v>
   <v>       0.43680603       0.12059337       0.43429887 </v>
   <v>      -0.31227598       0.12019732       0.43423282 </v>
   <v>      -0.18843320       0.37162076       0.43410227 </v>
   <v>       0.31224404       0.37052164       0.43440874 </v>
   <v>       0.43654311      -0.37897086       0.43424457 </v>
   <v>      -0.31174875      -0.37963617       0.43440070 </v>
   <v>      -0.43794835      -0.12915022       0.43432366 </v>
   <v>      -0.43825021       0.37123836       0.43419205 </v>
   <v>       0.05988580      -0.12640531      -0.21141067 </v>
   <v>       0.18466960       0.12273161      -0.21134640 </v>
   <v>      -0.06521817       0.12381550      -0.21128409 </v>
   <v>       0.31054539      -0.12748748      -0.21147922 </v>
   <v>      -0.19022862      -0.12662852      -0.21147600 </v>
   <v>       0.05990057       0.37385784      -0.21145974 </v>
   <v>       0.18521791      -0.37736025      -0.21141261 </v>
   <v>       0.43485597       0.12222465      -0.21105400 </v>
   <v>      -0.06571419      -0.37589366      -0.21149085 </v>
   <v>       0.30990782       0.37314998      -0.21122382 </v>
   <v>      -0.31667331       0.12267147      -0.21133431 </v>
   <v>      -0.19030963       0.37407320      -0.21142601 </v>
   <v>       0.43365552      -0.37723826      -0.21092880 </v>
   <v>      -0.44066903      -0.12678459      -0.21126668 </v>
   <v>      -0.31599650      -0.37710980      -0.21123646 </v>
   <v>      -0.06271846      -0.04479952       0.47857800 </v>
   <v>       0.18745441      -0.04394451       0.47869449 </v>
   <v>       0.06273152       0.20595648       0.47859188 </v>
   <v>      -0.44026040       0.37260494      -0.21121952 </v>
   <v>       0.06223173      -0.29436293       0.47835100 </v>
   <v>       0.31239220       0.20564867       0.47860117 </v>
   <v>      -0.18776216       0.20586988       0.47862107 </v>
   <v>       0.31208832      -0.29436894       0.47853551 </v>
   <v>      -0.18771474      -0.29440457       0.47848511 </v>
   <v>       0.43718769      -0.04442026       0.47852897 </v>
   <v>      -0.31256698      -0.04420051       0.47867145 </v>
   <v>      -0.06245449       0.45528503       0.47852433 </v>
   <v>       0.18738957       0.45551102       0.47856425 </v>
   <v>      -0.43776935       0.20577396       0.47859631 </v>
   <v>       0.43733991       0.45583410       0.47840006 </v>
   <v>      -0.31293238       0.45529883       0.47849971 </v>
   <v>      -0.43771162      -0.29453553       0.47842998 </v>
   <v>       0.06561676       0.04058075      -0.25561934 </v>
   <v>      -0.05934713      -0.20926461      -0.25534562 </v>
   <v>       0.18981808      -0.20849434      -0.25546426 </v>
   <v>      -0.18433539       0.04073982      -0.25558906 </v>
   <v>       0.31515583       0.04138935      -0.25565610 </v>
   <v>      -0.06035611       0.29071890      -0.25548408 </v>
   <v>       0.19053978       0.29091514      -0.25557507 </v>
   <v>       0.06504161      -0.45926660      -0.25549752 </v>
   <v>      -0.31012694      -0.20858235      -0.25547255 </v>
   <v>       0.43976020      -0.20820324      -0.25544553 </v>
   <v>      -0.30973104       0.29116481      -0.25559131 </v>
   <v>       0.43986643       0.29167557      -0.25547413 </v>
   <v>      -0.18429692      -0.45948841      -0.25558961 </v>
   <v>       0.31502784      -0.45878014      -0.25551822 </v>
   <v>      -0.43443184       0.04122766      -0.25558443 </v>
   <v>       0.06176152      -0.12880443      -0.47868650 </v>
   <v>       0.18665865       0.12162342      -0.47860094 </v>
   <v>      -0.06334661       0.12153640      -0.47861449 </v>
   <v>       0.31180922      -0.12866219      -0.47862499 </v>
   <v>      -0.18858616      -0.12867607      -0.47866672 </v>
   <v>       0.06132334       0.37192483      -0.47862339 </v>
   <v>      -0.43466312      -0.45872507      -0.25565445 </v>
   <v>       0.18668430      -0.37866032      -0.47864824 </v>
   <v>      -0.06339566      -0.37821871      -0.47864068 </v>
   <v>       0.43687379       0.12125284      -0.47862128 </v>
   <v>      -0.31326514       0.12160080      -0.47863576 </v>
   <v>       0.31149307       0.37129103      -0.47863087 </v>
   <v>      -0.18833386       0.37165957      -0.47864664 </v>
   <v>       0.43643286      -0.37846812      -0.47872524 </v>
   <v>      -0.31351772      -0.37880040      -0.47879097 </v>
   <v>      -0.43835771      -0.12836592      -0.47862495 </v>
   <v>      -0.43844082       0.37143464      -0.47864026 </v>
   <v>       0.18476406      -0.04299385      -0.29999417 </v>
   <v>      -0.06539139      -0.04242724      -0.30021059 </v>
   <v>       0.05996989       0.20705600      -0.30017927 </v>
   <v>       0.06010109      -0.29317255      -0.30012679 </v>
   <v>       0.31002351       0.20672653      -0.30009976 </v>
   <v>      -0.18973041       0.20711510      -0.30008642 </v>
   <v>       0.30988335      -0.29363135      -0.30014014 </v>
   <v>      -0.19008399      -0.29290030      -0.30012723 </v>
   <v>       0.43470116      -0.04307069      -0.30015346 </v>
   <v>      -0.31547979      -0.04325522      -0.30018326 </v>
   <v>       0.18495836       0.45779955      -0.30012012 </v>
   <v>      -0.06529313       0.45729373      -0.30019466 </v>
   <v>      -0.44013432       0.20676534      -0.30013111 </v>
   <v>       0.43487770       0.45692398      -0.30015633 </v>
   <v>      -0.31564214       0.45707948      -0.30018091 </v>
   <v>      -0.43989346      -0.29334626      -0.30017531 </v>
   <v>       0.18714672      -0.04280938      -0.43449484 </v>
   <v>      -0.06312667      -0.04244341      -0.43449535 </v>
   <v>       0.06228310       0.20760523      -0.43467134 </v>
   <v>       0.06225236      -0.29286226      -0.43442631 </v>
   <v>       0.31157552       0.20691456      -0.43444118 </v>
   <v>      -0.18855138       0.20749553      -0.43455113 </v>
   <v>       0.31164102      -0.29289935      -0.43448677 </v>
   <v>       0.43715799      -0.04247290      -0.43468368 </v>
   <v>      -0.18838488      -0.29284628      -0.43450208 </v>
   <v>      -0.31247598      -0.04335220      -0.43453074 </v>
   <v>       0.18751272       0.45719139      -0.43455882 </v>
   <v>      -0.06302657       0.45679274      -0.43443188 </v>
   <v>      -0.43765731       0.20698421      -0.43444743 </v>
   <v>      -0.31288550       0.45744391      -0.43457313 </v>
   <v>       0.43697438       0.45713824      -0.43443836 </v>
   <v>      -0.43757335      -0.29309760      -0.43447771 </v>
   <v>       0.06617209      -0.12575738      -0.34486400 </v>
   <v>      -0.05886269       0.12482296      -0.34480584 </v>
   <v>       0.19138743       0.12498873      -0.34479182 </v>
   <v>      -0.18347870      -0.12534861      -0.34482226 </v>
   <v>       0.31628122      -0.12580483      -0.34488330 </v>
   <v>       0.06617847       0.37424527      -0.34487970 </v>
   <v>       0.19131561      -0.37510191      -0.34478799 </v>
   <v>      -0.05857265      -0.37495777      -0.34493044 </v>
   <v>      -0.30871609       0.12486262      -0.34488018 </v>
   <v>      -0.18366067       0.37411666      -0.34483430 </v>
   <v>       0.44117507       0.12439589      -0.34494736 </v>
   <v>       0.31597822       0.37376368      -0.34493236 </v>
   <v>      -0.30887389      -0.37515230      -0.34474228 </v>
   <v>      -0.43389208      -0.12568243      -0.34487654 </v>
   <v>       0.44131043      -0.37517218      -0.34490651 </v>
   <v>      -0.43401955       0.37420852      -0.34485261 </v>
   <v>       0.05891277       0.03832979      -0.38908905 </v>
   <v>       0.18370520      -0.21118309      -0.38898046 </v>
   <v>      -0.06607789      -0.21178861      -0.38897150 </v>
   <v>       0.30880192       0.03853371      -0.38893354 </v>
   <v>      -0.19087373       0.03864284      -0.38897578 </v>
   <v>       0.18410598       0.28903422      -0.38892070 </v>
   <v>      -0.06607695       0.28854210      -0.38900281 </v>
   <v>       0.43393618      -0.21136430      -0.38897846 </v>
   <v>       0.05894109      -0.46144730      -0.38892785 </v>
   <v>       0.43402897       0.28869337      -0.38901446 </v>
   <v>      -0.31609165      -0.21155072      -0.38899016 </v>
   <v>      -0.31602087       0.28869927      -0.38896006 </v>
   <v>       0.30918807      -0.46107974      -0.38897509 </v>
   <v>      -0.19097305      -0.46135370      -0.38894636 </v>
   <v>      -0.44087112       0.03909870      -0.38887570 </v>
   <v>      -0.44116182      -0.46146609      -0.38892828 </v>
  </varray>
 </structure>
 <varray name="primitive_index" >
  <v type="int" >        1 </v>
  <v type="int" >      125 </v>
  <v type="int" >       83 </v>
  <v type="int" >       60 </v>
  <v type="int" >       44 </v>
  <v type="int" >      256 </v>
  <v type="int" >       26 </v>
  <v type="int" >      202 </v>
  <v type="int" >      111 </v>
  <v type="int" >      155 </v>
  <v type="int" >      210 </v>
  <v type="int" >       51 </v>
  <v type="int" >      102 </v>
  <v type="int" >      182 </v>
  <v type="int" >      212 </v>
  <v type="int" >       20 </v>
  <v type="int" >      108 </v>
  <v type="int" >      170 </v>
  <v type="int" >      146 </v>
  <v type="int" >      104 </v>
  <v type="int" >       50 </v>
  <v type="int" >      117 </v>
  <v type="int" >      176 </v>
  <v type="int" >      163 </v>
  <v type="int" >      284 </v>
  <v type="int" >      166 </v>
  <v type="int" >      145 </v>
  <v type="int" >      250 </v>
  <v type="int" >      167 </v>
  <v type="int" >       91 </v>
  <v type="int" >      114 </v>
  <v type="int" >      249 </v>
  <v type="int" >      205 </v>
  <v type="int" >      192 </v>
  <v type="int" >      213 </v>
  <v type="int" >      174 </v>
  <v type="int" >      276 </v>
  <v type="int" >       92 </v>
  <v type="int" >      229 </v>
  <v type="int" >       97 </v>
  <v type="int" >      189 </v>
  <v type="int" >      175 </v>
  <v type="int" >       30 </v>
  <v type="int" >      185 </v>
  <v type="int" >      200 </v>
  <v type="int" >      179 </v>
  <v type="int" >       52 </v>
  <v type="int" >      103 </v>
  <v type="int" >      283 </v>
  <v type="int" >       24 </v>
  <v type="int" >      112 </v>
  <v type="int" >      127 </v>
  <v type="int" >      261 </v>
  <v type="int" >      139 </v>
  <v type="int" >      288 </v>
  <v type="int" >      137 </v>
  <v type="int" >      168 </v>
  <v type="int" >      118 </v>
  <v type="int" >      265 </v>
  <v type="int" >       58 </v>
  <v type="int" >      275 </v>
  <v type="int" >      221 </v>
  <v type="int" >       81 </v>
  <v type="int" >      214 </v>
  <v type="int" >      135 </v>
  <v type="int" >      215 </v>
  <v type="int" >       72 </v>
  <v type="int" >       98 </v>
  <v type="int" >      226 </v>
  <v type="int" >       28 </v>
  <v type="int" >      178 </v>
  <v type="int" >      263 </v>
  <v type="int" >      109 </v>
  <v type="int" >      220 </v>
  <v type="int" >      242 </v>
  <v type="int" >      159 </v>
  <v type="int" >      130 </v>
  <v type="int" >      277 </v>
  <v type="int" >      101 </v>
  <v type="int" >      171 </v>
  <v type="int" >      258 </v>
  <v type="int" >      194 </v>
  <v type="int" >       47 </v>
  <v type="int" >      216 </v>
  <v type="int" >       86 </v>
  <v type="int" >      207 </v>
  <v type="int" >      208 </v>
  <v type="int" >      172 </v>
  <v type="int" >       73 </v>
  <v type="int" >       25 </v>
  <v type="int" >      116 </v>
  <v type="int" >       12 </v>
  <v type="int" >      219 </v>
  <v type="int" >      206 </v>
  <v type="int" >      282 </v>
  <v type="int" >       48 </v>
  <v type="int" >      164 </v>
  <v type="int" >      268 </v>
  <v type="int" >      281 </v>
  <v type="int" >      245 </v>
  <v type="int" >       14 </v>
  <v type="int" >      120 </v>
  <v type="int" >      280 </v>
  <v type="int" >      150 </v>
  <v type="int" >      266 </v>
  <v type="int" >       29 </v>
  <v type="int" >      124 </v>
  <v type="int" >      255 </v>
  <v type="int" >      191 </v>
  <v type="int" >       18 </v>
  <v type="int" >      190 </v>
  <v type="int" >      287 </v>
  <v type="int" >      231 </v>
  <v type="int" >      279 </v>
  <v type="int" >       13 </v>
  <v type="int" >      165 </v>
  <v type="int" >      161 </v>
  <v type="int" >      248 </v>
  <v type="int" >      273 </v>
  <v type="int" >       45 </v>
  <v type="int" >      264 </v>
  <v type="int" >       84 </v>
  <v type="int" >        4 </v>
  <v type="int" >      123 </v>
  <v type="int" >       67 </v>
  <v type="int" >       64 </v>
  <v type="int" >       16 </v>
  <v type="int" >       17 </v>
  <v type="int" >        7 </v>
  <v type="int" >      259 </v>
  <v type="int" >      134 </v>
  <v type="int" >        6 </v>
  <v type="int" >       39 </v>
  <v type="int" >      222 </v>
  <v type="int" >      253 </v>
  <v type="int" >       88 </v>
  <v type="int" >        5 </v>
  <v type="int" >      110 </v>
  <v type="int" >       36 </v>
  <v type="int" >      181 </v>
  <v type="int" >      285 </v>
  <v type="int" >      160 </v>
  <v type="int" >      143 </v>
  <v type="int" >      158 </v>
  <v type="int" >       82 </v>
  <v type="int" >       74 </v>
  <v type="int" >      241 </v>
  <v type="int" >      235 </v>
  <v type="int" >       23 </v>
  <v type="int" >      218 </v>
  <v type="int" >      238 </v>
  <v type="int" >      131 </v>
  <v type="int" >      201 </v>
  <v type="int" >      257 </v>
  <v type="int" >       80 </v>
  <v type="int" >      113 </v>
  <v type="int" >      278 </v>
  <v type="int" >      232 </v>
  <v type="int" >       69 </v>
  <v type="int" >      251 </v>
  <v type="int" >      197 </v>
  <v type="int" >        3 </v>
  <v type="int" >      149 </v>
  <v type="int" >      224 </v>
  <v type="int" >       55 </v>
  <v type="int" >      254 </v>
  <v type="int" >      272 </v>
  <v type="int" >       49 </v>
  <v type="int" >      132 </v>
  <v type="int" >      138 </v>
  <v type="int" >      188 </v>
  <v type="int" >       57 </v>
  <v type="int" >      184 </v>
  <v type="int" >       33 </v>
  <v type="int" >       66 </v>
  <v type="int" >      236 </v>
  <v type="int" >       94 </v>
  <v type="int" >      223 </v>
  <v type="int" >      106 </v>
  <v type="int" >      157 </v>
  <v type="int" >      230 </v>
  <v type="int" >       21 </v>
  <v type="int" >       99 </v>
  <v type="int" >      234 </v>
  <v type="int" >      105 </v>
  <v type="int" >       75 </v>
  <v type="int" >      269 </v>
  <v type="int" >      244 </v>
  <v type="int" >      237 </v>
  <v type="int" >      156 </v>
  <v type="int" >      199 </v>
  <v type="int" >      169 </v>
  <v type="int" >        9 </v>
  <v type="int" >       46 </v>
  <v type="int" >      262 </v>
  <v type="int" >      151 </v>
  <v type="int" >      239 </v>
  <v type="int" >      187 </v>
  <v type="int" >       11 </v>
  <v type="int" >      211 </v>
  <v type="int" >       43 </v>
  <v type="int" >       31 </v>
  <v type="int" >       19 </v>
  <v type="int" >       71 </v>
  <v type="int" >       87 </v>
  <v type="int" >      243 </v>
  <v type="int" >      267 </v>
  <v type="int" >       27 </v>
  <v type="int" >      140 </v>
  <v type="int" >      286 </v>
  <v type="int" >      144 </v>
  <v type="int" >       10 </v>
  <v type="int" >      107 </v>
  <v type="int" >      270 </v>
  <v type="int" >       68 </v>
  <v type="int" >      203 </v>
  <v type="int" >      119 </v>
  <v type="int" >       34 </v>
  <v type="int" >      183 </v>
  <v type="int" >      177 </v>
  <v type="int" >      252 </v>
  <v type="int" >      195 </v>
  <v type="int" >       77 </v>
  <v type="int" >      247 </v>
  <v type="int" >      173 </v>
  <v type="int" >      225 </v>
  <v type="int" >       37 </v>
  <v type="int" >      274 </v>
  <v type="int" >       63 </v>
  <v type="int" >      233 </v>
  <v type="int" >      154 </v>
  <v type="int" >      141 </v>
  <v type="int" >       38 </v>
  <v type="int" >       54 </v>
  <v type="int" >      246 </v>
  <v type="int" >      152 </v>
  <v type="int" >       53 </v>
  <v type="int" >      193 </v>
  <v type="int" >       76 </v>
  <v type="int" >      133 </v>
  <v type="int" >      162 </v>
  <v type="int" >      129 </v>
  <v type="int" >       62 </v>
  <v type="int" >       65 </v>
  <v type="int" >       93 </v>
  <v type="int" >      271 </v>
  <v type="int" >       90 </v>
  <v type="int" >       56 </v>
  <v type="int" >       32 </v>
  <v type="int" >       95 </v>
  <v type="int" >       59 </v>
  <v type="int" >       42 </v>
  <v type="int" >        8 </v>
  <v type="int" >      228 </v>
  <v type="int" >       70 </v>
  <v type="int" >      186 </v>
  <v type="int" >      196 </v>
  <v type="int" >      122 </v>
  <v type="int" >      121 </v>
  <v type="int" >       79 </v>
  <v type="int" >        2 </v>
  <v type="int" >      198 </v>
  <v type="int" >      153 </v>
  <v type="int" >      240 </v>
  <v type="int" >      209 </v>
  <v type="int" >       35 </v>
  <v type="int" >      204 </v>
  <v type="int" >       85 </v>
  <v type="int" >      227 </v>
  <v type="int" >       89 </v>
  <v type="int" >       40 </v>
  <v type="int" >       78 </v>
  <v type="int" >      142 </v>
  <v type="int" >       15 </v>
  <v type="int" >      136 </v>
  <v type="int" >      148 </v>
  <v type="int" >      217 </v>
  <v type="int" >       61 </v>
  <v type="int" >      100 </v>
  <v type="int" >       96 </v>
  <v type="int" >      126 </v>
  <v type="int" >      115 </v>
  <v type="int" >      180 </v>
  <v type="int" >      147 </v>
  <v type="int" >       41 </v>
  <v type="int" >       22 </v>
  <v type="int" >      260 </v>
  <v type="int" >      128 </v>
 </varray>
 <kpoints>
  <generation param="Gamma">
   <v type="int" name="divisions">       4        4        1 </v>
   <v name="usershift">      0.00000000       0.00000000       0.00000000 </v>
   <v name="genvec1">      0.25000000       0.00000000       0.00000000 </v>
   <v name="genvec2">      0.00000000       0.25000000       0.00000000 </v>
   <v name="genvec3">      0.00000000       0.00000000       1.00000000 </v>
   <v name="shift">      0.00000000       0.00000000       0.00000000 </v>
  </generation>
  <varray name="kpointlist" >
   <v>       0.00000000       0.00000000       0.00000000 </v>
   <v>       0.25000000       0.00000000       0.00000000 </v>
   <v>       0.50000000       0.00000000       0.00000000 </v>
   <v>       0.00000000       0.25000000       0.00000000 </v>
   <v>       0.25000000       0.25000000       0.00000000 </v>
   <v>       0.50000000       0.25000000       0.00000000 </v>
   <v>      -0.25000000       0.25000000       0.00000000 </v>
   <v>       0.00000000       0.50000000       0.00000000 </v>
   <v>       0.25000000       0.50000000       0.00000000 </v>
   <v>       0.50000000       0.50000000       0.00000000 </v>
  </varray>
  <varray name="weights" >
   <v>       0.06250000 </v>
   <v>       0.12500000 </v>
   <v>       0.06250000 </v>
   <v>       0.12500000 </v>
   <v>       0.12500000 </v>
   <v>       0.12500000 </v>
   <v>       0.12500000 </v>
   <v>       0.06250000 </v>
   <v>       0.12500000 </v>
   <v>       0.06250000 </v>
  </varray>
 </kpoints>
 <parameters>
  <separator name="general" >
   <i type="string" name="SYSTEM">unknown system</i>
   <i type="logical" name="LCOMPAT"> F  </i>
  </separator>
  <separator name="electronic" >
   <i type="string" name="PREC">accura</i>
   <i name="ENMAX">    450.00000000</i>
   <i name="ENAUG">    838.43500000</i>
   <i name="EDIFF">      0.00000100</i>
   <i type="int" name="IALGO">    68</i>
   <i type="int" name="IWAVPR">    11</i>
   <i type="int" name="NBANDS">  1386</i>
   <i name="NELECT">   2290.00000000</i>
   <i type="int" name="TURBO">     0</i>
   <i type="int" name="IRESTART">     0</i>
   <i type="int" name="NREBOOT">     0</i>
   <i type="int" name="NMIN">     0</i>
   <i name="EREF">      0.00000000</i>
   <separator name="electronic smearing" >
    <i type="int" name="ISMEAR">     0</i>
    <i name="SIGMA">      0.15000000</i>
    <i name="KSPACING">      0.50000000</i>
    <i type="logical" name="KGAMMA"> T  </i>
   </separator>
   <separator name="electronic projectors" >
    <i type="logical" name="LREAL"> T  </i>
    <v name="ROPT">     -0.00025000     -0.00025000</v>
    <i type="int" name="LMAXPAW">  -100</i>
    <i type="int" name="LMAXMIX">     2</i>
    <i type="logical" name="NLSPLINE"> F  </i>
   </separator>
   <separator name="electronic startup" >
    <i type="int" name="ISTART">     0</i>
    <i type="int" name="ICHARG">     2</i>
    <i type="int" name="INIWAV">     1</i>
   </separator>
   <separator name="electronic spin" >
    <i type="int" name="ISPIN">     1</i>
    <i type="logical" name="LNONCOLLINEAR"> F  </i>
    <v name="MAGMOM">      1.00000000      1.00000000      1.00000000      1.00000000      1.00000000      1.00000000      1.00000000      1.00000000      1.00000000      1.00000000      1.00000000      1.00000000      1.00000000      1.00000000      1.00000000      1.00000000      1.00000000      1.00000000      1.00000000      1.00000000
      1.00000000      1.00000000      1.00000000      1.00000000      1.00000000      1.00000000      1.00000000      1.00000000      1.00000000      1.00000000      1.00000000      1.00000000      1.00000000      1.00000000      1.00000000      1.00000000      1.00000000      1.00000000      1.00000000      1.00000000
      1.00000000      1.00000000      1.00000000      1.00000000      1.00000000      1.00000000      1.00000000      1.00000000      1.00000000      1.00000000      1.00000000      1.00000000      1.00000000      1.00000000      1.00000000      1.00000000      1.00000000      1.00000000      1.00000000      1.00000000
      1.00000000      1.00000000      1.00000000      1.00000000      1.00000000      1.00000000      1.00000000      1.00000000      1.00000000      1.00000000      1.00000000      1.00000000      1.00000000      1.00000000      1.00000000      1.00000000      1.00000000      1.00000000      1.00000000      1.00000000
      1.00000000      1.00000000      1.00000000      1.00000000      1.00000000      1.00000000      1.00000000      1.00000000      1.00000000      1.00000000      1.00000000      1.00000000      1.00000000      1.00000000      1.00000000      1.00000000      1.00000000      1.00000000      1.00000000      1.00000000
      1.00000000      1.00000000      1.00000000      1.00000000      1.00000000      1.00000000      1.00000000      1.00000000      1.00000000      1.00000000      1.00000000      1.00000000      1.00000000      1.00000000      1.00000000      1.00000000      1.00000000      1.00000000      1.00000000      1.00000000
      1.00000000      1.00000000      1.00000000      1.00000000      1.00000000      1.00000000      1.00000000      1.00000000      1.00000000      1.00000000      1.00000000      1.00000000      1.00000000      1.00000000      1.00000000      1.00000000      1.00000000      1.00000000      1.00000000      1.00000000
      1.00000000      1.00000000      1.00000000      1.00000000      1.00000000      1.00000000      1.00000000      1.00000000      1.00000000      1.00000000      1.00000000      1.00000000      1.00000000      1.00000000      1.00000000      1.00000000      1.00000000      1.00000000      1.00000000      1.00000000
      1.00000000      1.00000000      1.00000000      1.00000000      1.00000000      1.00000000      1.00000000      1.00000000      1.00000000      1.00000000      1.00000000      1.00000000      1.00000000      1.00000000      1.00000000      1.00000000      1.00000000      1.00000000      1.00000000      1.00000000
      1.00000000      1.00000000      1.00000000      1.00000000      1.00000000      1.00000000      1.00000000      1.00000000      1.00000000      1.00000000      1.00000000      1.00000000      1.00000000      1.00000000      1.00000000      1.00000000      1.00000000      1.00000000      1.00000000      1.00000000
      1.00000000      1.00000000      1.00000000      1.00000000      1.00000000      1.00000000      1.00000000      1.00000000      1.00000000      1.00000000      1.00000000      1.00000000      1.00000000      1.00000000      1.00000000      1.00000000      1.00000000      1.00000000      1.00000000      1.00000000
      1.00000000      1.00000000      1.00000000      1.00000000      1.00000000      1.00000000      1.00000000      1.00000000      1.00000000      1.00000000      1.00000000      1.00000000      1.00000000      1.00000000      1.00000000      1.00000000      1.00000000      1.00000000      1.00000000      1.00000000
      1.00000000      1.00000000      1.00000000      1.00000000      1.00000000      1.00000000      1.00000000      1.00000000      1.00000000      1.00000000      1.00000000      1.00000000      1.00000000      1.00000000      1.00000000      1.00000000      1.00000000      1.00000000      1.00000000      1.00000000
      1.00000000      1.00000000      1.00000000      1.00000000      1.00000000      1.00000000      1.00000000      1.00000000      1.00000000      1.00000000      1.00000000      1.00000000      1.00000000      1.00000000      1.00000000      1.00000000      1.00000000      1.00000000      1.00000000      1.00000000
      1.00000000      1.00000000      1.00000000      1.00000000      1.00000000      1.00000000      1.00000000      1.00000000</v>
    <i name="NUPDOWN">     -1.00000000</i>
    <i type="logical" name="LSORBIT"> F  </i>
    <v name="SAXIS">      0.00000000      0.00000000      1.00000000</v>
    <i type="logical" name="LSPIRAL"> F  </i>
    <v name="QSPIRAL">      0.00000000      0.00000000      0.00000000</v>
    <i type="logical" name="LZEROZ"> F  </i>
   </separator>
   <separator name="electronic exchange-correlation" >
    <i type="logical" name="LASPH"> F  </i>
    <i type="logical" name="LMETAGGA"> F  </i>
   </separator>
   <separator name="electronic convergence" >
    <i type="int" name="NELM">   100</i>
    <i type="int" name="NELMDL">     0</i>
    <i type="int" name="NELMIN">     4</i>
    <i name="ENINI">    450.00000000</i>
    <separator name="electronic convergence detail" >
     <i type="logical" name="LDIAG"> T  </i>
     <i type="logical" name="LSUBROT"> F  </i>
     <i name="WEIMIN">      0.00100000</i>
     <i name="EBREAK">      0.00000000</i>
     <i name="DEPER">      0.30000000</i>
     <i type="int" name="NRMM">     4</i>
     <i name="TIME">      0.40000000</i>
    </separator>
   </separator>
   <separator name="electronic mixer" >
    <i name="AMIX">      0.40000000</i>
    <i name="BMIX">      1.00000000</i>
    <i name="AMIN">      0.10000000</i>
    <i name="AMIX_MAG">      1.60000000</i>
    <i name="BMIX_MAG">      1.00000000</i>
    <separator name="electronic mixer details" >
     <i type="int" name="IMIX">     4</i>
     <i type="logical" name="MIXFIRST"> F  </i>
     <i type="int" name="MAXMIX">   -45</i>
     <i name="WC">    100.00000000</i>
     <i type="int" name="INIMIX">     1</i>
     <i type="int" name="MIXPRE">     1</i>
     <i type="int" name="MREMOVE">     5</i>
    </separator>
   </separator>
   <separator name="electronic dipolcorrection" >
    <i type="logical" name="LDIPOL"> F  </i>
    <i type="logical" name="LMONO"> F  </i>
    <i type="int" name="IDIPOL">     0</i>
    <i name="EPSILON">      1.00000000</i>
    <v name="DIPOL">   -100.00000000   -100.00000000   -100.00000000</v>
    <i name="EFIELD">      0.00000000</i>
   </separator>
  </separator>
  <separator name="grids" >
   <i type="int" name="NGX">    70</i>
   <i type="int" name="NGY">    60</i>
   <i type="int" name="NGZ">   320</i>
   <i type="int" name="NGXF">   140</i>
   <i type="int" name="NGYF">   120</i>
   <i type="int" name="NGZF">   640</i>
   <i type="logical" name="ADDGRID"> F  </i>
  </separator>
  <separator name="ionic" >
   <i type="int" name="NSW">     5</i>
   <i type="int" name="IBRION">     2</i>
   <i type="int" name="MDALGO">     0</i>
   <i type="int" name="ISIF">     2</i>
   <i name="PSTRESS">      0.00000000</i>
   <i name="EDIFFG">      0.00001000</i>
   <i type="int" name="NFREE">     1</i>
   <i name="POTIM">      0.25000000</i>
   <i name="SMASS">     -3.00000000</i>
   <i name="SCALEE">      1.00000000</i>
  </separator>
  <separator name="ionic md" >
   <i name="TEBEG">      0.00010000</i>
   <i name="TEEND">      0.00010000</i>
   <i type="int" name="NBLOCK">     1</i>
   <i type="int" name="KBLOCK">     5</i>
   <i type="int" name="NPACO">   256</i>
   <i name="APACO">     16.00000000</i>
  </separator>
  <separator name="symmetry" >
   <i type="int" name="ISYM">     2</i>
   <i name="SYMPREC">      0.00001000</i>
  </separator>
  <separator name="dos" >
   <i type="int" name="LORBIT">     0</i>
   <v name="RWIGS">     -1.00000000     -1.00000000</v>
   <i type="int" name="NEDOS">   301</i>
   <i name="EMIN">     10.00000000</i>
   <i name="EMAX">    -10.00000000</i>
   <i name="EFERMI">      0.00000000</i>
  </separator>
  <separator name="writing" >
   <i type="int" name="NWRITE">     2</i>
   <i type="logical" name="LWAVE"> F  </i>
   <i type="logical" name="LDOWNSAMPLE"> F  </i>
   <i type="logical" name="LCHARG"> F  </i>
   <i type="logical" name="LPARD"> F  </i>
   <i type="logical" name="LVTOT"> F  </i>
   <i type="logical" name="LVHAR"> F  </i>
   <i type="logical" name="LELF"> F  </i>
   <i type="logical" name="LOPTICS"> F  </i>
   <v name="STM">      0.00000000      0.00000000      0.00000000      0.00000000      0.00000000      0.00000000      0.00000000</v>
  </separator>
  <separator name="performance" >
   <i type="int" name="NPAR">    14</i>
   <i type="int" name="NSIM">     4</i>
   <i type="int" name="NBLK">    -1</i>
   <i type="logical" name="LPLANE"> T  </i>
   <i type="logical" name="LSCALAPACK"> T  </i>
   <i type="logical" name="LSCAAWARE"> T  </i>
   <i type="logical" name="LSCALU"> F  </i>
   <i type="logical" name="LASYNC"> F  </i>
   <i type="logical" name="LORBITALREAL"> F  </i>
  </separator>
  <separator name="miscellaneous" >
   <i type="int" name="IDIOT">     3</i>
   <i type="int" name="ISPECIAL">     0</i>
   <i type="logical" name="LMUSIC"> F  </i>
   <v name="POMASS">     55.84700000     54.93800000</v>
   <v name="DARWINR">      0.00000000      0.00000000</v>
   <v name="DARWINV">      1.00000000      1.00000000</v>
   <i type="logical" name="LCORR"> T  </i>
  </separator>
  <i type="logical" name="GGA_COMPAT"> T  </i>
  <i type="logical" name="LBERRY"> F  </i>
  <i type="int" name="ICORELEVEL">     0</i>
  <i type="logical" name="LDAU"> F  </i>
  <i type="int" name="I_CONSTRAINED_M">     0</i>
  <separator name="electronic exchange-correlation" >
   <i type="string" name="GGA">--</i>
   <i type="int" name="VOSKOWN">     0</i>
   <i type="logical" name="LHFCALC"> F  </i>
   <i type="string" name="PRECFOCK"></i>
   <i type="logical" name="LSYMGRAD"> F  </i>
   <i type="logical" name="LHFONE"> F  </i>
   <i type="logical" name="LRHFCALC"> F  </i>
   <i type="logical" name="LTHOMAS"> F  </i>
   <i type="logical" name="LMODELHF"> F  </i>
   <i name="ENCUT4O">     -1.00000000</i>
   <i type="int" name="EXXOEP">     0</i>
   <i type="int" name="FOURORBIT">     0</i>
   <i name="AEXX">      0.00000000</i>
   <i name="HFALPHA">      0.00000000</i>
   <i name="MCALPHA">      0.00000000</i>
   <i name="ALDAX">      1.00000000</i>
   <i name="AGGAX">      1.00000000</i>
   <i name="ALDAC">      1.00000000</i>
   <i name="AGGAC">      1.00000000</i>
   <i type="int" name="NKREDX">     1</i>
   <i type="int" name="NKREDY">     1</i>
   <i type="int" name="NKREDZ">     1</i>
   <i type="logical" name="SHIFTRED"> F  </i>
   <i type="logical" name="ODDONLY"> F  </i>
   <i type="logical" name="EVENONLY"> F  </i>
   <i type="int" name="LMAXFOCK">     0</i>
   <i type="int" name="NMAXFOCKAE">     0</i>
   <i type="logical" name="LFOCKAEDFT"> F  </i>
   <i name="HFSCREEN">      0.00000000</i>
   <i name="HFSCREENC">      0.00000000</i>
   <i type="int" name="NBANDSGWLOW">     0</i>
  </separator>
  <separator name="vdW DFT" >
   <i type="logical" name="LUSE_VDW"> F  </i>
   <i name="Zab_VDW">     -0.84910000</i>
   <i name="PARAM1">      0.12340000</i>
   <i name="PARAM2">      1.00000000</i>
   <i name="PARAM3">      0.00000000</i>
  </separator>
  <separator name="model GW" >
   <i type="int" name="MODEL_GW">     0</i>
   <i name="MODEL_EPS0">      7.68123389</i>
   <i name="MODEL_ALPHA">      1.00000000</i>
  </separator>
  <separator name="linear response parameters" >
   <i type="logical" name="LEPSILON"> F  </i>
   <i type="logical" name="LRPA"> F  </i>
   <i type="logical" name="LNABLA"> F  </i>
   <i type="logical" name="LVEL"> F  </i>
   <i type="int" name="KINTER">     0</i>
   <i name="CSHIFT">      0.10000000</i>
   <i name="OMEGAMAX">     -1.00000000</i>
   <i name="DEG_THRESHOLD">      0.00200000</i>
   <i name="RTIME">     -0.10000000</i>
   <i name="WPLASMAI">      0.00000000</i>
   <v name="DFIELD">      0.00000000      0.00000000      0.00000000</v>
   <v name="WPLASMA">      0.00000000      0.00000000      0.00000000      0.00000000      0.00000000      0.00000000      0.00000000      0.00000000      0.00000000</v>
  </separator>
  <separator name="orbital magnetization" >
   <i type="logical" name="NUCIND"> F  </i>
   <v name="MAGPOS">      0.00000000      0.00000000      0.00000000</v>
   <i type="logical" name="LNICSALL"> T  </i>
   <i type="logical" name="ORBITALMAG"> F  </i>
   <i type="logical" name="LMAGBLOCH"> F  </i>
   <i type="logical" name="LCHIMAG"> F  </i>
   <i type="logical" name="LGAUGE"> T  </i>
   <i type="int" name="MAGATOM">     0</i>
   <v name="MAGDIPOL">      0.00000000      0.00000000      0.00000000</v>
   <v name="AVECCONST">      0.00000000      0.00000000      0.00000000</v>
  </separator>
  <separator name="response functions" >
   <i type="logical" name="LADDER"> F  </i>
   <i type="logical" name="LRPAFORCE"> F  </i>
   <i type="logical" name="LFXC"> F  </i>
   <i type="logical" name="LHARTREE"> T  </i>
   <i type="int" name="IBSE">     0</i>
   <v type="int" name="KPOINT">    -1     0     0     0</v>
   <i type="logical" name="LTCTE"> F  </i>
   <i type="logical" name="LTETE"> F  </i>
   <i type="logical" name="LTRIPLET"> F  </i>
   <i type="logical" name="LFXCEPS"> F  </i>
   <i type="logical" name="LFXHEG"> F  </i>
   <i type="int" name="NATURALO">     2</i>
   <i type="logical" name="L2ORDER"> F  </i>
   <i type="logical" name="LMP2LT"> F  </i>
   <i type="logical" name="LUSEW"> F  </i>
   <i name="ENCUTGW">     -2.00000000</i>
   <i name="ENCUTGWSOFT">     -2.00000000</i>
   <i name="ENCUTLF">     -1.00000000</i>
   <i type="int" name="LMAXMP2">    -1</i>
   <i name="SCISSOR">      0.00000000</i>
   <i type="int" name="NOMEGA">     0</i>
   <i type="int" name="NOMEGAR">     0</i>
   <i type="int" name="NBANDSGW">    -1</i>
   <i type="int" name="NBANDSO">    -1</i>
   <i type="int" name="NBANDSV">    -1</i>
   <i type="int" name="NELM">   100</i>
   <i type="int" name="NELMHF">     1</i>
   <i type="int" name="DIM">     3</i>
   <i type="int" name="ANTIRES">     0</i>
   <i name="OMEGAMAX">    -30.00000000</i>
   <i name="OMEGAMIN">    -30.00000000</i>
   <i name="OMEGATL">   -200.00000000</i>
   <i type="int" name="OMEGAGRID">   140</i>
   <i name="CSHIFT">     -0.10000000</i>
   <i type="logical" name="SELFENERGY"> F  </i>
   <i type="logical" name="LSPECTRAL"> F  </i>
   <i type="logical" name="LSPECTRALGW"> F  </i>
   <i type="logical" name="LSINGLES"> F  </i>
   <i type="logical" name="LFERMIGW"> F  </i>
   <i type="logical" name="ODDONLYGW"> F  </i>
   <i type="logical" name="EVENONLYGW"> F  </i>
   <i type="int" name="NKREDLFX">     1</i>
   <i type="int" name="NKREDLFY">     1</i>
   <i type="int" name="NKREDLFZ">     1</i>
   <i type="int" name="MAXMEM">  2800</i>
   <i type="int" name="TELESCOPE">     0</i>
   <i type="int" name="TAUPAR">     1</i>
   <i type="int" name="OMEGAPAR">    -1</i>
   <i name="LAMBDA">      1.00000000</i>
  </separator>
  <separator name="External order field" >
   <i name="OFIELD_KAPPA">      0.00000000</i>
   <v name="OFIELD_K">      0.00000000      0.00000000      0.00000000</v>
   <i name="OFIELD_Q6_NEAR">      0.00000000</i>
   <i name="OFIELD_Q6_FAR">      0.00000000</i>
   <i name="OFIELD_A">      0.00000000</i>
  </separator>
 </parameters>
 <atominfo>
  <atoms>     288 </atoms>
  <types>       2 </types>
  <array name="atoms" >
   <dimension dim="1">ion</dimension>
   <field type="string">element</field>
   <field type="int">atomtype</field>
   <set>
    <rc><c>Fe</c><c>   1</c></rc>
    <rc><c>Fe</c><c>   1</c></rc>
    <rc><c>Fe</c><c>   1</c></rc>
    <rc><c>Fe</c><c>   1</c></rc>
    <rc><c>Fe</c><c>   1</c></rc>
    <rc><c>Fe</c><c>   1</c></rc>
    <rc><c>Fe</c><c>   1</c></rc>
    <rc><c>Fe</c><c>   1</c></rc>
    <rc><c>Fe</c><c>   1</c></rc>
    <rc><c>Fe</c><c>   1</c></rc>
    <rc><c>Fe</c><c>   1</c></rc>
    <rc><c>Fe</c><c>   1</c></rc>
    <rc><c>Fe</c><c>   1</c></rc>
    <rc><c>Fe</c><c>   1</c></rc>
    <rc><c>Fe</c><c>   1</c></rc>
    <rc><c>Fe</c><c>   1</c></rc>
    <rc><c>Fe</c><c>   1</c></rc>
    <rc><c>Fe</c><c>   1</c></rc>
    <rc><c>Fe</c><c>   1</c></rc>
    <rc><c>Fe</c><c>   1</c></rc>
    <rc><c>Fe</c><c>   1</c></rc>
    <rc><c>Fe</c><c>   1</c></rc>
    <rc><c>Fe</c><c>   1</c></rc>
    <rc><c>Fe</c><c>   1</c></rc>
    <rc><c>Fe</c><c>   1</c></rc>
    <rc><c>Fe</c><c>   1</c></rc>
    <rc><c>Fe</c><c>   1</c></rc>
    <rc><c>Fe</c><c>   1</c></rc>
    <rc><c>Fe</c><c>   1</c></rc>
    <rc><c>Fe</c><c>   1</c></rc>
    <rc><c>Fe</c><c>   1</c></rc>
    <rc><c>Fe</c><c>   1</c></rc>
    <rc><c>Fe</c><c>   1</c></rc>
    <rc><c>Fe</c><c>   1</c></rc>
    <rc><c>Fe</c><c>   1</c></rc>
    <rc><c>Fe</c><c>   1</c></rc>
    <rc><c>Fe</c><c>   1</c></rc>
    <rc><c>Fe</c><c>   1</c></rc>
    <rc><c>Fe</c><c>   1</c></rc>
    <rc><c>Fe</c><c>   1</c></rc>
    <rc><c>Fe</c><c>   1</c></rc>
    <rc><c>Fe</c><c>   1</c></rc>
    <rc><c>Fe</c><c>   1</c></rc>
    <rc><c>Fe</c><c>   1</c></rc>
    <rc><c>Fe</c><c>   1</c></rc>
    <rc><c>Fe</c><c>   1</c></rc>
    <rc><c>Fe</c><c>   1</c></rc>
    <rc><c>Fe</c><c>   1</c></rc>
    <rc><c>Fe</c><c>   1</c></rc>
    <rc><c>Fe</c><c>   1</c></rc>
    <rc><c>Fe</c><c>   1</c></rc>
    <rc><c>Fe</c><c>   1</c></rc>
    <rc><c>Fe</c><c>   1</c></rc>
    <rc><c>Fe</c><c>   1</c></rc>
    <rc><c>Fe</c><c>   1</c></rc>
    <rc><c>Fe</c><c>   1</c></rc>
    <rc><c>Fe</c><c>   1</c></rc>
    <rc><c>Fe</c><c>   1</c></rc>
    <rc><c>Fe</c><c>   1</c></rc>
    <rc><c>Fe</c><c>   1</c></rc>
    <rc><c>Fe</c><c>   1</c></rc>
    <rc><c>Fe</c><c>   1</c></rc>
    <rc><c>Fe</c><c>   1</c></rc>
    <rc><c>Fe</c><c>   1</c></rc>
    <rc><c>Fe</c><c>   1</c></rc>
    <rc><c>Fe</c><c>   1</c></rc>
    <rc><c>Fe</c><c>   1</c></rc>
    <rc><c>Fe</c><c>   1</c></rc>
    <rc><c>Fe</c><c>   1</c></rc>
    <rc><c>Fe</c><c>   1</c></rc>
    <rc><c>Fe</c><c>   1</c></rc>
    <rc><c>Fe</c><c>   1</c></rc>
    <rc><c>Fe</c><c>   1</c></rc>
    <rc><c>Fe</c><c>   1</c></rc>
    <rc><c>Fe</c><c>   1</c></rc>
    <rc><c>Fe</c><c>   1</c></rc>
    <rc><c>Fe</c><c>   1</c></rc>
    <rc><c>Fe</c><c>   1</c></rc>
    <rc><c>Fe</c><c>   1</c></rc>
    <rc><c>Fe</c><c>   1</c></rc>
    <rc><c>Fe</c><c>   1</c></rc>
    <rc><c>Fe</c><c>   1</c></rc>
    <rc><c>Fe</c><c>   1</c></rc>
    <rc><c>Fe</c><c>   1</c></rc>
    <rc><c>Fe</c><c>   1</c></rc>
    <rc><c>Fe</c><c>   1</c></rc>
    <rc><c>Fe</c><c>   1</c></rc>
    <rc><c>Fe</c><c>   1</c></rc>
    <rc><c>Fe</c><c>   1</c></rc>
    <rc><c>Fe</c><c>   1</c></rc>
    <rc><c>Fe</c><c>   1</c></rc>
    <rc><c>Fe</c><c>   1</c></rc>
    <rc><c>Fe</c><c>   1</c></rc>
    <rc><c>Fe</c><c>   1</c></rc>
    <rc><c>Fe</c><c>   1</c></rc>
    <rc><c>Fe</c><c>   1</c></rc>
    <rc><c>Fe</c><c>   1</c></rc>
    <rc><c>Fe</c><c>   1</c></rc>
    <rc><c>Fe</c><c>   1</c></rc>
    <rc><c>Fe</c><c>   1</c></rc>
    <rc><c>Fe</c><c>   1</c></rc>
    <rc><c>Fe</c><c>   1</c></rc>
    <rc><c>Fe</c><c>   1</c></rc>
    <rc><c>Fe</c><c>   1</c></rc>
    <rc><c>Fe</c><c>   1</c></rc>
    <rc><c>Fe</c><c>   1</c></rc>
    <rc><c>Fe</c><c>   1</c></rc>
    <rc><c>Fe</c><c>   1</c></rc>
    <rc><c>Fe</c><c>   1</c></rc>
    <rc><c>Fe</c><c>   1</c></rc>
    <rc><c>Fe</c><c>   1</c></rc>
    <rc><c>Fe</c><c>   1</c></rc>
    <rc><c>Fe</c><c>   1</c></rc>
    <rc><c>Fe</c><c>   1</c></rc>
    <rc><c>Fe</c><c>   1</c></rc>
    <rc><c>Fe</c><c>   1</c></rc>
    <rc><c>Fe</c><c>   1</c></rc>
    <rc><c>Fe</c><c>   1</c></rc>
    <rc><c>Fe</c><c>   1</c></rc>
    <rc><c>Fe</c><c>   1</c></rc>
    <rc><c>Fe</c><c>   1</c></rc>
    <rc><c>Fe</c><c>   1</c></rc>
    <rc><c>Fe</c><c>   1</c></rc>
    <rc><c>Fe</c><c>   1</c></rc>
    <rc><c>Fe</c><c>   1</c></rc>
    <rc><c>Fe</c><c>   1</c></rc>
    <rc><c>Fe</c><c>   1</c></rc>
    <rc><c>Fe</c><c>   1</c></rc>
    <rc><c>Fe</c><c>   1</c></rc>
    <rc><c>Fe</c><c>   1</c></rc>
    <rc><c>Fe</c><c>   1</c></rc>
    <rc><c>Fe</c><c>   1</c></rc>
    <rc><c>Fe</c><c>   1</c></rc>
    <rc><c>Fe</c><c>   1</c></rc>
    <rc><c>Fe</c><c>   1</c></rc>
    <rc><c>Fe</c><c>   1</c></rc>
    <rc><c>Fe</c><c>   1</c></rc>
    <rc><c>Fe</c><c>   1</c></rc>
    <rc><c>Fe</c><c>   1</c></rc>
    <rc><c>Fe</c><c>   1</c></rc>
    <rc><c>Fe</c><c>   1</c></rc>
    <rc><c>Fe</c><c>   1</c></rc>
    <rc><c>Fe</c><c>   1</c></rc>
    <rc><c>Fe</c><c>   1</c></rc>
    <rc><c>Fe</c><c>   1</c></rc>
    <rc><c>Fe</c><c>   1</c></rc>
    <rc><c>Fe</c><c>   1</c></rc>
    <rc><c>Fe</c><c>   1</c></rc>
    <rc><c>Fe</c><c>   1</c></rc>
    <rc><c>Fe</c><c>   1</c></rc>
    <rc><c>Fe</c><c>   1</c></rc>
    <rc><c>Fe</c><c>   1</c></rc>
    <rc><c>Fe</c><c>   1</c></rc>
    <rc><c>Fe</c><c>   1</c></rc>
    <rc><c>Fe</c><c>   1</c></rc>
    <rc><c>Fe</c><c>   1</c></rc>
    <rc><c>Fe</c><c>   1</c></rc>
    <rc><c>Fe</c><c>   1</c></rc>
    <rc><c>Fe</c><c>   1</c></rc>
    <rc><c>Fe</c><c>   1</c></rc>
    <rc><c>Fe</c><c>   1</c></rc>
    <rc><c>Fe</c><c>   1</c></rc>
    <rc><c>Fe</c><c>   1</c></rc>
    <rc><c>Fe</c><c>   1</c></rc>
    <rc><c>Fe</c><c>   1</c></rc>
    <rc><c>Fe</c><c>   1</c></rc>
    <rc><c>Fe</c><c>   1</c></rc>
    <rc><c>Fe</c><c>   1</c></rc>
    <rc><c>Fe</c><c>   1</c></rc>
    <rc><c>Fe</c><c>   1</c></rc>
    <rc><c>Fe</c><c>   1</c></rc>
    <rc><c>Fe</c><c>   1</c></rc>
    <rc><c>Fe</c><c>   1</c></rc>
    <rc><c>Fe</c><c>   1</c></rc>
    <rc><c>Fe</c><c>   1</c></rc>
    <rc><c>Fe</c><c>   1</c></rc>
    <rc><c>Fe</c><c>   1</c></rc>
    <rc><c>Fe</c><c>   1</c></rc>
    <rc><c>Fe</c><c>   1</c></rc>
    <rc><c>Fe</c><c>   1</c></rc>
    <rc><c>Fe</c><c>   1</c></rc>
    <rc><c>Fe</c><c>   1</c></rc>
    <rc><c>Fe</c><c>   1</c></rc>
    <rc><c>Fe</c><c>   1</c></rc>
    <rc><c>Fe</c><c>   1</c></rc>
    <rc><c>Fe</c><c>   1</c></rc>
    <rc><c>Fe</c><c>   1</c></rc>
    <rc><c>Fe</c><c>   1</c></rc>
    <rc><c>Fe</c><c>   1</c></rc>
    <rc><c>Fe</c><c>   1</c></rc>
    <rc><c>Fe</c><c>   1</c></rc>
    <rc><c>Fe</c><c>   1</c></rc>
    <rc><c>Fe</c><c>   1</c></rc>
    <rc><c>Fe</c><c>   1</c></rc>
    <rc><c>Fe</c><c>   1</c></rc>
    <rc><c>Fe</c><c>   1</c></rc>
    <rc><c>Fe</c><c>   1</c></rc>
    <rc><c>Fe</c><c>   1</c></rc>
    <rc><c>Fe</c><c>   1</c></rc>
    <rc><c>Fe</c><c>   1</c></rc>
    <rc><c>Fe</c><c>   1</c></rc>
    <rc><c>Fe</c><c>   1</c></rc>
    <rc><c>Fe</c><c>   1</c></rc>
    <rc><c>Fe</c><c>   1</c></rc>
    <rc><c>Fe</c><c>   1</c></rc>
    <rc><c>Fe</c><c>   1</c></rc>
    <rc><c>Fe</c><c>   1</c></rc>
    <rc><c>Fe</c><c>   1</c></rc>
    <rc><c>Fe</c><c>   1</c></rc>
    <rc><c>Fe</c><c>   1</c></rc>
    <rc><c>Fe</c><c>   1</c></rc>
    <rc><c>Fe</c><c>   1</c></rc>
    <rc><c>Fe</c><c>   1</c></rc>
    <rc><c>Fe</c><c>   1</c></rc>
    <rc><c>Fe</c><c>   1</c></rc>
    <rc><c>Fe</c><c>   1</c></rc>
    <rc><c>Fe</c><c>   1</c></rc>
    <rc><c>Fe</c><c>   1</c></rc>
    <rc><c>Fe</c><c>   1</c></rc>
    <rc><c>Fe</c><c>   1</c></rc>
    <rc><c>Fe</c><c>   1</c></rc>
    <rc><c>Fe</c><c>   1</c></rc>
    <rc><c>Fe</c><c>   1</c></rc>
    <rc><c>Fe</c><c>   1</c></rc>
    <rc><c>Fe</c><c>   1</c></rc>
    <rc><c>Fe</c><c>   1</c></rc>
    <rc><c>Fe</c><c>   1</c></rc>
    <rc><c>Fe</c><c>   1</c></rc>
    <rc><c>Fe</c><c>   1</c></rc>
    <rc><c>Fe</c><c>   1</c></rc>
    <rc><c>Fe</c><c>   1</c></rc>
    <rc><c>Fe</c><c>   1</c></rc>
    <rc><c>Fe</c><c>   1</c></rc>
    <rc><c>Fe</c><c>   1</c></rc>
    <rc><c>Fe</c><c>   1</c></rc>
    <rc><c>Fe</c><c>   1</c></rc>
    <rc><c>Fe</c><c>   1</c></rc>
    <rc><c>Fe</c><c>   1</c></rc>
    <rc><c>Fe</c><c>   1</c></rc>
    <rc><c>Fe</c><c>   1</c></rc>
    <rc><c>Fe</c><c>   1</c></rc>
    <rc><c>Fe</c><c>   1</c></rc>
    <rc><c>Fe</c><c>   1</c></rc>
    <rc><c>Fe</c><c>   1</c></rc>
    <rc><c>Fe</c><c>   1</c></rc>
    <rc><c>Fe</c><c>   1</c></rc>
    <rc><c>Fe</c><c>   1</c></rc>
    <rc><c>Fe</c><c>   1</c></rc>
    <rc><c>Fe</c><c>   1</c></rc>
    <rc><c>Fe</c><c>   1</c></rc>
    <rc><c>Fe</c><c>   1</c></rc>
    <rc><c>Fe</c><c>   1</c></rc>
    <rc><c>Fe</c><c>   1</c></rc>
    <rc><c>Fe</c><c>   1</c></rc>
    <rc><c>Fe</c><c>   1</c></rc>
    <rc><c>Fe</c><c>   1</c></rc>
    <rc><c>Fe</c><c>   1</c></rc>
    <rc><c>Fe</c><c>   1</c></rc>
    <rc><c>Fe</c><c>   1</c></rc>
    <rc><c>Fe</c><c>   1</c></rc>
    <rc><c>Fe</c><c>   1</c></rc>
    <rc><c>Fe</c><c>   1</c></rc>
    <rc><c>Fe</c><c>   1</c></rc>
    <rc><c>Fe</c><c>   1</c></rc>
    <rc><c>Fe</c><c>   1</c></rc>
    <rc><c>Fe</c><c>   1</c></rc>
    <rc><c>Fe</c><c>   1</c></rc>
    <rc><c>Fe</c><c>   1</c></rc>
    <rc><c>Fe</c><c>   1</c></rc>
    <rc><c>Fe</c><c>   1</c></rc>
    <rc><c>Fe</c><c>   1</c></rc>
    <rc><c>Fe</c><c>   1</c></rc>
    <rc><c>Fe</c><c>   1</c></rc>
    <rc><c>Fe</c><c>   1</c></rc>
    <rc><c>Mn</c><c>   2</c></rc>
    <rc><c>Mn</c><c>   2</c></rc>
    <rc><c>Mn</c><c>   2</c></rc>
    <rc><c>Mn</c><c>   2</c></rc>
    <rc><c>Mn</c><c>   2</c></rc>
    <rc><c>Mn</c><c>   2</c></rc>
    <rc><c>Mn</c><c>   2</c></rc>
    <rc><c>Mn</c><c>   2</c></rc>
    <rc><c>Mn</c><c>   2</c></rc>
    <rc><c>Mn</c><c>   2</c></rc>
    <rc><c>Mn</c><c>   2</c></rc>
    <rc><c>Mn</c><c>   2</c></rc>
    <rc><c>Mn</c><c>   2</c></rc>
    <rc><c>Mn</c><c>   2</c></rc>
   </set>
  </array>
  <array name="atomtypes" >
   <dimension dim="1">type</dimension>
   <field type="int">atomspertype</field>
   <field type="string">element</field>
   <field>mass</field>
   <field>valence</field>
   <field type="string">pseudopotential</field>
   <set>
    <rc><c> 274</c><c>Fe</c><c>     55.84700000</c><c>      8.00000000</c><c>  PAW_PBE Fe_GW 31Mar2010               </c></rc>
    <rc><c>  14</c><c>Mn</c><c>     54.93800000</c><c>      7.00000000</c><c>  PAW_PBE Mn_GW 31Mar2010               </c></rc>
   </set>
  </array>
 </atominfo>
 <structure name="initialpos" >
  <crystal>
   <varray name="basis" >
    <v>       9.72667804       0.00000000       0.00000000 </v>
    <v>       0.00000000       8.42355028       0.00000000 </v>
    <v>       0.00000000       0.00000000      45.00000000 </v>
   </varray>
   <i name="volume">   3686.99226691 </i>
   <varray name="rec_basis" >
    <v>       0.10281002       0.00000000       0.00000000 </v>
    <v>       0.00000000       0.11871479       0.00000000 </v>
    <v>       0.00000000       0.00000000       0.02222222 </v>
   </varray>
  </crystal>
  <varray name="positions" >
   <v>       0.06343509       0.02926753       0.12408077 </v>
   <v>       0.31628122       0.87419517       0.65511670 </v>
   <v>       0.18466960       0.12273161       0.78865360 </v>
   <v>       0.44151919       0.28758175       0.38912843 </v>
   <v>       0.31749339       0.71319604       0.83319704 </v>
   <v>       0.81783091       0.21456013       0.83356974 </v>
   <v>       0.19130928       0.96304841       0.83358602 </v>
   <v>       0.56234269       0.20698421       0.56555257 </v>
   <v>       0.06561676       0.04058075       0.74438066 </v>
   <v>       0.81141384       0.87132393       0.52133328 </v>
   <v>       0.19053978       0.29091514       0.74442493 </v>
   <v>       0.93367106       0.45231650       0.34482506 </v>
   <v>       0.94093239       0.28646303       0.38881308 </v>
   <v>       0.81303728       0.04022226       0.87575355 </v>
   <v>       0.18370520       0.78881691       0.61101954 </v>
   <v>       0.56642682       0.03797917       0.38897250 </v>
   <v>       0.94212513       0.96385709       0.83376243 </v>
   <v>       0.31368747       0.53939619       0.87602199 </v>
   <v>       0.69026896       0.29116481       0.74440869 </v>
   <v>       0.18191753       0.61381937       0.16659290 </v>
   <v>       0.81223784       0.20586988       0.47862107 </v>
   <v>       0.80902695       0.53864630       0.61105364 </v>
   <v>       0.31179274       0.87050205       0.43443879 </v>
   <v>       0.80998888       0.03865414       0.25589141 </v>
   <v>       0.68333178       0.95167071       0.34474846 </v>
   <v>       0.93110367       0.11427887       0.16684322 </v>
   <v>       0.06176152       0.87119557       0.52131350 </v>
   <v>       0.55837026       0.53875432       0.25572276 </v>
   <v>       0.68587713       0.79631739       0.87593002 </v>
   <v>       0.55677272       0.36427761       0.16649368 </v>
   <v>       0.43976020       0.79179676       0.74455447 </v>
   <v>       0.81161512       0.70715372       0.56549792 </v>
   <v>       0.55933097       0.87321541       0.78873332 </v>
   <v>       0.68673486       0.12160080       0.52136424 </v>
   <v>       0.81633933       0.37411666       0.65516570 </v>
   <v>       0.94187721       0.46336635       0.83367016 </v>
   <v>       0.05996989       0.20705600       0.69982073 </v>
   <v>       0.43470116       0.95692931       0.69984654 </v>
   <v>       0.31682598       0.21273527       0.83354546 </v>
   <v>       0.44131043       0.62482782       0.65509349 </v>
   <v>       0.30918807       0.53892026       0.61102491 </v>
   <v>       0.93697343       0.45679274       0.56556812 </v>
   <v>       0.68987306       0.79141765       0.74452745 </v>
   <v>       0.93547533       0.78902249       0.12434000 </v>
   <v>       0.69135344       0.78784669       0.38909329 </v>
   <v>       0.94065287       0.79073539       0.74465438 </v>
   <v>       0.05932373       0.20334346       0.34495250 </v>
   <v>       0.68405913       0.45260567       0.34502953 </v>
   <v>       0.43485597       0.12222465       0.78894600 </v>
   <v>       0.06511324       0.20599231       0.21124814 </v>
   <v>       0.05566249       0.36557330       0.16662611 </v>
   <v>       0.93386976       0.78745094       0.25567819 </v>
   <v>       0.55986568       0.20676534       0.69986889 </v>
   <v>       0.68452021       0.95674478       0.69981674 </v>
   <v>       0.80977138       0.87337148       0.78852400 </v>
   <v>       0.43715799       0.95752710       0.56531632 </v>
   <v>       0.80969037       0.37407320       0.78857399 </v>
   <v>       0.68424425       0.28847301       0.25592833 </v>
   <v>       0.18751272       0.45719139       0.56544118 </v>
   <v>       0.05595027       0.86567740       0.16663611 </v>
   <v>       0.18410598       0.28903422       0.61107930 </v>
   <v>       0.06228310       0.20760523       0.56532866 </v>
   <v>       0.31002351       0.20672653       0.69990024 </v>
   <v>       0.56316322       0.53951209       0.87591270 </v>
   <v>       0.06225236       0.70713774       0.56557369 </v>
   <v>       0.68400350       0.62289020       0.78876354 </v>
   <v>       0.31587781       0.53840272       0.38885587 </v>
   <v>       0.18668430       0.62133968       0.52135176 </v>
   <v>       0.56205165       0.87084978       0.43432366 </v>
   <v>       0.43697438       0.45713824       0.56556164 </v>
   <v>       0.43986643       0.29167557       0.74452587 </v>
   <v>       0.81978821       0.87431679       0.30018019 </v>
   <v>       0.80860809       0.70275253       0.34485519 </v>
   <v>       0.44222645       0.46260147       0.83330157 </v>
   <v>       0.68743302       0.95579949       0.47867145 </v>
   <v>       0.68435786       0.45707948       0.69981909 </v>
   <v>       0.56164229       0.87163408       0.52137505 </v>
   <v>       0.56598045       0.37420852       0.65514739 </v>
   <v>       0.81652130       0.87465139       0.65517774 </v>
   <v>       0.81156680       0.37162076       0.43410227 </v>
   <v>       0.80890508       0.53818190       0.25583214 </v>
   <v>       0.69208982       0.46218869       0.83334823 </v>
   <v>       0.18579172       0.78808591       0.12416684 </v>
   <v>       0.69137868       0.28758399       0.38906819 </v>
   <v>       0.31597822       0.37376368       0.65506764 </v>
   <v>       0.30923093       0.20275373       0.34468567 </v>
   <v>       0.81570308       0.54051159       0.74441039 </v>
   <v>       0.69166309       0.96197670       0.83346843 </v>
   <v>       0.56610792       0.87431757       0.65512346 </v>
   <v>       0.31164102       0.70710065       0.56551323 </v>
   <v>       0.31183418       0.53014490       0.12398625 </v>
   <v>       0.68958451       0.95432766       0.21164501 </v>
   <v>       0.31157552       0.20691456       0.56555882 </v>
   <v>       0.18745441       0.95605549       0.47869449 </v>
   <v>       0.68752402       0.95664780       0.56546926 </v>
   <v>       0.43393618       0.78863570       0.61102154 </v>
   <v>       0.68189891       0.61229267       0.16612423 </v>
   <v>       0.31872792       0.87450494       0.30002228 </v>
   <v>       0.31208832       0.70563106       0.47853551 </v>
   <v>       0.93392305       0.28854210       0.61099719 </v>
   <v>       0.44544465       0.62476814       0.30024438 </v>
   <v>       0.80750944       0.86369998       0.16669911 </v>
   <v>       0.56586489       0.20370692       0.21122656 </v>
   <v>       0.93228903       0.61310497       0.16673778 </v>
   <v>       0.43718769       0.95557974       0.47852897 </v>
   <v>       0.55973960       0.37260494       0.78878048 </v>
   <v>       0.06132334       0.37192483       0.52137661 </v>
   <v>       0.30678169       0.36443363       0.16664023 </v>
   <v>       0.69379674       0.12319728       0.30013419 </v>
   <v>       0.44293403       0.96255923       0.83337523 </v>
   <v>       0.18591944       0.28704664       0.12402837 </v>
   <v>       0.18454141       0.28865959       0.25598013 </v>
   <v>       0.31224404       0.37052164       0.43440874 </v>
   <v>       0.56197183       0.03257270       0.12428160 </v>
   <v>       0.43402897       0.28869337       0.61098554 </v>
   <v>       0.18385761       0.45260885       0.34493278 </v>
   <v>       0.43378856       0.28639199       0.12396104 </v>
   <v>       0.68347708       0.78863069       0.25579329 </v>
   <v>       0.43687379       0.12125284       0.52137872 </v>
   <v>       0.18845131       0.29506557       0.87596134 </v>
   <v>       0.19138743       0.12498873       0.65520818 </v>
   <v>       0.94113731       0.12482296       0.65519416 </v>
   <v>       0.81638569       0.53756964       0.38890555 </v>
   <v>       0.06646668       0.03798798       0.38908731 </v>
   <v>       0.18278011       0.11320783       0.16656827 </v>
   <v>       0.05894109       0.53855270       0.61107215 </v>
   <v>       0.93363838       0.28808097       0.25585490 </v>
   <v>       0.55883818       0.53853391       0.61107172 </v>
   <v>       0.93687333       0.95755659       0.56550465 </v>
   <v>       0.69350296       0.62450274       0.30012021 </v>
   <v>       0.93710525       0.62021509       0.43441751 </v>
   <v>       0.93428581       0.62410634       0.78850915 </v>
   <v>       0.56010654       0.70665374       0.69982469 </v>
   <v>       0.06617990       0.71569435       0.83382602 </v>
   <v>       0.94380732       0.12330286       0.29999006 </v>
   <v>       0.93392211       0.78821139       0.61102850 </v>
   <v>       0.43317442       0.78787542       0.25555207 </v>
   <v>       0.30990782       0.37314998       0.78877618 </v>
   <v>       0.44035633       0.45420309       0.21127778 </v>
   <v>       0.18665865       0.12162342       0.52139906 </v>
   <v>       0.80991601       0.70709970       0.69987277 </v>
   <v>       0.05891277       0.03832979       0.61091095 </v>
   <v>       0.56623365       0.21299170       0.83326468 </v>
   <v>       0.31180922       0.87133781       0.52137501 </v>
   <v>       0.68584319       0.28744658       0.12385687 </v>
   <v>       0.19101520       0.95570069       0.21158223 </v>
   <v>       0.68397913       0.28869927       0.61103994 </v>
   <v>       0.30880192       0.03853371       0.61106646 </v>
   <v>       0.93478183       0.12381550       0.78871591 </v>
   <v>       0.43660701       0.79633971       0.87602427 </v>
   <v>       0.81566461       0.04073982       0.74441094 </v>
   <v>       0.93470687       0.45729373       0.69980534 </v>
   <v>       0.19131561       0.62489809       0.65521201 </v>
   <v>       0.30988335       0.70636865       0.69985986 </v>
   <v>       0.93537776       0.28728444       0.12400157 </v>
   <v>       0.43733991       0.45583410       0.47840006 </v>
   <v>       0.06223173       0.70563707       0.47835100 </v>
   <v>       0.93681406       0.11947017       0.43446651 </v>
   <v>       0.44410613       0.12356475       0.30041956 </v>
   <v>       0.18724059       0.12000801       0.43412848 </v>
   <v>       0.56323029       0.03978363       0.87602659 </v>
   <v>       0.18714672       0.95719062       0.56550516 </v>
   <v>       0.68343321       0.78854236       0.12421887 </v>
   <v>       0.55934496       0.70241085       0.34501561 </v>
   <v>       0.31595621       0.03729293       0.38888486 </v>
   <v>       0.68203879       0.11351580       0.16662251 </v>
   <v>       0.81546247       0.20372732       0.21125327 </v>
   <v>       0.05976305       0.53762470       0.25575858 </v>
   <v>       0.56228838       0.70546447       0.47842998 </v>
   <v>       0.43554277       0.78744324       0.12404043 </v>
   <v>       0.56855823       0.37364932       0.30018118 </v>
   <v>       0.43376147       0.95270035       0.34504056 </v>
   <v>       0.18476406       0.95700615       0.70000583 </v>
   <v>       0.43214395       0.61302265       0.16615215 </v>
   <v>       0.94016411       0.45444965       0.21169247 </v>
   <v>       0.06222459       0.52935020       0.12387213 </v>
   <v>       0.81166614       0.37165957       0.52135336 </v>
   <v>       0.94384383       0.62343860       0.29990330 </v>
   <v>       0.30994163       0.03788888       0.25549312 </v>
   <v>       0.68390835       0.78844928       0.61100984 </v>
   <v>       0.19173570       0.46315101       0.83349366 </v>
   <v>       0.43236771       0.11311115       0.16657394 </v>
   <v>       0.31149307       0.37129103       0.52136913 </v>
   <v>       0.43365552       0.62276174       0.78907120 </v>
   <v>       0.05948051       0.03803436       0.25561789 </v>
   <v>       0.56242665       0.70690240       0.56552229 </v>
   <v>       0.93964389       0.29071890       0.74451592 </v>
   <v>       0.68332669       0.12267147       0.78866569 </v>
   <v>       0.18976196       0.45441573       0.21122997 </v>
   <v>       0.94124558       0.78764483       0.38889831 </v>
   <v>       0.68610671       0.29813146       0.87607009 </v>
   <v>       0.55721939       0.86205449       0.16640864 </v>
   <v>       0.43487770       0.45692398       0.69984367 </v>
   <v>       0.93413970       0.95140133       0.34468580 </v>
   <v>       0.68648228       0.62119960       0.52120903 </v>
   <v>       0.06617209       0.87424262       0.65513600 </v>
   <v>       0.05988580       0.87359469       0.78858933 </v>
   <v>       0.06617847       0.37424527       0.65512030 </v>
   <v>       0.68706762       0.45529883       0.47849971 </v>
   <v>       0.18429353       0.78799180       0.25543981 </v>
   <v>       0.43680603       0.12059337       0.43429887 </v>
   <v>       0.81399050       0.03085106       0.12405114 </v>
   <v>       0.93660434       0.62178129       0.52135932 </v>
   <v>       0.44117507       0.12439589       0.65505264 </v>
   <v>       0.81325704       0.52892877       0.12397856 </v>
   <v>       0.43398960       0.45250664       0.34497087 </v>
   <v>       0.80927379       0.20285073       0.34502663 </v>
   <v>       0.30924045       0.70240223       0.34473837 </v>
   <v>       0.69128391       0.12486262       0.65511982 </v>
   <v>       0.30656970       0.86378095       0.16668074 </v>
   <v>       0.06504161       0.54073340       0.74450248 </v>
   <v>       0.93966291       0.95425485       0.21123804 </v>
   <v>       0.81598192       0.70418830       0.21137685 </v>
   <v>       0.06918601       0.87434898       0.30020427 </v>
   <v>       0.19394597       0.12414351       0.30018597 </v>
   <v>       0.05858741       0.70238542       0.34488135 </v>
   <v>       0.80912627       0.03864284       0.61102422 </v>
   <v>       0.06292674       0.37188447       0.43428999 </v>
   <v>       0.55932940       0.20301267       0.34465682 </v>
   <v>       0.81923548       0.37373431       0.30008468 </v>
   <v>       0.56015436       0.03823446       0.25546284 </v>
   <v>       0.56656166       0.53753787       0.38906953 </v>
   <v>       0.06273152       0.20595648       0.47859188 </v>
   <v>       0.31054539       0.87251252       0.78852078 </v>
   <v>       0.93460861       0.95757276       0.69978941 </v>
   <v>       0.06845029       0.37480731       0.30013223 </v>
   <v>       0.69112611       0.62484770       0.65525772 </v>
   <v>       0.68711450       0.45744391       0.56542687 </v>
   <v>       0.43978433       0.95524351       0.21184280 </v>
   <v>       0.31239220       0.20564867       0.47860117 </v>
   <v>       0.81266342       0.53899739       0.87588748 </v>
   <v>       0.68825125       0.62036383       0.43440070 </v>
   <v>       0.81026959       0.20711510       0.69991358 </v>
   <v>       0.81228526       0.70559543       0.47848511 </v>
   <v>       0.81109262       0.87105159       0.43418453 </v>
   <v>       0.93728154       0.95520048       0.47857800 </v>
   <v>       0.56223065       0.20577396       0.47859631 </v>
   <v>       0.18694848       0.61979512       0.43432726 </v>
   <v>       0.31515583       0.04138935       0.74434390 </v>
   <v>       0.94142735       0.62504223       0.65506956 </v>
   <v>       0.56662994       0.71330957       0.83332748 </v>
   <v>       0.31914462       0.37353211       0.29999796 </v>
   <v>       0.31502784       0.54121986       0.74448178 </v>
   <v>       0.18738957       0.45551102       0.47856425 </v>
   <v>       0.31439706       0.04035625       0.87580640 </v>
   <v>       0.18495836       0.45779955       0.69987988 </v>
   <v>       0.56155918       0.37143464       0.52135974 </v>
   <v>       0.19088460       0.28742528       0.38890183 </v>
   <v>       0.31587776       0.20627821       0.21118434 </v>
   <v>       0.06679477       0.70441009       0.21124166 </v>
   <v>       0.56174979       0.37123836       0.43419205 </v>
   <v>       0.43643286       0.62153188       0.52127476 </v>
   <v>       0.81675064       0.71491984       0.83344770 </v>
   <v>       0.05990057       0.37385784       0.78854026 </v>
   <v>       0.43686305       0.29718124       0.87622402 </v>
   <v>       0.31174619       0.03133778       0.12408723 </v>
   <v>       0.68772402       0.12019732       0.43423282 </v>
   <v>       0.18361532       0.95221378       0.34486881 </v>
   <v>       0.06684601       0.21402530       0.83389164 </v>
   <v>       0.55912888       0.03909870       0.61112430 </v>
   <v>       0.68907722       0.45402455       0.21163189 </v>
   <v>       0.18981808       0.79150566       0.74453574 </v>
   <v>       0.19373798       0.62387364       0.30020682 </v>
   <v>       0.44158140       0.78799977       0.38906893 </v>
   <v>       0.43383736       0.28874280       0.25588303 </v>
   <v>       0.06373500       0.53946401       0.87583514 </v>
   <v>       0.56556816       0.04122766       0.74441557 </v>
   <v>       0.18757095       0.79588734       0.87592833 </v>
   <v>       0.93754551       0.45528503       0.47852433 </v>
   <v>       0.56533688       0.54127493       0.74434555 </v>
   <v>       0.81144862       0.20749553       0.56544887 </v>
   <v>       0.18521791       0.62263975       0.78858739 </v>
   <v>       0.06755669       0.53863273       0.38907329 </v>
   <v>       0.06010109       0.70682745       0.69987321 </v>
   <v>       0.30901674       0.53767285       0.25568098 </v>
   <v>       0.31517070       0.70645176       0.21161244 </v>
   <v>       0.56954150       0.87409392       0.30020096 </v>
   <v>       0.43654311       0.62102914       0.43424457 </v>
   <v>       0.81826848       0.03956210       0.38916598 </v>
   <v>       0.93544313       0.29664574       0.87556948 </v>
   <v>       0.93780302       0.79453196       0.87553719 </v>
   <v>       0.06570698       0.03826266       0.87566220 </v>
   <v>       0.56276094       0.53017969       0.12428256 </v>
   <v>       0.80534505       0.36621532       0.16586393 </v>
   <v>       0.06181939       0.87135700       0.43429425 </v>
   <v>       0.93665339       0.12153640       0.52138551 </v>
   <v>       0.19318834       0.78711215       0.38884842 </v>
   <v>       0.56757855       0.70474806       0.21175151 </v>
  </varray>
 </structure>
 <calculation>
  <scstep>
   <time name="dav">   54.89   54.90</time>
   <time name="total">   55.03   55.08</time>
   <energy>
    <i name="alphaZ">  16293.21160653 </i>
    <i name="ewald"> 725610.43222291 </i>
    <i name="hartreedc">-916126.23288157 </i>
    <i name="XCdc">  -6512.68613629 </i>
    <i name="pawpsdc"> 162273.92519768 </i>
    <i name="pawaedc">-159623.75899949 </i>
    <i name="eentropy">     -1.06519745 </i>
    <i name="bandstr">  38489.07433298 </i>
    <i name="atom"> 168671.76673737 </i>
    <i name="e_fr_energy">  29074.66688268 </i>
    <i name="e_wo_entrp">  29075.73208012 </i>
    <i name="e_0_energy">  29075.19948140 </i>
   </energy>
  </scstep>
  <scstep>
   <time name="dav">   54.37   54.46</time>
   <time name="total">   54.38   54.47</time>
   <energy>
    <i name="e_fr_energy">   1187.59607547 </i>
    <i name="e_wo_entrp">   1189.09432446 </i>
    <i name="e_0_energy">   1188.34519996 </i>
   </energy>
  </scstep>
  <scstep>
   <time name="dav">   71.37   71.40</time>
   <time name="total">   71.37   71.41</time>
   <energy>
    <i name="e_fr_energy">  -1950.00933845 </i>
    <i name="e_wo_entrp">  -1946.45776593 </i>
    <i name="e_0_energy">  -1948.23355219 </i>
   </energy>
  </scstep>
  <scstep>
   <time name="dav">   89.30   89.34</time>
   <time name="total">   89.30   89.35</time>
   <energy>
    <i name="e_fr_energy">  -2619.50139481 </i>
    <i name="e_wo_entrp">  -2615.96481334 </i>
    <i name="e_0_energy">  -2617.73310407 </i>
   </energy>
  </scstep>
  <scstep>
   <time name="dav">   85.37   85.42</time>
   <time name="total">   87.49   87.54</time>
   <energy>
    <i name="e_fr_energy">  -2738.82841305 </i>
    <i name="e_wo_entrp">  -2735.16533821 </i>
    <i name="e_0_energy">  -2736.99687563 </i>
   </energy>
  </scstep>
  <scstep>
   <time name="diag">    8.31    8.31</time>
   <time name="diis">   37.27   37.27</time>
   <time name="orth">    2.32    2.32</time>
   <time name="total">   50.02   50.06</time>
   <energy>
    <i name="e_fr_energy">  -5736.48686585 </i>
    <i name="e_wo_entrp">  -5733.72246084 </i>
    <i name="e_0_energy">  -5735.10466335 </i>
   </energy>
  </scstep>
  <scstep>
   <time name="diag">    8.32    8.32</time>
   <time name="diis">   24.68   24.68</time>
   <time name="orth">    2.33    2.33</time>
   <time name="total">   37.42   37.46</time>
[...]
       <r>     5.9017     0.0000  2772.0000 </r>
       <r>     5.9447     0.0000  2772.0000 </r>
       <r>     5.9876     0.0000  2772.0000 </r>
       <r>     6.0305     0.0000  2772.0000 </r>
       <r>     6.0734     0.0000  2772.0000 </r>
       <r>     6.1163     0.0000  2772.0000 </r>
       <r>     6.1592     0.0000  2772.0000 </r>
       <r>     6.2021     0.0000  2772.0000 </r>
       <r>     6.2450     0.0000  2772.0000 </r>
       <r>     6.2879     0.0000  2772.0000 </r>
       <r>     6.3308     0.0000  2772.0000 </r>
       <r>     6.3737     0.0000  2772.0000 </r>
       <r>     6.4166     0.0000  2772.0000 </r>
       <r>     6.4595     0.0000  2772.0000 </r>
       <r>     6.5024     0.0000  2772.0000 </r>
       <r>     6.5454     0.0000  2772.0000 </r>
       <r>     6.5883     0.0000  2772.0000 </r>
       <r>     6.6312     0.0000  2772.0000 </r>
       <r>     6.6741     0.0000  2772.0000 </r>
       <r>     6.7170     0.0000  2772.0000 </r>
       <r>     6.7599     0.0000  2772.0000 </r>
       <r>     6.8028     0.0000  2772.0000 </r>
       <r>     6.8457     0.0000  2772.0000 </r>
      </set>
     </set>
    </array>
   </total>
  </dos>
 </calculation>
 <structure name="finalpos" >
  <crystal>
   <varray name="basis" >
    <v>       9.72667804       0.00000000       0.00000000 </v>
    <v>       0.00000000       8.42355028       0.00000000 </v>
    <v>       0.00000000       0.00000000      45.00000000 </v>
   </varray>
   <i name="volume">   3686.99226691 </i>
   <varray name="rec_basis" >
    <v>       0.10281002       0.00000000       0.00000000 </v>
    <v>       0.00000000       0.11871479       0.00000000 </v>
    <v>       0.00000000       0.00000000       0.02222222 </v>
   </varray>
  </crystal>
  <varray name="positions" >
   <v>       0.06155077       0.03302715       0.12432372 </v>
   <v>       0.31351421       0.87381393       0.65506766 </v>
   <v>       0.18686152       0.12451088       0.78843200 </v>
   <v>       0.44012408       0.28796268       0.38937031 </v>
   <v>       0.31519005       0.71093452       0.83355272 </v>
   <v>       0.81606902       0.21223871       0.83380560 </v>
   <v>       0.18951100       0.96178119       0.83387933 </v>
   <v>       0.56166724       0.20653063       0.56579069 </v>
   <v>       0.06377936       0.04105666       0.74410128 </v>
   <v>       0.81148071       0.87218400       0.52170993 </v>
   <v>       0.18878692       0.29127257       0.74414737 </v>
   <v>       0.93677717       0.45390969       0.34488881 </v>
   <v>       0.93947374       0.28756730       0.38928942 </v>
   <v>       0.81263271       0.04401591       0.87565780 </v>
   <v>       0.18594831       0.78909398       0.61065877 </v>
   <v>       0.56437483       0.03825112       0.38939462 </v>
   <v>       0.94122580       0.96191079       0.83395753 </v>
   <v>       0.31366106       0.54334375       0.87574837 </v>
   <v>       0.68854531       0.29121733       0.74417806 </v>
   <v>       0.18421238       0.61636234       0.16624341 </v>
   <v>       0.81196862       0.20525264       0.47845433 </v>
   <v>       0.81100455       0.53917142       0.61071220 </v>
   <v>       0.31257345       0.87132570       0.43444013 </v>
   <v>       0.81162208       0.03777991       0.25574939 </v>
   <v>       0.68657187       0.95380450       0.34484560 </v>
   <v>       0.93360353       0.11587845       0.16647288 </v>
   <v>       0.06237418       0.87229111       0.52164200 </v>
   <v>       0.56123543       0.53804200       0.25572992 </v>
   <v>       0.68694927       0.79410715       0.87575660 </v>
   <v>       0.55837153       0.36645404       0.16602836 </v>
   <v>       0.43865481       0.79146817       0.74420778 </v>
   <v>       0.81188333       0.70610102       0.56575047 </v>
   <v>       0.56141814       0.87383363       0.78837032 </v>
   <v>       0.68643455       0.12210022       0.52165093 </v>
   <v>       0.81381449       0.37414597       0.65505520 </v>
   <v>       0.94057339       0.46170594       0.83387539 </v>
   <v>       0.06166267       0.20723344       0.69984147 </v>
   <v>       0.43630556       0.95674181       0.69986088 </v>
   <v>       0.31481891       0.21093029       0.83381590 </v>
   <v>       0.43842900       0.62381232       0.65504098 </v>
   <v>       0.31072053       0.53929419       0.61066365 </v>
   <v>       0.93704125       0.45613312       0.56585036 </v>
   <v>       0.68860860       0.79125630       0.74417848 </v>
   <v>       0.93518138       0.78368027       0.12449363 </v>
   <v>       0.68985072       0.78777148       0.38935428 </v>
   <v>       0.93860698       0.79091023       0.74415775 </v>
   <v>       0.06204803       0.20433105       0.34487424 </v>
   <v>       0.68704050       0.45353494       0.34483484 </v>
   <v>       0.43631259       0.12443997       0.78858157 </v>
   <v>       0.06307444       0.20353948       0.21138039 </v>
   <v>       0.05818391       0.36634246       0.16610338 </v>
   <v>       0.93638428       0.78784785       0.25563502 </v>
   <v>       0.56113130       0.20694266       0.69990460 </v>
   <v>       0.68640572       0.95694249       0.69997173 </v>
   <v>       0.81099067       0.87418160       0.78833273 </v>
   <v>       0.43672071       0.95628078       0.56578892 </v>
   <v>       0.81135580       0.37449003       0.78835806 </v>
   <v>       0.68646554       0.28760323       0.25579159 </v>
   <v>       0.18690410       0.45637059       0.56584109 </v>
   <v>       0.05903076       0.86646687       0.16631475 </v>
   <v>       0.18610382       0.28949964       0.61077777 </v>
   <v>       0.06207988       0.20644174       0.56580394 </v>
   <v>       0.31150669       0.20706157       0.69984464 </v>
   <v>       0.56400486       0.54397350       0.87565058 </v>
   <v>       0.06195327       0.70596998       0.56579150 </v>
   <v>       0.68597744       0.62415409       0.78833302 </v>
   <v>       0.31474946       0.53751019       0.38934874 </v>
   <v>       0.18720766       0.62239730       0.52172146 </v>
   <v>       0.56242908       0.87130296       0.43435119 </v>
   <v>       0.43673406       0.45624436       0.56585941 </v>
   <v>       0.43859980       0.29169966       0.74416820 </v>
   <v>       0.81604993       0.87303715       0.30017358 </v>
   <v>       0.81157180       0.70355449       0.34493880 </v>
   <v>       0.44022887       0.46073205       0.83378677 </v>
   <v>       0.68728152       0.95488714       0.47844061 </v>
   <v>       0.68635252       0.45718602       0.69992704 </v>
   <v>       0.56188874       0.87223867       0.52163217 </v>
   <v>       0.56361744       0.37391010       0.65501961 </v>
   <v>       0.81387973       0.87375180       0.65507465 </v>
   <v>       0.81183526       0.37090799       0.43422875 </v>
   <v>       0.81150730       0.53735811       0.25585381 </v>
   <v>       0.69057975       0.46108124       0.83376542 </v>
   <v>       0.18587227       0.78353571       0.12433450 </v>
   <v>       0.68932959       0.28757896       0.38933795 </v>
   <v>       0.31335113       0.37402588       0.65498118 </v>
   <v>       0.31210799       0.20388351       0.34496749 </v>
   <v>       0.81350783       0.54115447       0.74409658 </v>
   <v>       0.69046047       0.96110852       0.83383469 </v>
   <v>       0.56349894       0.87379963       0.65508146 </v>
   <v>       0.31177471       0.70629736       0.56581249 </v>
   <v>       0.31039980       0.53351192       0.12401135 </v>
   <v>       0.68860599       0.95456968       0.21150948 </v>
   <v>       0.31188963       0.20646570       0.56583462 </v>
   <v>       0.18727123       0.95498135       0.47845200 </v>
   <v>       0.68697888       0.95632757       0.56581155 </v>
   <v>       0.43550513       0.78924446       0.61061633 </v>
   <v>       0.68292920       0.61459223       0.16604636 </v>
   <v>       0.31528765       0.87274077       0.30015109 </v>
   <v>       0.31213978       0.70507554       0.47836043 </v>
   <v>       0.93620105       0.28936239       0.61064639 </v>
   <v>       0.44055042       0.62252833       0.30025738 </v>
   <v>       0.80879873       0.86569777       0.16634114 </v>
   <v>       0.56426620       0.20355162       0.21150563 </v>
   <v>       0.93417061       0.61522784       0.16646157 </v>
   <v>       0.43729139       0.95480853       0.47844985 </v>
   <v>       0.56135513       0.37383805       0.78846177 </v>
   <v>       0.06197373       0.37294727       0.52163275 </v>
   <v>       0.30847425       0.36623423       0.16603986 </v>
   <v>       0.69074815       0.12257816       0.30025763 </v>
   <v>       0.44065257       0.96090115       0.83378830 </v>
   <v>       0.18589026       0.28316205       0.12434701 </v>
   <v>       0.18652591       0.28703912       0.25581561 </v>
   <v>       0.31283699       0.37127970       0.43434992 </v>
   <v>       0.56090278       0.03387115       0.12420703 </v>
   <v>       0.43551325       0.28955451       0.61063830 </v>
   <v>       0.18696326       0.45399998       0.34488078 </v>
   <v>       0.43358663       0.28330529       0.12434965 </v>
   <v>       0.68654829       0.78826403       0.25590173 </v>
   <v>       0.43673059       0.12274562       0.52161349 </v>
   <v>       0.18971925       0.29322917       0.87594984 </v>
   <v>       0.18870545       0.12397108       0.65507094 </v>
   <v>       0.93915759       0.12391290       0.65503304 </v>
   <v>       0.81445196       0.53746163       0.38930941 </v>
   <v>       0.06478366       0.03815882       0.38938515 </v>
   <v>       0.18411880       0.11588847       0.16640806 </v>
   <v>       0.06111975       0.53911527       0.61069388 </v>
   <v>       0.93625702       0.28746732       0.25572502 </v>
   <v>       0.56061707       0.53930122       0.61063039 </v>
   <v>       0.93714394       0.95598256       0.56576103 </v>
   <v>       0.69057725       0.62248632       0.30032435 </v>
   <v>       0.93760318       0.62119050       0.43430291 </v>
   <v>       0.93610069       0.62529978       0.78834408 </v>
   <v>       0.56118991       0.70669989       0.69988477 </v>
   <v>       0.06461205       0.71279803       0.83383111 </v>
   <v>       0.94071573       0.12311986       0.30016930 </v>
   <v>       0.93608016       0.78887483       0.61072999 </v>
   <v>       0.43656480       0.78783773       0.25580328 </v>
   <v>       0.31148367       0.37383721       0.78840768 </v>
   <v>       0.43849682       0.45419422       0.21150680 </v>
   <v>       0.18728096       0.12226002       0.52167191 </v>
   <v>       0.81151677       0.70709424       0.69990163 </v>
   <v>       0.06103685       0.03958821       0.61065281 </v>
   <v>       0.56474431       0.21105369       0.83359930 </v>
   <v>       0.31181464       0.87229278       0.52173870 </v>
   <v>       0.68584067       0.28351110       0.12409313 </v>
   <v>       0.18840724       0.95535171       0.21152553 </v>
   <v>       0.68559914       0.28969865       0.61071458 </v>
   <v>       0.31060483       0.03937353       0.61067248 </v>
   <v>       0.93643795       0.12541716       0.78843780 </v>
   <v>       0.43785321       0.79337364       0.87577404 </v>
   <v>       0.81359202       0.04111292       0.74409334 </v>
   <v>       0.93661625       0.45719090       0.69984512 </v>
   <v>       0.18867027       0.62385615       0.65504822 </v>
   <v>       0.31153213       0.70689939       0.69988410 </v>
   <v>       0.93445729       0.28319189       0.12421296 </v>
   <v>       0.43724053       0.45456360       0.47836038 </v>
   <v>       0.06244435       0.70447472       0.47844632 </v>
   <v>       0.93726694       0.12098204       0.43458531 </v>
   <v>       0.44056333       0.12220753       0.30023844 </v>
   <v>       0.18748130       0.12082853       0.43419323 </v>
   <v>       0.56437220       0.04371116       0.87579116 </v>
   <v>       0.18667656       0.95632211       0.56586096 </v>
   <v>       0.68439213       0.78445515       0.12435548 </v>
   <v>       0.56195926       0.70355630       0.34497830 </v>
   <v>       0.31474565       0.03804495       0.38941289 </v>
   <v>       0.68436667       0.11570519       0.16643587 </v>
   <v>       0.81397916       0.20344065       0.21146392 </v>
   <v>       0.06117881       0.53784926       0.25561003 </v>
   <v>       0.56231450       0.70496099       0.47839277 </v>
   <v>       0.43486959       0.78405551       0.12419846 </v>
   <v>       0.56546482       0.37200069       0.30027354 </v>
   <v>       0.43665178       0.95397293       0.34486507 </v>
   <v>       0.18644579       0.95707263       0.69986064 </v>
   <v>       0.43404993       0.61575680       0.16597864 </v>
   <v>       0.93857816       0.45338171       0.21158080 </v>
   <v>       0.06100244       0.53312009       0.12414792 </v>
   <v>       0.81193529       0.37303923       0.52162679 </v>
   <v>       0.94050485       0.62266478       0.30006394 </v>
   <v>       0.31183229       0.03781654       0.25574051 </v>
   <v>       0.68577353       0.78905959       0.61063293 </v>
   <v>       0.19011625       0.46157686       0.83383747 </v>
   <v>       0.43392688       0.11530570       0.16637808 </v>
   <v>       0.31174317       0.37274635       0.52167440 </v>
   <v>       0.43640205       0.62405869       0.78857665 </v>
   <v>       0.06119025       0.03765984       0.25573517 </v>
   <v>       0.56165258       0.70626800       0.56578087 </v>
   <v>       0.93868540       0.29100033       0.74416617 </v>
   <v>       0.68600889       0.12443891       0.78832766 </v>
   <v>       0.18815206       0.45404537       0.21147682 </v>
   <v>       0.93926957       0.78757151       0.38932528 </v>
   <v>       0.68707306       0.29375718       0.87582218 </v>
   <v>       0.55740098       0.86503395       0.16614319 </v>
   <v>       0.43627538       0.45695838       0.69992141 </v>
   <v>       0.93729744       0.95368507       0.34486349 </v>
   <v>       0.68657168       0.62230521       0.52160543 </v>
   <v>       0.06390977       0.87379132       0.65505425 </v>
   <v>       0.06174287       0.87450920       0.78845119 </v>
   <v>       0.06394500       0.37410574       0.65506429 </v>
   <v>       0.68702124       0.45472360       0.47827099 </v>
   <v>       0.18614715       0.78783595       0.25576791 </v>
   <v>       0.43734784       0.12141468       0.43439519 </v>
   <v>       0.81154360       0.03366985       0.12428879 </v>
   <v>       0.93681115       0.62233786       0.52162450 </v>
   <v>       0.43844223       0.12388198       0.65505128 </v>
   <v>       0.81229354       0.53284590       0.12393496 </v>
   <v>       0.43714521       0.45373972       0.34492480 </v>
   <v>       0.81189583       0.20372859       0.34489296 </v>
   <v>       0.31255360       0.70381750       0.34482173 </v>
   <v>       0.68857249       0.12405901       0.65508455 </v>
   <v>       0.30834186       0.86570845       0.16631897 </v>
   <v>       0.06374141       0.54081729       0.74409546 </v>
   <v>       0.93860192       0.95443473       0.21150221 </v>
   <v>       0.81419390       0.70333192       0.21148475 </v>
   <v>       0.06565113       0.87273520       0.30019743 </v>
   <v>       0.19075695       0.12295205       0.30010514 </v>
   <v>       0.06194631       0.70378096       0.34485411 </v>
   <v>       0.81116960       0.03934452       0.61064758 </v>
   <v>       0.06266710       0.37090100       0.43425562 </v>
   <v>       0.56202630       0.20384002       0.34490883 </v>
   <v>       0.81551043       0.37292259       0.30016138 </v>
   <v>       0.56207295       0.03817938       0.25572460 </v>
   <v>       0.56420821       0.53704624       0.38942289 </v>
   <v>       0.06258934       0.20498825       0.47848400 </v>
   <v>       0.31212948       0.87353342       0.78825043 </v>
   <v>       0.93663659       0.95723907       0.69983921 </v>
   <v>       0.06585145       0.37281594       0.30024369 </v>
   <v>       0.68876088       0.62375971       0.65508303 </v>
   <v>       0.68667225       0.45639028       0.56575766 </v>
   <v>       0.43827112       0.95491853       0.21153872 </v>
   <v>       0.31226057       0.20486085       0.47841470 </v>
   <v>       0.81310397       0.54324658       0.87564503 </v>
   <v>       0.68776496       0.62061438       0.43433119 </v>
   <v>       0.81153305       0.20705354       0.69989580 </v>
   <v>       0.81230054       0.70490490       0.47843454 </v>
   <v>       0.81169324       0.87139177       0.43437711 </v>
   <v>       0.93726180       0.95440772       0.47850787 </v>
   <v>       0.56230205       0.20479543       0.47841884 </v>
   <v>       0.18736845       0.62081209       0.43436344 </v>
   <v>       0.31366226       0.04140939       0.74414383 </v>
   <v>       0.93902590       0.62400726       0.65501188 </v>
   <v>       0.56477643       0.71104578       0.83358862 </v>
   <v>       0.31554501       0.37257384       0.30024480 </v>
   <v>       0.31371741       0.54120092       0.74420314 </v>
   <v>       0.18755525       0.45478814       0.47839336 </v>
   <v>       0.31504509       0.04475054       0.87577184 </v>
   <v>       0.18638529       0.45711312       0.69984979 </v>
   <v>       0.56202096       0.37268437       0.52163877 </v>
   <v>       0.18940691       0.28797266       0.38934529 </v>
   <v>       0.31362662       0.20406962       0.21144748 </v>
   <v>       0.06425390       0.70354681       0.21135409 </v>
   <v>       0.56225664       0.37120790       0.43435062 </v>
   <v>       0.43684580       0.62246830       0.52153395 </v>
   <v>       0.81544328       0.71222391       0.83356933 </v>
   <v>       0.06178911       0.37495682       0.78839528 </v>
   <v>       0.43753469       0.29372129       0.87592202 </v>
   <v>       0.31125280       0.03376494       0.12413632 </v>
   <v>       0.68766991       0.12159475       0.43434134 </v>
   <v>       0.18702239       0.95371633       0.34486483 </v>
   <v>       0.06469935       0.21170809       0.83380761 </v>
   <v>       0.56065999       0.03941965       0.61065090 </v>
   <v>       0.68828874       0.45310417       0.21148476 </v>
   <v>       0.18865178       0.79110496       0.74411398 </v>
   <v>       0.19078183       0.62244425       0.30015350 </v>
   <v>       0.43988857       0.78766328       0.38940201 </v>
   <v>       0.43674586       0.28781120       0.25572980 </v>
   <v>       0.06533862       0.54318693       0.87571866 </v>
   <v>       0.56379864       0.04134124       0.74419911 </v>
   <v>       0.18884935       0.79334555       0.87591282 </v>
   <v>       0.93709639       0.45461510       0.47840979 </v>
   <v>       0.56363876       0.54147051       0.74412141 </v>
   <v>       0.81171038       0.20671057       0.56579919 </v>
   <v>       0.18691329       0.62418290       0.78838425 </v>
   <v>       0.06517420       0.53811846       0.38941812 </v>
   <v>       0.06160775       0.70721492       0.69979157 </v>
   <v>       0.31147724       0.53724311       0.25566664 </v>
   <v>       0.31283961       0.70399750       0.21135267 </v>
   <v>       0.56600728       0.87268065       0.30027620 </v>
   <v>       0.43676318       0.62072376       0.43435135 </v>
   <v>       0.81549099       0.03820720       0.38942808 </v>
   <v>       0.93664999       0.29426425       0.87567480 </v>
   <v>       0.93764065       0.79198548       0.87564310 </v>
   <v>       0.06567182       0.04267711       0.87554982 </v>
   <v>       0.56144842       0.53346392       0.12425395 </v>
   <v>       0.80760057       0.36611554       0.16557475 </v>
   <v>       0.06230156       0.87126874       0.43434401 </v>
   <v>       0.93700912       0.12260964       0.52150354 </v>
   <v>       0.19035856       0.78684615       0.38920448 </v>
   <v>       0.56520122       0.70320562       0.21162943 </v>
  </varray>
 </structure>
</modeling>
