       N       E                     dE             d eps       ncg     rms          rms(c)
DAV:   1     0.292365360733E+05    0.29237E+05   -0.86596E+05 27944   0.197E+03
DAV:   2     0.119775572030E+04   -0.28039E+05   -0.27426E+05 27720   0.605E+02
DAV:   3    -0.194071683961E+04   -0.31385E+04   -0.27263E+04 39088   0.280E+02
DAV:   4    -0.261095444401E+04   -0.67024E+03   -0.61032E+03 50960   0.977E+01
DAV:   5    -0.273114300884E+04   -0.12019E+03   -0.11255E+03 48328   0.398E+01    0.203E+02
RMM:   6    -0.619534788539E+04   -0.34642E+04   -0.13053E+04 48523   0.256E+02    0.683E+02
RMM:   7    -0.416368421345E+04    0.20317E+04   -0.36565E+03 48909   0.103E+02    0.403E+02
RMM:   8    -0.665701380233E+04   -0.24933E+04   -0.12851E+04 44504   0.267E+02    0.791E+02
RMM:   9    -0.701980286318E+04   -0.36279E+03   -0.10368E+04 49865   0.119E+02    0.744E+02
RMM:  10    -0.133872259262E+05   -0.63674E+04   -0.10417E+04 49841   0.196E+02    0.722E+02
RMM:  11    -0.106917745371E+05    0.26955E+04   -0.99549E+03 38342   0.202E+02    0.664E+02
RMM:  12    -0.684947670021E+04    0.38423E+04   -0.54275E+03 30665   0.167E+02    0.525E+02
RMM:  13    -0.650016072756E+04    0.34932E+03   -0.26057E+03 32449   0.130E+02    0.457E+02
RMM:  14    -0.555077013001E+04    0.94939E+03   -0.29802E+03 39165   0.136E+02    0.407E+02
RMM:  15    -0.383073304273E+04    0.17200E+04   -0.11563E+03 28006   0.741E+01    0.364E+02
RMM:  16    -0.270649976251E+04    0.11242E+04   -0.89633E+02 28321   0.591E+01    0.235E+02
RMM:  17    -0.297283624703E+04   -0.26634E+03   -0.18388E+03 38546   0.644E+01    0.251E+02
RMM:  18    -0.268687544804E+04    0.28596E+03   -0.91873E+02 37134   0.374E+01    0.244E+02
RMM:  19    -0.254439005286E+04    0.14249E+03   -0.36127E+02 28096   0.399E+01    0.200E+02
RMM:  20    -0.246787971365E+04    0.76510E+02   -0.47470E+02 34325   0.292E+01    0.148E+02
RMM:  21    -0.242184934887E+04    0.46030E+02   -0.39267E+02 40602   0.204E+01    0.121E+02
RMM:  22    -0.242270613211E+04   -0.85678E+00   -0.22576E+02 40706   0.133E+01    0.118E+02
RMM:  23    -0.238406653514E+04    0.38640E+02   -0.48698E+01 29336   0.130E+01    0.103E+02
RMM:  24    -0.234221430325E+04    0.41852E+02   -0.45987E+01 35263   0.804E+00    0.731E+01
RMM:  25    -0.233829793178E+04    0.39164E+01   -0.36742E+01 32646   0.783E+00    0.631E+01
RMM:  26    -0.234238508978E+04   -0.40872E+01   -0.30418E+01 34426   0.593E+00    0.634E+01
RMM:  27    -0.234337655408E+04   -0.99146E+00   -0.12961E+01 30788   0.603E+00    0.666E+01
RMM:  28    -0.234711361005E+04   -0.37371E+01   -0.11508E+01 41773   0.288E+00    0.696E+01
RMM:  29    -0.235009026194E+04   -0.29767E+01   -0.44475E+00 30430   0.359E+00    0.736E+01
RMM:  30    -0.234950619045E+04    0.58407E+00   -0.43493E+00 29399   0.407E+00    0.747E+01
RMM:  31    -0.234226217722E+04    0.72440E+01   -0.57390E+00 36852   0.278E+00    0.649E+01
RMM:  32    -0.233194780674E+04    0.10314E+02   -0.57867E+00 32630   0.313E+00    0.509E+01
RMM:  33    -0.232536651550E+04    0.65813E+01   -0.13139E+01 37385   0.355E+00    0.396E+01
RMM:  34    -0.232289211430E+04    0.24744E+01   -0.83886E+00 32429   0.361E+00    0.311E+01
RMM:  35    -0.232328142162E+04   -0.38931E+00   -0.59913E+00 34047   0.315E+00    0.319E+01
RMM:  36    -0.232592170593E+04   -0.26403E+01   -0.33881E+00 36047   0.215E+00    0.389E+01
RMM:  37    -0.232683721134E+04   -0.91551E+00   -0.21175E+00 30684   0.228E+00    0.408E+01
RMM:  38    -0.232610325225E+04    0.73396E+00   -0.29005E+00 38549   0.155E+00    0.384E+01
RMM:  39    -0.232544242797E+04    0.66082E+00   -0.23839E+00 31241   0.205E+00    0.340E+01
RMM:  40    -0.232472702112E+04    0.71541E+00   -0.22260E+00 38971   0.143E+00    0.320E+01
RMM:  41    -0.232322034593E+04    0.15067E+01   -0.11849E+00 31774   0.160E+00    0.280E+01
RMM:  42    -0.232192973049E+04    0.12906E+01   -0.17910E+00 29945   0.241E+00    0.248E+01
RMM:  43    -0.232151375857E+04    0.41597E+00   -0.39422E+00 34267   0.269E+00    0.237E+01
RMM:  44    -0.232148631288E+04    0.27446E-01   -0.26541E+00 34515   0.215E+00    0.240E+01
RMM:  45    -0.232154869625E+04   -0.62383E-01   -0.22150E+00 40150   0.146E+00    0.239E+01
RMM:  46    -0.232182502804E+04   -0.27633E+00   -0.12532E+00 39849   0.862E-01    0.244E+01
RMM:  47    -0.232162639015E+04    0.19864E+00   -0.60556E-01 43784   0.376E-01    0.237E+01
RMM:  48    -0.232139556543E+04    0.23082E+00   -0.23412E-01 32036   0.522E-01    0.231E+01
RMM:  49    -0.232061972855E+04    0.77584E+00   -0.31514E-01 30592   0.920E-01    0.209E+01
RMM:  50    -0.231996792766E+04    0.65180E+00   -0.52369E-01 34301   0.947E-01    0.187E+01
RMM:  51    -0.232280424659E+04   -0.28363E+01   -0.11934E+01 34899   0.449E+00    0.299E+01
RMM:  52    -0.232390237539E+04   -0.10981E+01   -0.49074E+00 41224   0.209E+00    0.332E+01
RMM:  53    -0.232178107584E+04    0.21213E+01   -0.20301E+00 31875   0.216E+00    0.263E+01
RMM:  54    -0.231943512998E+04    0.23459E+01   -0.99026E-01 28565   0.200E+00    0.174E+01
RMM:  55    -0.231874175761E+04    0.69337E+00   -0.11846E+00 33779   0.157E+00    0.131E+01
RMM:  56    -0.231931872382E+04   -0.57697E+00   -0.15757E+00 31819   0.196E+00    0.166E+01
RMM:  57    -0.231953119392E+04   -0.21247E+00   -0.16493E+00 35674   0.165E+00    0.175E+01
RMM:  58    -0.231932114901E+04    0.21004E+00   -0.12069E+00 35986   0.138E+00    0.159E+01
RMM:  59    -0.231883397191E+04    0.48718E+00   -0.71582E-01 31835   0.132E+00    0.125E+01
RMM:  60    -0.231853086227E+04    0.30311E+00   -0.55550E-01 30345   0.129E+00    0.100E+01
RMM:  61    -0.231870774372E+04   -0.17688E+00   -0.96233E-01 29534   0.179E+00    0.113E+01
RMM:  62    -0.231828742742E+04    0.42032E+00   -0.41029E-01 28566   0.134E+00    0.735E+00
RMM:  63    -0.231822969508E+04    0.57732E-01   -0.43464E-01 36762   0.764E-01    0.655E+00
RMM:  64    -0.231811363561E+04    0.11606E+00   -0.15829E-01 29233   0.751E-01    0.453E+00
RMM:  65    -0.231808981774E+04    0.23818E-01   -0.96828E-02 28735   0.639E-01    0.432E+00
RMM:  66    -0.231820255920E+04   -0.11274E+00   -0.34497E-01 30314   0.975E-01    0.611E+00
RMM:  67    -0.231817751792E+04    0.25041E-01   -0.15655E-01 28259   0.882E-01    0.580E+00
RMM:  68    -0.231808512655E+04    0.92391E-01   -0.96306E-02 29849   0.563E-01    0.394E+00
RMM:  69    -0.231807868842E+04    0.64381E-02   -0.69736E-02 30353   0.460E-01    0.380E+00
RMM:  70    -0.231803189894E+04    0.46789E-01   -0.49085E-02 32684   0.315E-01    0.221E+00
RMM:  71    -0.231804482622E+04   -0.12927E-01   -0.52149E-02 30703   0.378E-01    0.270E+00
RMM:  72    -0.231803584498E+04    0.89812E-02   -0.38294E-02 31962   0.293E-01    0.236E+00
RMM:  73    -0.231802742315E+04    0.84218E-02   -0.27112E-02 31989   0.255E-01    0.200E+00
RMM:  74    -0.231802010656E+04    0.73166E-02   -0.30063E-02 38926   0.184E-01    0.158E+00
RMM:  75    -0.231801618290E+04    0.39237E-02   -0.17218E-02 34662   0.173E-01    0.134E+00
RMM:  76    -0.231803417226E+04   -0.17989E-01   -0.28114E-02 28130   0.348E-01    0.229E+00
RMM:  77    -0.231801481903E+04    0.19353E-01   -0.94231E-03 27959   0.242E-01    0.129E+00
RMM:  78    -0.231801154307E+04    0.32760E-02   -0.49363E-03 32280   0.106E-01    0.102E+00
RMM:  79    -0.231800832968E+04    0.32134E-02   -0.54312E-03 38142   0.860E-02    0.565E-01
RMM:  80    -0.231800783751E+04    0.49217E-03   -0.23552E-03 32113   0.739E-02    0.450E-01
RMM:  81    -0.231800854624E+04   -0.70873E-03   -0.22678E-03 30321   0.813E-02    0.551E-01
RMM:  82    -0.231800743932E+04    0.11069E-02   -0.96405E-04 28302   0.721E-02    0.281E-01
RMM:  83    -0.231800745310E+04   -0.13779E-04   -0.79242E-04 32099   0.413E-02    0.247E-01
RMM:  84    -0.231800749989E+04   -0.46785E-04   -0.67401E-04 34364   0.337E-02    0.221E-01
RMM:  85    -0.231800738308E+04    0.11680E-03   -0.29411E-04 31440   0.258E-02    0.141E-01
RMM:  86    -0.231800739697E+04   -0.13884E-04   -0.26723E-04 31193   0.257E-02    0.141E-01
RMM:  87    -0.231800738840E+04    0.85693E-05   -0.14248E-04 29721   0.223E-02    0.884E-02
RMM:  88    -0.231800745591E+04   -0.67516E-04   -0.17863E-04 33590   0.166E-02    0.840E-02
RMM:  89    -0.231800751832E+04   -0.62405E-04   -0.11778E-04 33144   0.138E-02    0.772E-02
RMM:  90    -0.231800754601E+04   -0.27692E-04   -0.69683E-05 32325   0.109E-02    0.628E-02
RMM:  91    -0.231800760143E+04   -0.55418E-04   -0.80888E-05 30065   0.147E-02    0.792E-02
RMM:  92    -0.231800761414E+04   -0.12710E-04   -0.35117E-05 28538   0.120E-02    0.515E-02
RMM:  93    -0.231800764615E+04   -0.32011E-04   -0.30323E-05 29663   0.607E-03    0.333E-02
RMM:  94    -0.231800767702E+04   -0.30874E-04   -0.24819E-05 26677   0.472E-03    0.261E-02
RMM:  95    -0.231800772046E+04   -0.43434E-04   -0.17628E-05 26113   0.475E-03    0.242E-02
RMM:  96    -0.231800772309E+04   -0.26380E-05   -0.15442E-05 24854   0.533E-03    0.241E-02
RMM:  97    -0.231800775682E+04   -0.33728E-04   -0.12831E-05 20504   0.428E-03    0.175E-02
RMM:  98    -0.231800778187E+04   -0.25048E-04   -0.95779E-06 18976   0.315E-03    0.141E-02
RMM:  99    -0.231800781084E+04   -0.28970E-04   -0.91893E-06 19128   0.319E-03    0.138E-02
RMM: 100    -0.231800783338E+04   -0.22535E-04   -0.80891E-06 18331   0.288E-03
   1 F= -.23180078E+04 E0= -.23152313E+04  d E =-.231801E+04
       N       E                     dE             d eps       ncg     rms          rms(c)
DAV:   1    -0.231815539545E+04   -0.14758E+00   -0.35099E+01 29064   0.620E+00    0.995E-01
RMM:   2    -0.231934710635E+04   -0.11917E+01   -0.69075E-01 27986   0.171E+00    0.147E+01
RMM:   3    -0.231894128116E+04    0.40583E+00   -0.35235E-01 39020   0.677E-01    0.114E+01
RMM:   4    -0.231902458055E+04   -0.83299E-01   -0.11548E-01 27843   0.763E-01    0.124E+01
RMM:   5    -0.231831809374E+04    0.70649E+00   -0.89963E-02 37240   0.369E-01    0.440E+00
RMM:   6    -0.231839359377E+04   -0.75500E-01   -0.13623E-01 29952   0.596E-01    0.586E+00
RMM:   7    -0.231839044748E+04    0.31463E-02   -0.12030E-01 28311   0.653E-01    0.606E+00
RMM:   8    -0.231831552619E+04    0.74921E-01   -0.63879E-02 29352   0.451E-01    0.475E+00
RMM:   9    -0.231822183366E+04    0.93693E-01   -0.27843E-02 27847   0.358E-01    0.222E+00
RMM:  10    -0.231820917451E+04    0.12659E-01   -0.21799E-02 28078   0.296E-01    0.178E+00
RMM:  11    -0.231820292460E+04    0.62499E-02   -0.30277E-02 31382   0.262E-01    0.142E+00
RMM:  12    -0.231819844234E+04    0.44823E-02   -0.12850E-02 28274   0.227E-01    0.108E+00
RMM:  13    -0.231819412494E+04    0.43174E-02   -0.52101E-03 27808   0.167E-01    0.706E-01
RMM:  14    -0.231819333225E+04    0.79269E-03   -0.48823E-03 33207   0.958E-02    0.582E-01
RMM:  15    -0.231819271801E+04    0.61423E-03   -0.43114E-03 32687   0.941E-02    0.423E-01
RMM:  16    -0.231819184690E+04    0.87112E-03   -0.14070E-03 29042   0.747E-02    0.166E-01
RMM:  17    -0.231819190145E+04   -0.54556E-04   -0.16324E-03 37656   0.403E-02    0.155E-01
RMM:  18    -0.231819194241E+04   -0.40961E-04   -0.63260E-04 31752   0.383E-02    0.162E-01
RMM:  19    -0.231819183373E+04    0.10868E-03   -0.28764E-04 31089   0.282E-02    0.712E-02
RMM:  20    -0.231819185870E+04   -0.24973E-04   -0.30584E-04 39317   0.151E-02    0.758E-02
RMM:  21    -0.231819186286E+04   -0.41610E-05   -0.11087E-04 32246   0.151E-02    0.663E-02
RMM:  22    -0.231819185225E+04    0.10611E-04   -0.67435E-05 33996   0.104E-02    0.397E-02
RMM:  23    -0.231819185479E+04   -0.25370E-05   -0.49089E-05 37228   0.693E-03    0.363E-02
RMM:  24    -0.231819185531E+04   -0.52102E-06   -0.20748E-05 30800   0.672E-03    0.268E-02
RMM:  25    -0.231819185469E+04    0.62524E-06   -0.11559E-05 25904   0.480E-03    0.176E-02
RMM:  26    -0.231819185553E+04   -0.84547E-06   -0.70768E-06 22239   0.299E-03
   2 F= -.23181919E+04 E0= -.23154114E+04  d E =-.184022E+00
       N       E                     dE             d eps       ncg     rms          rms(c)
DAV:   1    -0.231812259534E+04    0.69259E-01   -0.31523E+02 27720   0.187E+01    0.350E+00
RMM:   2    -0.233047616026E+04   -0.12354E+02   -0.85004E+00 27867   0.617E+00    0.472E+01
RMM:   3    -0.233064233031E+04   -0.16617E+00   -0.41208E+00 38877   0.238E+00    0.447E+01
RMM:   4    -0.233804094616E+04   -0.73986E+01   -0.16285E+00 28204   0.263E+00    0.589E+01
RMM:   5    -0.232012983728E+04    0.17911E+02   -0.12155E+00 32693   0.173E+00    0.146E+01
RMM:   6    -0.232260772962E+04   -0.24779E+01   -0.24406E+00 30186   0.248E+00    0.264E+01
RMM:   7    -0.232084644780E+04    0.17613E+01   -0.13859E+00 28179   0.233E+00    0.210E+01
RMM:   8    -0.232033086975E+04    0.51558E+00   -0.79493E-01 28290   0.168E+00    0.182E+01
RMM:   9    -0.231882271618E+04    0.15082E+01   -0.41076E-01 27743   0.150E+00    0.643E+00
RMM:  10    -0.231885605442E+04   -0.33338E-01   -0.50407E-01 28437   0.139E+00    0.746E+00
RMM:  11    -0.231874037839E+04    0.11568E+00   -0.28465E-01 28380   0.109E+00    0.606E+00
RMM:  12    -0.231859301752E+04    0.14736E+00   -0.11759E-01 27904   0.727E-01    0.296E+00
RMM:  13    -0.231856008112E+04    0.32936E-01   -0.84118E-02 30729   0.447E-01    0.189E+00
RMM:  14    -0.231856089377E+04   -0.81265E-03   -0.78391E-02 35588   0.325E-01    0.168E+00
RMM:  15    -0.231856119894E+04   -0.30517E-03   -0.43951E-02 32872   0.299E-01    0.163E+00
RMM:  16    -0.231855035403E+04    0.10845E-01   -0.15264E-02 29048   0.246E-01    0.876E-01
RMM:  17    -0.231855086065E+04   -0.50662E-03   -0.19080E-02 35031   0.173E-01    0.827E-01
RMM:  18    -0.231855063334E+04    0.22731E-03   -0.12190E-02 31069   0.180E-01    0.774E-01
RMM:  19    -0.231854950337E+04    0.11300E-02   -0.59074E-03 30886   0.130E-01    0.622E-01
RMM:  20    -0.231854923064E+04    0.27273E-03   -0.55851E-03 35663   0.897E-02    0.549E-01
RMM:  21    -0.231854798671E+04    0.12439E-02   -0.17279E-03 29525   0.802E-02    0.275E-01
RMM:  22    -0.231854794662E+04    0.40096E-04   -0.17825E-03 39548   0.397E-02    0.217E-01
RMM:  23    -0.231854800196E+04   -0.55347E-04   -0.84703E-04 34134   0.365E-02    0.220E-01
RMM:  24    -0.231854785213E+04    0.14983E-03   -0.33265E-04 30775   0.309E-02    0.137E-01
RMM:  25    -0.231854783053E+04    0.21602E-04   -0.32041E-04 35278   0.209E-02    0.107E-01
RMM:  26    -0.231854783123E+04   -0.69663E-06   -0.24267E-04 34898   0.189E-02    0.100E-01
RMM:  27    -0.231854780965E+04    0.21574E-04   -0.10268E-04 31552   0.154E-02    0.727E-02
RMM:  28    -0.231854780875E+04    0.90472E-06   -0.96067E-05 39062   0.833E-03    0.620E-02
RMM:  29    -0.231854780351E+04    0.52398E-05   -0.40442E-05 34595   0.575E-03    0.476E-02
RMM:  30    -0.231854779484E+04    0.86668E-05   -0.13428E-05 27286   0.511E-03    0.230E-02
RMM:  31    -0.231854779410E+04    0.74445E-06   -0.76011E-06 22966   0.417E-03
   3 F= -.23185478E+04 E0= -.23157566E+04  d E =-.539961E+00
       N       E                     dE             d eps       ncg     rms          rms(c)
DAV:   1    -0.231612453030E+04    0.24233E+01   -0.12599E+03 27720   0.379E+01    0.770E+00
RMM:   2    -0.237270926484E+04   -0.56585E+02   -0.46227E+01 27853   0.136E+01    0.981E+01
RMM:   3    -0.239442797526E+04   -0.21719E+02   -0.21929E+01 38516   0.556E+00    0.109E+02
RMM:   4    -0.241925135716E+04   -0.24823E+02   -0.10484E+01 29347   0.592E+00    0.125E+02
RMM:   5    -0.232444647437E+04    0.94805E+02   -0.57827E+00 31116   0.408E+00    0.306E+01
RMM:   6    -0.233431835561E+04   -0.98719E+01   -0.89074E+00 32146   0.434E+00    0.514E+01
RMM:   7    -0.233148929663E+04    0.28291E+01   -0.67238E+00 29353   0.464E+00    0.466E+01
RMM:   8    -0.232479335739E+04    0.66959E+01   -0.41157E+00 27793   0.423E+00    0.338E+01
RMM:   9    -0.232035367609E+04    0.44397E+01   -0.24201E+00 27753   0.361E+00    0.183E+01
RMM:  10    -0.231961855397E+04    0.73512E+00   -0.20037E+00 27950   0.305E+00    0.148E+01
RMM:  11    -0.231895452142E+04    0.66403E+00   -0.89121E-01 27773   0.217E+00    0.105E+01
RMM:  12    -0.231852972899E+04    0.42479E+00   -0.48536E-01 28847   0.122E+00    0.537E+00
RMM:  13    -0.231846437736E+04    0.65352E-01   -0.42657E-01 31584   0.949E-01    0.401E+00
RMM:  14    -0.231850205178E+04   -0.37674E-01   -0.41180E-01 32895   0.899E-01    0.458E+00
RMM:  15    -0.231845888179E+04    0.43170E-01   -0.14368E-01 28778   0.736E-01    0.390E+00
RMM:  16    -0.231845500990E+04    0.38719E-02   -0.15064E-01 37300   0.385E-01    0.362E+00
RMM:  17    -0.231845141529E+04    0.35946E-02   -0.74396E-02 37968   0.296E-01    0.329E+00
RMM:  18    -0.231844443422E+04    0.69811E-02   -0.28768E-02 30658   0.287E-01    0.292E+00
RMM:  19    -0.231842638324E+04    0.18051E-01   -0.35518E-02 30240   0.325E-01    0.222E+00
RMM:  20    -0.231841292486E+04    0.13458E-01   -0.19682E-02 29216   0.271E-01    0.178E+00
RMM:  21    -0.231841505760E+04   -0.21327E-02   -0.13125E-02 30819   0.192E-01    0.192E+00
RMM:  22    -0.231841716848E+04   -0.21109E-02   -0.13221E-02 41540   0.926E-02    0.200E+00
RMM:  23    -0.231841615260E+04    0.10159E-02   -0.34708E-03 34345   0.695E-02    0.194E+00
RMM:  24    -0.231841071082E+04    0.54418E-02   -0.34422E-03 31935   0.875E-02    0.159E+00
RMM:  25    -0.231840041070E+04    0.10300E-01   -0.29860E-03 28282   0.111E-01    0.600E-01
RMM:  26    -0.231839908942E+04    0.13213E-02   -0.24511E-03 29305   0.934E-02    0.366E-01
RMM:  27    -0.231839950806E+04   -0.41864E-03   -0.29659E-03 32104   0.803E-02    0.454E-01
RMM:  28    -0.231839939836E+04    0.10970E-03   -0.10649E-03 29337   0.639E-02    0.446E-01
RMM:  29    -0.231839931891E+04    0.79454E-04   -0.10996E-03 36524   0.350E-02    0.411E-01
RMM:  30    -0.231839918804E+04    0.13086E-03   -0.54774E-04 32651   0.326E-02    0.366E-01
RMM:  31    -0.231839889431E+04    0.29374E-03   -0.28374E-04 30614   0.284E-02    0.259E-01
RMM:  32    -0.231839879653E+04    0.97776E-04   -0.27506E-04 33659   0.221E-02    0.206E-01
RMM:  33    -0.231839868573E+04    0.11080E-03   -0.25054E-04 32062   0.238E-02    0.134E-01
RMM:  34    -0.231839861844E+04    0.67285E-04   -0.91013E-05 28836   0.197E-02    0.800E-02
RMM:  35    -0.231839862153E+04   -0.30844E-05   -0.10291E-04 37480   0.104E-02    0.761E-02
RMM:  36    -0.231839861587E+04    0.56601E-05   -0.52657E-05 33617   0.970E-03    0.615E-02
RMM:  37    -0.231839860311E+04    0.12755E-04   -0.22510E-05 30235   0.773E-03    0.346E-02
RMM:  38    -0.231839860313E+04   -0.21391E-07   -0.22460E-05 31486   0.454E-03    0.304E-02
RMM:  39    -0.231839860131E+04    0.18271E-05   -0.10952E-05 27423   0.502E-03    0.228E-02
RMM:  40    -0.231839859976E+04    0.15492E-05   -0.46876E-06 20531   0.389E-03    0.149E-02
RMM:  41    -0.231839859977E+04   -0.15716E-07   -0.34522E-06 19294   0.248E-03
   4 F= -.23183986E+04 E0= -.23155939E+04  d E =-.390766E+00
       N       E                     dE             d eps       ncg     rms          rms(c)
DAV:   1    -0.231786529893E+04    0.53330E+00   -0.50212E+02 27720   0.237E+01    0.430E+00
RMM:   2    -0.232748351902E+04   -0.96182E+01   -0.13191E+01 27843   0.740E+00    0.404E+01
RMM:   3    -0.233824803498E+04   -0.10765E+02   -0.51218E+00 39797   0.247E+00    0.604E+01
RMM:   4    -0.233999519441E+04   -0.17472E+01   -0.21289E+00 28558   0.283E+00    0.617E+01
RMM:   5    -0.232192874050E+04    0.18066E+02   -0.16209E+00 29853   0.227E+00    0.228E+01
RMM:   6    -0.232368121544E+04   -0.17525E+01   -0.34863E+00 30877   0.291E+00    0.299E+01
RMM:   7    -0.232091324197E+04    0.27680E+01   -0.18439E+00 27855   0.276E+00    0.199E+01
RMM:   8    -0.232130817468E+04   -0.39493E+00   -0.92606E-01 27888   0.200E+00    0.225E+01
RMM:   9    -0.231923087158E+04    0.20773E+01   -0.50492E-01 28260   0.140E+00    0.999E+00
RMM:  10    -0.231915364096E+04    0.77231E-01   -0.65853E-01 27823   0.168E+00    0.102E+01
RMM:  11    -0.231897692221E+04    0.17672E+00   -0.58527E-01 29810   0.132E+00    0.771E+00
RMM:  12    -0.231873881359E+04    0.23811E+00   -0.23184E-01 27827   0.111E+00    0.472E+00
RMM:  13    -0.231869219377E+04    0.46620E-01   -0.15381E-01 30681   0.640E-01    0.376E+00
RMM:  14    -0.231867361786E+04    0.18576E-01   -0.15876E-01 33808   0.537E-01    0.308E+00
RMM:  15    -0.231863129365E+04    0.42324E-01   -0.44732E-02 27845   0.447E-01    0.134E+00
RMM:  16    -0.231863179213E+04   -0.49849E-03   -0.47593E-02 35944   0.256E-01    0.125E+00
RMM:  17    -0.231863289163E+04   -0.10995E-02   -0.25603E-02 33759   0.218E-01    0.128E+00
RMM:  18    -0.231862765637E+04    0.52353E-02   -0.92366E-03 30247   0.170E-01    0.793E-01
RMM:  19    -0.231862769540E+04   -0.39030E-04   -0.10169E-02 38609   0.102E-01    0.724E-01
RMM:  20    -0.231862691446E+04    0.78095E-03   -0.50382E-03 31813   0.105E-01    0.557E-01
RMM:  21    -0.231862579024E+04    0.11242E-02   -0.21618E-03 29861   0.874E-02    0.314E-01
RMM:  22    -0.231862596665E+04   -0.17642E-03   -0.26373E-03 36474   0.559E-02    0.326E-01
RMM:  23    -0.231862577496E+04    0.19169E-03   -0.12159E-03 31461   0.545E-02    0.246E-01
RMM:  24    -0.231862551333E+04    0.26163E-03   -0.53848E-04 30741   0.399E-02    0.111E-01
RMM:  25    -0.231862553504E+04   -0.21705E-04   -0.63276E-04 40081   0.215E-02    0.945E-02
RMM:  26    -0.231862553814E+04   -0.31017E-05   -0.24150E-04 33633   0.201E-02    0.855E-02
RMM:  27    -0.231862550982E+04    0.28326E-04   -0.10560E-04 31997   0.152E-02    0.393E-02
RMM:  28    -0.231862551567E+04   -0.58582E-05   -0.10811E-04 40789   0.864E-03    0.362E-02
RMM:  29    -0.231862552280E+04   -0.71288E-05   -0.44880E-05 33556   0.845E-03    0.479E-02
RMM:  30    -0.231862552138E+04    0.14212E-05   -0.20578E-05 30469   0.689E-03    0.435E-02
RMM:  31    -0.231862551957E+04    0.18110E-05   -0.15845E-05 28513   0.449E-03    0.372E-02
RMM:  32    -0.231862551448E+04    0.50886E-05   -0.70203E-06 23374   0.436E-03    0.195E-02
RMM:  33    -0.231862551269E+04    0.17941E-05   -0.30368E-06 18627   0.363E-03    0.795E-03
RMM:  34    -0.231862551269E+04   -0.14552E-08   -0.21740E-06 18351   0.208E-03
   5 F= -.23186255E+04 E0= -.23158280E+04  d E =-.617679E+00
