<?xml version="1.0" encoding="ISO-8859-1"?>
<modeling>
 <generator>
  <i name="program" type="string">vasp </i>
  <i name="version" type="string">5.4.4.18Apr17-6-g9f103f2a35  </i>
  <i name="subversion" type="string">(build Sep 27 2018 12:46:37) complex + VL-xray_ parallel </i>
  <i name="platform" type="string">LLNL_Quartz_ifc </i>
  <i name="date" type="string">2021 09 26 </i>
  <i name="time" type="string">20:42:36 </i>
 </generator>
 <incar>
  <i type="int" name="ISTART">     2</i>
  <i type="string" name="PREC">accurate</i>
  <i type="string" name="ALGO"> Fast</i>
  <i type="int" name="ICHARG">     2</i>
  <i type="int" name="INIWAV">     1</i>
  <i type="int" name="NELM">   100</i>
  <i type="int" name="NELMIN">     4</i>
  <i type="int" name="IBRION">     2</i>
  <i name="EDIFF">      0.00000100</i>
  <i type="int" name="NSW">     5</i>
  <i type="int" name="ISIF">     2</i>
  <i type="int" name="ISYM">     2</i>
  <i name="ENCUT">    450.00000000</i>
  <i name="POTIM">      0.25000000</i>
  <i type="string" name="LREAL"> Auto</i>
  <i type="int" name="ISMEAR">     0</i>
  <i name="SIGMA">      0.15000000</i>
  <i type="logical" name="LWAVE"> F  </i>
  <i type="logical" name="LCHARG"> F  </i>
  <i type="int" name="ICORELEVEL">     0</i>
  <i type="int" name="CLNT">     1</i>
  <i type="int" name="CLN">     1</i>
  <i type="int" name="INCAR     ">     0</i>
  <i name="CLZ">      0.00000000</i>
  <v type="int" name="KPOINT_BSE">    -1     0     0     0</v>
  <i type="int" name="NELM">   100</i>
 </incar>
 <structure name="primitive_cell" >
  <crystal>
   <varray name="basis" >
    <v>       9.72667804       0.00000000       0.00000000 </v>
    <v>       0.00000000       8.42355028       0.00000000 </v>
    <v>       0.00000000       0.00000000      45.00000000 </v>
   </varray>
   <i name="volume">   3686.99226691 </i>
   <varray name="rec_basis" >
    <v>       0.10281002       0.00000000       0.00000000 </v>
    <v>       0.00000000       0.11871479       0.00000000 </v>
    <v>       0.00000000       0.00000000       0.02222222 </v>
   </varray>
  </crystal>
  <varray name="positions" >
   <v>       0.06092962       0.03149441       0.12449176 </v>
   <v>      -0.05794949       0.11227513       0.16681245 </v>
   <v>      -0.06174534      -0.21271944       0.12469220 </v>
   <v>       0.06696406      -0.13753078       0.16685378 </v>
   <v>      -0.18574875       0.03272837       0.12452273 </v>
   <v>       0.18958701      -0.21417631       0.12471687 </v>
   <v>       0.19382898       0.11348705       0.16728717 </v>
   <v>       0.31212201       0.03127169       0.12461656 </v>
   <v>      -0.06086607       0.28556198       0.12465694 </v>
   <v>       0.19021356       0.28674516       0.12455997 </v>
   <v>      -0.18184552      -0.13762403       0.16691391 </v>
   <v>       0.06811397       0.36331719       0.16692624 </v>
   <v>       0.31807452      -0.13658691       0.16694241 </v>
   <v>      -0.30775892       0.11276078       0.16713852 </v>
   <v>      -0.18159905       0.36224374       0.16719928 </v>
   <v>      -0.31016706      -0.21440438       0.12469055 </v>
   <v>       0.18317570      -0.04548489       0.21196006 </v>
   <v>      -0.05704417      -0.38637621       0.16684293 </v>
   <v>      -0.06684804      -0.04564093       0.21195113 </v>
   <v>      -0.30968550       0.28694071       0.12460379 </v>
   <v>       0.05833968       0.20518995       0.21194179 </v>
   <v>       0.31902168       0.36336673       0.16644194 </v>
   <v>       0.19207952      -0.38732420       0.16677547 </v>
   <v>       0.06284088      -0.46790690       0.12447415 </v>
   <v>       0.43962351      -0.21249446       0.12438925 </v>
   <v>       0.44235291       0.11300038       0.16693699 </v>
   <v>       0.43945374       0.28697303       0.12459303 </v>
   <v>       0.05710481      -0.29569669       0.21177765 </v>
   <v>       0.30692783       0.20434310       0.21181934 </v>
   <v>      -0.43739102       0.03140040       0.12464333 </v>
   <v>      -0.18824799      -0.46795055       0.12438322 </v>
   <v>       0.31250777      -0.46986795       0.12436280 </v>
   <v>      -0.19268876       0.20481504       0.21188029 </v>
   <v>      -0.43238299      -0.13642427       0.16696964 </v>
   <v>      -0.30637342      -0.38608058       0.16689993 </v>
   <v>       0.30811307      -0.29596351       0.21175137 </v>
   <v>       0.43318648      -0.04576612       0.21185152 </v>
   <v>      -0.19152789      -0.29557029       0.21168148 </v>
   <v>      -0.31792678      -0.04520990       0.21198935 </v>
   <v>       0.18196467       0.45455278       0.21201816 </v>
   <v>      -0.06660297       0.45410024       0.21189598 </v>
   <v>       0.44246235      -0.38861066       0.16695820 </v>
   <v>      -0.43194399       0.36354302       0.16690870 </v>
   <v>       0.06583166       0.03637490       0.25593503 </v>
   <v>      -0.05908615      -0.21334285       0.25615446 </v>
   <v>      -0.18429503       0.03607493       0.25607343 </v>
   <v>      -0.44189269       0.20392491       0.21171041 </v>
   <v>       0.19088315      -0.21382607       0.25613512 </v>
   <v>      -0.05899251       0.28658715       0.25593752 </v>
   <v>       0.31575789       0.03628617       0.25594504 </v>
   <v>      -0.43720775      -0.46933123       0.12437883 </v>
   <v>       0.19116932       0.28707883       0.25591249 </v>
   <v>       0.43340615       0.45518497       0.21194217 </v>
   <v>      -0.31686575       0.45407474       0.21179471 </v>
   <v>      -0.44283748      -0.29602389       0.21172212 </v>
   <v>      -0.30924920      -0.21357406       0.25602639 </v>
   <v>       0.06581584      -0.46353913       0.25614148 </v>
   <v>      -0.30911272       0.28667958       0.25605228 </v>
   <v>       0.44098233      -0.21354309       0.25605275 </v>
   <v>       0.44103793       0.28682083       0.25600991 </v>
   <v>      -0.43399570       0.03668201       0.25587573 </v>
   <v>      -0.18476985      -0.46339309       0.25606211 </v>
   <v>       0.31547606      -0.46360491       0.25603765 </v>
   <v>       0.05433049      -0.12723871       0.30031171 </v>
   <v>       0.17946104       0.12322919       0.30030775 </v>
   <v>      -0.07073716       0.12307360       0.30036745 </v>
   <v>       0.30446167      -0.12689873       0.30032850 </v>
   <v>      -0.19562867      -0.12726580       0.30030516 </v>
   <v>       0.05419231       0.37261015       0.30037375 </v>
   <v>      -0.43403386      -0.46350763       0.25600014 </v>
   <v>       0.17938481      -0.37685168       0.30026407 </v>
   <v>       0.42925636       0.12267433       0.30037166 </v>
   <v>      -0.07068638      -0.37699699       0.30034837 </v>
   <v>       0.30430687       0.37268552       0.30035949 </v>
   <v>      -0.32060958       0.12297573       0.30033722 </v>
   <v>      -0.19583003       0.37281328       0.30034052 </v>
   <v>       0.42940771      -0.37690206       0.30033842 </v>
   <v>      -0.44567580      -0.12769054       0.30041224 </v>
   <v>      -0.32053153      -0.37681864       0.30020435 </v>
   <v>      -0.44575518       0.37284977       0.30036063 </v>
   <v>      -0.05849280      -0.04780288       0.34502395 </v>
   <v>       0.06608282       0.20167833       0.34492397 </v>
   <v>       0.19135862      -0.04809997       0.34497811 </v>
   <v>      -0.18351540       0.20164056       0.34493839 </v>
   <v>       0.06641966      -0.29813570       0.34497817 </v>
   <v>       0.31616619       0.20198905       0.34489393 </v>
   <v>      -0.30867247      -0.04789239       0.34494331 </v>
   <v>      -0.18346385      -0.29801130       0.34499133 </v>
   <v>      -0.05868766       0.45196507       0.34493511 </v>
   <v>       0.31646037      -0.29808554       0.34495712 </v>
   <v>       0.44134178      -0.04787333       0.34490586 </v>
   <v>       0.19138468       0.45180469       0.34498457 </v>
   <v>      -0.43364818       0.20182951       0.34494159 </v>
   <v>      -0.30868974       0.45190686       0.34495829 </v>
   <v>       0.44131917       0.45191751       0.34497423 </v>
   <v>       0.06369892       0.04205901      -0.12437966 </v>
   <v>      -0.43377807      -0.29756900       0.34497264 </v>
   <v>      -0.06083790      -0.20597913      -0.12436979 </v>
   <v>       0.18904292      -0.20606237      -0.12434545 </v>
   <v>      -0.18618926       0.04200976      -0.12438359 </v>
   <v>       0.31380008       0.04217945      -0.12437344 </v>
   <v>      -0.06095317       0.29381572      -0.12436500 </v>
   <v>       0.18898807       0.29381608      -0.12434723 </v>
   <v>       0.05868608       0.03751162       0.38903876 </v>
   <v>       0.06368479      -0.45814003      -0.12439845 </v>
   <v>      -0.31096896      -0.20596693      -0.12434259 </v>
   <v>       0.43901740      -0.20604208      -0.12436866 </v>
   <v>      -0.31102082       0.29395336      -0.12437419 </v>
   <v>       0.43910784       0.29385739      -0.12436266 </v>
   <v>       0.18342136      -0.21233349       0.38907080 </v>
   <v>      -0.06633151      -0.21245647       0.38907120 </v>
   <v>       0.30854425       0.03754980       0.38907210 </v>
   <v>      -0.19130603       0.03745484       0.38899843 </v>
   <v>       0.18364294       0.28778591       0.38905995 </v>
   <v>      -0.06632492       0.28756808       0.38903954 </v>
   <v>      -0.18643600      -0.45807117      -0.12442229 </v>
   <v>       0.31350664      -0.45804875      -0.12440593 </v>
   <v>      -0.43612498       0.04194606      -0.12439475 </v>
   <v>       0.05861581      -0.46236735       0.38906527 </v>
   <v>       0.43402499      -0.21263630       0.38901384 </v>
   <v>      -0.31634291      -0.21246166       0.38904534 </v>
   <v>       0.43344659       0.28763787       0.38907170 </v>
   <v>      -0.31634399       0.28758948       0.38907527 </v>
   <v>       0.30875842      -0.46241285       0.38900678 </v>
   <v>      -0.19159361      -0.46242163       0.38907248 </v>
   <v>      -0.44127992       0.03741350       0.38908069 </v>
   <v>      -0.43640298      -0.45810636      -0.12443701 </v>
   <v>       0.18346992      -0.03706689      -0.16689008 </v>
   <v>      -0.06655086      -0.03729937      -0.16684799 </v>
   <v>       0.05847534       0.21276708      -0.16684975 </v>
   <v>       0.05846989      -0.28727110      -0.16683369 </v>
   <v>       0.30857653       0.21273606      -0.16683728 </v>
   <v>      -0.19151635       0.21269002      -0.16683644 </v>
   <v>      -0.44134230      -0.46251711       0.38910045 </v>
   <v>       0.30840660      -0.28728574      -0.16683527 </v>
   <v>      -0.19160523      -0.28726290      -0.16684815 </v>
   <v>       0.43348559      -0.03732972      -0.16684902 </v>
   <v>      -0.31645822      -0.03730319      -0.16684874 </v>
   <v>       0.18345600       0.46275034      -0.16685869 </v>
   <v>      -0.06658422       0.46265702      -0.16685957 </v>
   <v>       0.06267360      -0.12961676       0.43446033 </v>
   <v>      -0.06190864       0.12035032       0.43442523 </v>
   <v>       0.18802578       0.12019316       0.43449493 </v>
   <v>      -0.44161049       0.21284835      -0.16685166 </v>
   <v>       0.43340348       0.46269183      -0.16687797 </v>
   <v>      -0.31660571       0.46269831      -0.16684726 </v>
   <v>      -0.18703061      -0.12949075       0.43445338 </v>
   <v>       0.31318013      -0.12921990       0.43437060 </v>
   <v>      -0.44148839      -0.28725634      -0.16684360 </v>
   <v>       0.06305219       0.37042988       0.43443473 </v>
   <v>       0.18814464      -0.37922154       0.43431769 </v>
   <v>      -0.06237549      -0.37963419       0.43443790 </v>
   <v>      -0.31252656       0.12053789       0.43445359 </v>
   <v>       0.31199547       0.37091975       0.43429165 </v>
   <v>       0.43774621       0.12045345       0.43444192 </v>
   <v>      -0.18744202       0.37044850       0.43445443 </v>
   <v>      -0.31199771      -0.37961347       0.43439256 </v>
   <v>      -0.43734606      -0.12886844       0.43436849 </v>
   <v>       0.43780859      -0.37935518       0.43453073 </v>
   <v>      -0.43654226       0.37051710       0.43422251 </v>
   <v>       0.06917196      -0.12659054      -0.21155397 </v>
   <v>      -0.05586206       0.12352945      -0.21156378 </v>
   <v>       0.19394063       0.12334045      -0.21146757 </v>
   <v>      -0.18066910      -0.12650266      -0.21161101 </v>
   <v>       0.31916205      -0.12666734      -0.21152486 </v>
   <v>       0.06902427       0.37339068      -0.21158341 </v>
   <v>      -0.05583964      -0.37657436      -0.21151599 </v>
   <v>      -0.30611900       0.12347738      -0.21154803 </v>
   <v>       0.19431569      -0.37671627      -0.21155215 </v>
   <v>      -0.18084888       0.37335795      -0.21156177 </v>
   <v>       0.44408552       0.12314693      -0.21155389 </v>
   <v>       0.31906980       0.37341342      -0.21157684 </v>
   <v>      -0.30547755      -0.37655045      -0.21153200 </v>
   <v>      -0.43094810      -0.12654799      -0.21156707 </v>
   <v>       0.44461237      -0.37667308      -0.21151463 </v>
   <v>      -0.06229433      -0.04419889       0.47857592 </v>
   <v>       0.18788166      -0.04419545       0.47858740 </v>
   <v>       0.06278047       0.20586907       0.47860773 </v>
   <v>      -0.43076990       0.37324538      -0.21156243 </v>
   <v>       0.06322483      -0.29472937       0.47856966 </v>
   <v>      -0.18719498       0.20583216       0.47861524 </v>
   <v>       0.31278401       0.20588025       0.47859253 </v>
   <v>      -0.18725449      -0.29403324       0.47864165 </v>
   <v>       0.31233247      -0.29438702       0.47866161 </v>
   <v>      -0.31225324      -0.04427048       0.47861808 </v>
   <v>       0.43787905      -0.04418347       0.47860998 </v>
   <v>      -0.06229011       0.45566962       0.47864358 </v>
   <v>       0.18787288       0.45585071       0.47860923 </v>
   <v>      -0.43726010       0.20562513       0.47846351 </v>
   <v>      -0.31220361       0.45578624       0.47864610 </v>
   <v>       0.43777473       0.45565050       0.47866503 </v>
   <v>      -0.43708179      -0.29430755       0.47863441 </v>
   <v>       0.06014671       0.04113663      -0.25595580 </v>
   <v>      -0.06478966      -0.20881880      -0.25585440 </v>
   <v>       0.18510644      -0.20919342      -0.25597358 </v>
   <v>       0.31009122       0.04117653      -0.25590995 </v>
   <v>      -0.18974925       0.04102469      -0.25590572 </v>
   <v>      -0.06464448       0.29147956      -0.25582725 </v>
   <v>       0.18507972       0.29078394      -0.25593372 </v>
   <v>       0.05999969      -0.45898191      -0.25590910 </v>
   <v>      -0.31471346      -0.20867401      -0.25585549 </v>
   <v>       0.43528325      -0.20903754      -0.25591580 </v>
   <v>      -0.31469049       0.29136117      -0.25583048 </v>
   <v>       0.43512535       0.29089340      -0.25592086 </v>
   <v>       0.31011698      -0.45889658      -0.25591256 </v>
   <v>      -0.18995697      -0.45889473      -0.25603316 </v>
   <v>      -0.43992743       0.04102728      -0.25594004 </v>
   <v>       0.06320376      -0.12825055      -0.47874989 </v>
   <v>      -0.06150386       0.12194467      -0.47872375 </v>
   <v>       0.18831665       0.12207738      -0.47877789 </v>
   <v>      -0.18670229      -0.12800368      -0.47862875 </v>
   <v>       0.31355150      -0.12774052      -0.47869958 </v>
   <v>       0.06339196       0.37228376      -0.47868024 </v>
   <v>      -0.06163321      -0.37824648      -0.47869006 </v>
   <v>       0.18821286      -0.37813793      -0.47863883 </v>
   <v>      -0.31136411       0.12188509      -0.47871475 </v>
   <v>      -0.18674838       0.37177895      -0.47869914 </v>
   <v>       0.43819332       0.12195721      -0.47863572 </v>
   <v>       0.31323825       0.37184683      -0.47863754 </v>
   <v>      -0.43991392      -0.45890885      -0.25595890 </v>
   <v>      -0.31154456      -0.37797252      -0.47867405 </v>
   <v>      -0.43697398      -0.12759114      -0.47864810 </v>
   <v>       0.43827087      -0.37803326      -0.47864438 </v>
   <v>      -0.43648763       0.37200130      -0.47873569 </v>
   <v>      -0.06048604      -0.04206600      -0.30033582 </v>
   <v>       0.18949259      -0.04220007      -0.30037921 </v>
   <v>       0.06495317       0.20843200      -0.30034130 </v>
   <v>       0.06503417      -0.29219314      -0.30034768 </v>
   <v>      -0.18539139       0.20776430      -0.30041464 </v>
   <v>       0.31453866       0.20823910      -0.30031770 </v>
   <v>      -0.18540027      -0.29232858      -0.30034015 </v>
   <v>      -0.31035558      -0.04204974      -0.30033918 </v>
   <v>       0.31440828      -0.29219020      -0.30033932 </v>
   <v>       0.44007646      -0.04225740      -0.30032433 </v>
   <v>      -0.06018638       0.45802616      -0.30031936 </v>
   <v>       0.19081711       0.45683041      -0.30042195 </v>
   <v>      -0.43567360       0.20766361      -0.30032976 </v>
   <v>      -0.31003119       0.45780024      -0.30037121 </v>
   <v>       0.43962684       0.45768478      -0.30037938 </v>
   <v>      -0.06179891      -0.04215134      -0.43461499 </v>
   <v>       0.18854328      -0.04313090      -0.43467610 </v>
   <v>       0.06350753       0.20757418      -0.43453981 </v>
   <v>      -0.43573397      -0.29175704      -0.30033344 </v>
   <v>       0.06351381      -0.29296842      -0.43449734 </v>
   <v>      -0.18624958       0.20779512      -0.43457011 </v>
   <v>       0.31384170       0.20715262      -0.43453695 </v>
   <v>      -0.18666409      -0.29198231      -0.43467056 </v>
   <v>      -0.31140688      -0.04233783      -0.43462822 </v>
   <v>       0.31309087      -0.29263920      -0.43452195 </v>
   <v>       0.43860258      -0.04250038      -0.43453226 </v>
   <v>      -0.06140059       0.45746681      -0.43461502 </v>
   <v>       0.18880925       0.45767843      -0.43456827 </v>
   <v>      -0.43727520       0.20756348      -0.43462259 </v>
   <v>      -0.31170955       0.45794121      -0.43456649 </v>
   <v>       0.43809970       0.45795031      -0.43467942 </v>
   <v>      -0.43650208      -0.29221733      -0.43469901 </v>
   <v>       0.05887778      -0.12455019      -0.34507784 </v>
   <v>       0.18365440       0.12508655      -0.34508361 </v>
   <v>      -0.06664133       0.12545420      -0.34515271 </v>
   <v>       0.30863750      -0.12467856      -0.34512071 </v>
   <v>      -0.19152656      -0.12476921      -0.34516906 </v>
   <v>       0.05838774       0.37539663      -0.34516751 </v>
   <v>       0.18378248      -0.37463739      -0.34502935 </v>
   <v>      -0.06639227      -0.37534979      -0.34512084 </v>
   <v>       0.43366661       0.12527687      -0.34513027 </v>
   <v>      -0.31613475       0.12553776      -0.34504103 </v>
   <v>       0.30876517       0.37533744      -0.34507319 </v>
   <v>      -0.19192416       0.37542643      -0.34528427 </v>
   <v>       0.43384603      -0.37437045      -0.34507292 </v>
   <v>      -0.44148971      -0.12470348      -0.34510869 </v>
   <v>      -0.31634005      -0.37497862      -0.34513198 </v>
   <v>      -0.44118685       0.37558889      -0.34503954 </v>
   <v>       0.06342506       0.04102310      -0.38934047 </v>
   <v>       0.18811465      -0.20851061      -0.38930188 </v>
   <v>      -0.06210661      -0.20825026      -0.38919841 </v>
   <v>      -0.18674826       0.04147298      -0.38924503 </v>
   <v>       0.31330592       0.04100999      -0.38931485 </v>
   <v>      -0.06177834       0.29125779      -0.38937351 </v>
   <v>       0.18858272       0.29105838      -0.38922941 </v>
   <v>       0.06266122      -0.45835874      -0.38914905 </v>
   <v>      -0.31173996      -0.20857070      -0.38921147 </v>
   <v>       0.43817231      -0.20915435      -0.38932275 </v>
   <v>      -0.31149106       0.29134414      -0.38933477 </v>
   <v>       0.43859649       0.29040153      -0.38932389 </v>
   <v>       0.31331566      -0.45902213      -0.38933719 </v>
   <v>      -0.18731085      -0.45822093      -0.38915048 </v>
   <v>      -0.43697674       0.04094201      -0.38929038 </v>
   <v>      -0.43679261      -0.45881152      -0.38923838 </v>
  </varray>
 </structure>
 <varray name="primitive_index" >
  <v type="int" >        1 </v>
  <v type="int" >       26 </v>
  <v type="int" >      286 </v>
  <v type="int" >       60 </v>
  <v type="int" >      202 </v>
  <v type="int" >       83 </v>
  <v type="int" >      125 </v>
  <v type="int" >      256 </v>
  <v type="int" >      155 </v>
  <v type="int" >      111 </v>
  <v type="int" >      102 </v>
  <v type="int" >       51 </v>
  <v type="int" >      192 </v>
  <v type="int" >      166 </v>
  <v type="int" >      252 </v>
  <v type="int" >      163 </v>
  <v type="int" >      146 </v>
  <v type="int" >      104 </v>
  <v type="int" >      212 </v>
  <v type="int" >      145 </v>
  <v type="int" >       50 </v>
  <v type="int" >      283 </v>
  <v type="int" >       20 </v>
  <v type="int" >      176 </v>
  <v type="int" >      246 </v>
  <v type="int" >      182 </v>
  <v type="int" >      117 </v>
  <v type="int" >      250 </v>
  <v type="int" >      123 </v>
  <v type="int" >      251 </v>
  <v type="int" >      205 </v>
  <v type="int" >       91 </v>
  <v type="int" >      167 </v>
  <v type="int" >      277 </v>
  <v type="int" >       97 </v>
  <v type="int" >      276 </v>
  <v type="int" >      229 </v>
  <v type="int" >      213 </v>
  <v type="int" >       92 </v>
  <v type="int" >      189 </v>
  <v type="int" >      175 </v>
  <v type="int" >      174 </v>
  <v type="int" >       30 </v>
  <v type="int" >      185 </v>
  <v type="int" >       52 </v>
  <v type="int" >       24 </v>
  <v type="int" >      103 </v>
  <v type="int" >      200 </v>
  <v type="int" >      127 </v>
  <v type="int" >      179 </v>
  <v type="int" >      164 </v>
  <v type="int" >       35 </v>
  <v type="int" >      139 </v>
  <v type="int" >      261 </v>
  <v type="int" >      243 </v>
  <v type="int" >      118 </v>
  <v type="int" >      168 </v>
  <v type="int" >       58 </v>
  <v type="int" >      137 </v>
  <v type="int" >      265 </v>
  <v type="int" >      281 </v>
  <v type="int" >       81 </v>
  <v type="int" >      275 </v>
  <v type="int" >      214 </v>
  <v type="int" >      215 </v>
  <v type="int" >      135 </v>
  <v type="int" >       98 </v>
  <v type="int" >       72 </v>
  <v type="int" >      226 </v>
  <v type="int" >       28 </v>
  <v type="int" >      263 </v>
  <v type="int" >      159 </v>
  <v type="int" >      178 </v>
  <v type="int" >      242 </v>
  <v type="int" >      109 </v>
  <v type="int" >      220 </v>
  <v type="int" >      101 </v>
  <v type="int" >      210 </v>
  <v type="int" >      130 </v>
  <v type="int" >      171 </v>
  <v type="int" >      194 </v>
  <v type="int" >       47 </v>
  <v type="int" >      258 </v>
  <v type="int" >      207 </v>
  <v type="int" >      216 </v>
  <v type="int" >       86 </v>
  <v type="int" >       25 </v>
  <v type="int" >       73 </v>
  <v type="int" >       12 </v>
  <v type="int" >      208 </v>
  <v type="int" >      172 </v>
  <v type="int" >      116 </v>
  <v type="int" >      219 </v>
  <v type="int" >      279 </v>
  <v type="int" >      206 </v>
  <v type="int" >       84 </v>
  <v type="int" >       62 </v>
  <v type="int" >      105 </v>
  <v type="int" >      268 </v>
  <v type="int" >       14 </v>
  <v type="int" >      245 </v>
  <v type="int" >      280 </v>
  <v type="int" >      120 </v>
  <v type="int" >      124 </v>
  <v type="int" >      266 </v>
  <v type="int" >       29 </v>
  <v type="int" >      150 </v>
  <v type="int" >      191 </v>
  <v type="int" >      255 </v>
  <v type="int" >        7 </v>
  <v type="int" >      190 </v>
  <v type="int" >      165 </v>
  <v type="int" >       48 </v>
  <v type="int" >      248 </v>
  <v type="int" >       13 </v>
  <v type="int" >      247 </v>
  <v type="int" >       18 </v>
  <v type="int" >      161 </v>
  <v type="int" >      273 </v>
  <v type="int" >      264 </v>
  <v type="int" >       45 </v>
  <v type="int" >        4 </v>
  <v type="int" >       55 </v>
  <v type="int" >       67 </v>
  <v type="int" >      270 </v>
  <v type="int" >       16 </v>
  <v type="int" >       64 </v>
  <v type="int" >      173 </v>
  <v type="int" >       17 </v>
  <v type="int" >      259 </v>
  <v type="int" >      134 </v>
  <v type="int" >       39 </v>
  <v type="int" >        6 </v>
  <v type="int" >      222 </v>
  <v type="int" >        5 </v>
  <v type="int" >      253 </v>
  <v type="int" >      110 </v>
  <v type="int" >       88 </v>
  <v type="int" >      181 </v>
  <v type="int" >       36 </v>
  <v type="int" >      204 </v>
  <v type="int" >      158 </v>
  <v type="int" >      160 </v>
  <v type="int" >      143 </v>
  <v type="int" >       74 </v>
  <v type="int" >       82 </v>
  <v type="int" >      235 </v>
  <v type="int" >       23 </v>
  <v type="int" >      241 </v>
  <v type="int" >      218 </v>
  <v type="int" >      238 </v>
  <v type="int" >      131 </v>
  <v type="int" >      257 </v>
  <v type="int" >      113 </v>
  <v type="int" >      201 </v>
  <v type="int" >       80 </v>
  <v type="int" >      232 </v>
  <v type="int" >       69 </v>
  <v type="int" >      249 </v>
  <v type="int" >      285 </v>
  <v type="int" >      197 </v>
  <v type="int" >      149 </v>
  <v type="int" >        3 </v>
  <v type="int" >      112 </v>
  <v type="int" >      224 </v>
  <v type="int" >      254 </v>
  <v type="int" >      132 </v>
  <v type="int" >      188 </v>
  <v type="int" >      272 </v>
  <v type="int" >       57 </v>
  <v type="int" >       49 </v>
  <v type="int" >      138 </v>
  <v type="int" >       66 </v>
  <v type="int" >       33 </v>
  <v type="int" >      184 </v>
  <v type="int" >      236 </v>
  <v type="int" >      288 </v>
  <v type="int" >      223 </v>
  <v type="int" >      106 </v>
  <v type="int" >      157 </v>
  <v type="int" >       21 </v>
  <v type="int" >      230 </v>
  <v type="int" >      234 </v>
  <v type="int" >       99 </v>
  <v type="int" >       75 </v>
  <v type="int" >      221 </v>
  <v type="int" >      269 </v>
  <v type="int" >      244 </v>
  <v type="int" >      237 </v>
  <v type="int" >      199 </v>
  <v type="int" >      156 </v>
  <v type="int" >      169 </v>
  <v type="int" >        9 </v>
  <v type="int" >       46 </v>
  <v type="int" >      262 </v>
  <v type="int" >      239 </v>
  <v type="int" >      151 </v>
  <v type="int" >      187 </v>
  <v type="int" >       11 </v>
  <v type="int" >      211 </v>
  <v type="int" >       43 </v>
  <v type="int" >       31 </v>
  <v type="int" >       19 </v>
  <v type="int" >       71 </v>
  <v type="int" >       94 </v>
  <v type="int" >       87 </v>
  <v type="int" >      267 </v>
  <v type="int" >        2 </v>
  <v type="int" >       27 </v>
  <v type="int" >      140 </v>
  <v type="int" >       10 </v>
  <v type="int" >      144 </v>
  <v type="int" >      107 </v>
  <v type="int" >      203 </v>
  <v type="int" >       68 </v>
  <v type="int" >       34 </v>
  <v type="int" >      177 </v>
  <v type="int" >      152 </v>
  <v type="int" >      183 </v>
  <v type="int" >      278 </v>
  <v type="int" >      195 </v>
  <v type="int" >       77 </v>
  <v type="int" >      284 </v>
  <v type="int" >      108 </v>
  <v type="int" >      225 </v>
  <v type="int" >      119 </v>
  <v type="int" >       37 </v>
  <v type="int" >      274 </v>
  <v type="int" >      233 </v>
  <v type="int" >       63 </v>
  <v type="int" >      141 </v>
  <v type="int" >       54 </v>
  <v type="int" >      154 </v>
  <v type="int" >       38 </v>
  <v type="int" >      136 </v>
  <v type="int" >      282 </v>
  <v type="int" >       53 </v>
  <v type="int" >       76 </v>
  <v type="int" >      193 </v>
  <v type="int" >      129 </v>
  <v type="int" >      162 </v>
  <v type="int" >      170 </v>
  <v type="int" >      133 </v>
  <v type="int" >       65 </v>
  <v type="int" >      271 </v>
  <v type="int" >       93 </v>
  <v type="int" >       32 </v>
  <v type="int" >       95 </v>
  <v type="int" >       90 </v>
  <v type="int" >       56 </v>
  <v type="int" >       42 </v>
  <v type="int" >       59 </v>
  <v type="int" >        8 </v>
  <v type="int" >      228 </v>
  <v type="int" >       70 </v>
  <v type="int" >      186 </v>
  <v type="int" >      196 </v>
  <v type="int" >      121 </v>
  <v type="int" >      122 </v>
  <v type="int" >       44 </v>
  <v type="int" >       79 </v>
  <v type="int" >      198 </v>
  <v type="int" >      153 </v>
  <v type="int" >      240 </v>
  <v type="int" >      231 </v>
  <v type="int" >      209 </v>
  <v type="int" >       85 </v>
  <v type="int" >      287 </v>
  <v type="int" >       40 </v>
  <v type="int" >       89 </v>
  <v type="int" >      227 </v>
  <v type="int" >       78 </v>
  <v type="int" >      142 </v>
  <v type="int" >       15 </v>
  <v type="int" >      114 </v>
  <v type="int" >      217 </v>
  <v type="int" >      148 </v>
  <v type="int" >      100 </v>
  <v type="int" >       61 </v>
  <v type="int" >      126 </v>
  <v type="int" >      180 </v>
  <v type="int" >       96 </v>
  <v type="int" >      147 </v>
  <v type="int" >      115 </v>
  <v type="int" >       41 </v>
  <v type="int" >       22 </v>
  <v type="int" >      260 </v>
  <v type="int" >      128 </v>
 </varray>
 <kpoints>
  <generation param="Gamma">
   <v type="int" name="divisions">       4        4        1 </v>
   <v name="usershift">      0.00000000       0.00000000       0.00000000 </v>
   <v name="genvec1">      0.25000000       0.00000000       0.00000000 </v>
   <v name="genvec2">      0.00000000       0.25000000       0.00000000 </v>
   <v name="genvec3">      0.00000000       0.00000000       1.00000000 </v>
   <v name="shift">      0.00000000       0.00000000       0.00000000 </v>
  </generation>
  <varray name="kpointlist" >
   <v>       0.00000000       0.00000000       0.00000000 </v>
   <v>       0.25000000       0.00000000       0.00000000 </v>
   <v>       0.50000000       0.00000000       0.00000000 </v>
   <v>       0.00000000       0.25000000       0.00000000 </v>
   <v>       0.25000000       0.25000000       0.00000000 </v>
   <v>       0.50000000       0.25000000       0.00000000 </v>
   <v>      -0.25000000       0.25000000       0.00000000 </v>
   <v>       0.00000000       0.50000000       0.00000000 </v>
   <v>       0.25000000       0.50000000       0.00000000 </v>
   <v>       0.50000000       0.50000000       0.00000000 </v>
  </varray>
  <varray name="weights" >
   <v>       0.06250000 </v>
   <v>       0.12500000 </v>
   <v>       0.06250000 </v>
   <v>       0.12500000 </v>
   <v>       0.12500000 </v>
   <v>       0.12500000 </v>
   <v>       0.12500000 </v>
   <v>       0.06250000 </v>
   <v>       0.12500000 </v>
   <v>       0.06250000 </v>
  </varray>
 </kpoints>
 <parameters>
  <separator name="general" >
   <i type="string" name="SYSTEM">unknown system</i>
   <i type="logical" name="LCOMPAT"> F  </i>
  </separator>
  <separator name="electronic" >
   <i type="string" name="PREC">accura</i>
   <i name="ENMAX">    450.00000000</i>
   <i name="ENAUG">    838.43500000</i>
   <i name="EDIFF">      0.00000100</i>
   <i type="int" name="IALGO">    68</i>
   <i type="int" name="IWAVPR">    11</i>
   <i type="int" name="NBANDS">  1386</i>
   <i name="NELECT">   2297.00000000</i>
   <i type="int" name="TURBO">     0</i>
   <i type="int" name="IRESTART">     0</i>
   <i type="int" name="NREBOOT">     0</i>
   <i type="int" name="NMIN">     0</i>
   <i name="EREF">      0.00000000</i>
   <separator name="electronic smearing" >
    <i type="int" name="ISMEAR">     0</i>
    <i name="SIGMA">      0.15000000</i>
    <i name="KSPACING">      0.50000000</i>
    <i type="logical" name="KGAMMA"> T  </i>
   </separator>
   <separator name="electronic projectors" >
    <i type="logical" name="LREAL"> T  </i>
    <v name="ROPT">     -0.00025000     -0.00025000</v>
    <i type="int" name="LMAXPAW">  -100</i>
    <i type="int" name="LMAXMIX">     2</i>
    <i type="logical" name="NLSPLINE"> F  </i>
   </separator>
   <separator name="electronic startup" >
    <i type="int" name="ISTART">     0</i>
    <i type="int" name="ICHARG">     2</i>
    <i type="int" name="INIWAV">     1</i>
   </separator>
   <separator name="electronic spin" >
    <i type="int" name="ISPIN">     1</i>
    <i type="logical" name="LNONCOLLINEAR"> F  </i>
    <v name="MAGMOM">      1.00000000      1.00000000      1.00000000      1.00000000      1.00000000      1.00000000      1.00000000      1.00000000      1.00000000      1.00000000      1.00000000      1.00000000      1.00000000      1.00000000      1.00000000      1.00000000      1.00000000      1.00000000      1.00000000      1.00000000
      1.00000000      1.00000000      1.00000000      1.00000000      1.00000000      1.00000000      1.00000000      1.00000000      1.00000000      1.00000000      1.00000000      1.00000000      1.00000000      1.00000000      1.00000000      1.00000000      1.00000000      1.00000000      1.00000000      1.00000000
      1.00000000      1.00000000      1.00000000      1.00000000      1.00000000      1.00000000      1.00000000      1.00000000      1.00000000      1.00000000      1.00000000      1.00000000      1.00000000      1.00000000      1.00000000      1.00000000      1.00000000      1.00000000      1.00000000      1.00000000
      1.00000000      1.00000000      1.00000000      1.00000000      1.00000000      1.00000000      1.00000000      1.00000000      1.00000000      1.00000000      1.00000000      1.00000000      1.00000000      1.00000000      1.00000000      1.00000000      1.00000000      1.00000000      1.00000000      1.00000000
      1.00000000      1.00000000      1.00000000      1.00000000      1.00000000      1.00000000      1.00000000      1.00000000      1.00000000      1.00000000      1.00000000      1.00000000      1.00000000      1.00000000      1.00000000      1.00000000      1.00000000      1.00000000      1.00000000      1.00000000
      1.00000000      1.00000000      1.00000000      1.00000000      1.00000000      1.00000000      1.00000000      1.00000000      1.00000000      1.00000000      1.00000000      1.00000000      1.00000000      1.00000000      1.00000000      1.00000000      1.00000000      1.00000000      1.00000000      1.00000000
      1.00000000      1.00000000      1.00000000      1.00000000      1.00000000      1.00000000      1.00000000      1.00000000      1.00000000      1.00000000      1.00000000      1.00000000      1.00000000      1.00000000      1.00000000      1.00000000      1.00000000      1.00000000      1.00000000      1.00000000
      1.00000000      1.00000000      1.00000000      1.00000000      1.00000000      1.00000000      1.00000000      1.00000000      1.00000000      1.00000000      1.00000000      1.00000000      1.00000000      1.00000000      1.00000000      1.00000000      1.00000000      1.00000000      1.00000000      1.00000000
      1.00000000      1.00000000      1.00000000      1.00000000      1.00000000      1.00000000      1.00000000      1.00000000      1.00000000      1.00000000      1.00000000      1.00000000      1.00000000      1.00000000      1.00000000      1.00000000      1.00000000      1.00000000      1.00000000      1.00000000
      1.00000000      1.00000000      1.00000000      1.00000000      1.00000000      1.00000000      1.00000000      1.00000000      1.00000000      1.00000000      1.00000000      1.00000000      1.00000000      1.00000000      1.00000000      1.00000000      1.00000000      1.00000000      1.00000000      1.00000000
      1.00000000      1.00000000      1.00000000      1.00000000      1.00000000      1.00000000      1.00000000      1.00000000      1.00000000      1.00000000      1.00000000      1.00000000      1.00000000      1.00000000      1.00000000      1.00000000      1.00000000      1.00000000      1.00000000      1.00000000
      1.00000000      1.00000000      1.00000000      1.00000000      1.00000000      1.00000000      1.00000000      1.00000000      1.00000000      1.00000000      1.00000000      1.00000000      1.00000000      1.00000000      1.00000000      1.00000000      1.00000000      1.00000000      1.00000000      1.00000000
      1.00000000      1.00000000      1.00000000      1.00000000      1.00000000      1.00000000      1.00000000      1.00000000      1.00000000      1.00000000      1.00000000      1.00000000      1.00000000      1.00000000      1.00000000      1.00000000      1.00000000      1.00000000      1.00000000      1.00000000
      1.00000000      1.00000000      1.00000000      1.00000000      1.00000000      1.00000000      1.00000000      1.00000000      1.00000000      1.00000000      1.00000000      1.00000000      1.00000000      1.00000000      1.00000000      1.00000000      1.00000000      1.00000000      1.00000000      1.00000000
      1.00000000      1.00000000      1.00000000      1.00000000      1.00000000      1.00000000      1.00000000      1.00000000</v>
    <i name="NUPDOWN">     -1.00000000</i>
    <i type="logical" name="LSORBIT"> F  </i>
    <v name="SAXIS">      0.00000000      0.00000000      1.00000000</v>
    <i type="logical" name="LSPIRAL"> F  </i>
    <v name="QSPIRAL">      0.00000000      0.00000000      0.00000000</v>
    <i type="logical" name="LZEROZ"> F  </i>
   </separator>
   <separator name="electronic exchange-correlation" >
    <i type="logical" name="LASPH"> F  </i>
    <i type="logical" name="LMETAGGA"> F  </i>
   </separator>
   <separator name="electronic convergence" >
    <i type="int" name="NELM">   100</i>
    <i type="int" name="NELMDL">     0</i>
    <i type="int" name="NELMIN">     4</i>
    <i name="ENINI">    450.00000000</i>
    <separator name="electronic convergence detail" >
     <i type="logical" name="LDIAG"> T  </i>
     <i type="logical" name="LSUBROT"> F  </i>
     <i name="WEIMIN">      0.00100000</i>
     <i name="EBREAK">      0.00000000</i>
     <i name="DEPER">      0.30000000</i>
     <i type="int" name="NRMM">     4</i>
     <i name="TIME">      0.40000000</i>
    </separator>
   </separator>
   <separator name="electronic mixer" >
    <i name="AMIX">      0.40000000</i>
    <i name="BMIX">      1.00000000</i>
    <i name="AMIN">      0.10000000</i>
    <i name="AMIX_MAG">      1.60000000</i>
    <i name="BMIX_MAG">      1.00000000</i>
    <separator name="electronic mixer details" >
     <i type="int" name="IMIX">     4</i>
     <i type="logical" name="MIXFIRST"> F  </i>
     <i type="int" name="MAXMIX">   -45</i>
     <i name="WC">    100.00000000</i>
     <i type="int" name="INIMIX">     1</i>
     <i type="int" name="MIXPRE">     1</i>
     <i type="int" name="MREMOVE">     5</i>
    </separator>
   </separator>
   <separator name="electronic dipolcorrection" >
    <i type="logical" name="LDIPOL"> F  </i>
    <i type="logical" name="LMONO"> F  </i>
    <i type="int" name="IDIPOL">     0</i>
    <i name="EPSILON">      1.00000000</i>
    <v name="DIPOL">   -100.00000000   -100.00000000   -100.00000000</v>
    <i name="EFIELD">      0.00000000</i>
   </separator>
  </separator>
  <separator name="grids" >
   <i type="int" name="NGX">    70</i>
   <i type="int" name="NGY">    60</i>
   <i type="int" name="NGZ">   320</i>
   <i type="int" name="NGXF">   140</i>
   <i type="int" name="NGYF">   120</i>
   <i type="int" name="NGZF">   640</i>
   <i type="logical" name="ADDGRID"> F  </i>
  </separator>
  <separator name="ionic" >
   <i type="int" name="NSW">     5</i>
   <i type="int" name="IBRION">     2</i>
   <i type="int" name="MDALGO">     0</i>
   <i type="int" name="ISIF">     2</i>
   <i name="PSTRESS">      0.00000000</i>
   <i name="EDIFFG">      0.00001000</i>
   <i type="int" name="NFREE">     1</i>
   <i name="POTIM">      0.25000000</i>
   <i name="SMASS">     -3.00000000</i>
   <i name="SCALEE">      1.00000000</i>
  </separator>
  <separator name="ionic md" >
   <i name="TEBEG">      0.00010000</i>
   <i name="TEEND">      0.00010000</i>
   <i type="int" name="NBLOCK">     1</i>
   <i type="int" name="KBLOCK">     5</i>
   <i type="int" name="NPACO">   256</i>
   <i name="APACO">     16.00000000</i>
  </separator>
  <separator name="symmetry" >
   <i type="int" name="ISYM">     2</i>
   <i name="SYMPREC">      0.00001000</i>
  </separator>
  <separator name="dos" >
   <i type="int" name="LORBIT">     0</i>
   <v name="RWIGS">     -1.00000000     -1.00000000</v>
   <i type="int" name="NEDOS">   301</i>
   <i name="EMIN">     10.00000000</i>
   <i name="EMAX">    -10.00000000</i>
   <i name="EFERMI">      0.00000000</i>
  </separator>
  <separator name="writing" >
   <i type="int" name="NWRITE">     2</i>
   <i type="logical" name="LWAVE"> F  </i>
   <i type="logical" name="LDOWNSAMPLE"> F  </i>
   <i type="logical" name="LCHARG"> F  </i>
   <i type="logical" name="LPARD"> F  </i>
   <i type="logical" name="LVTOT"> F  </i>
   <i type="logical" name="LVHAR"> F  </i>
   <i type="logical" name="LELF"> F  </i>
   <i type="logical" name="LOPTICS"> F  </i>
   <v name="STM">      0.00000000      0.00000000      0.00000000      0.00000000      0.00000000      0.00000000      0.00000000</v>
  </separator>
  <separator name="performance" >
   <i type="int" name="NPAR">    14</i>
   <i type="int" name="NSIM">     4</i>
   <i type="int" name="NBLK">    -1</i>
   <i type="logical" name="LPLANE"> T  </i>
   <i type="logical" name="LSCALAPACK"> T  </i>
   <i type="logical" name="LSCAAWARE"> T  </i>
   <i type="logical" name="LSCALU"> F  </i>
   <i type="logical" name="LASYNC"> F  </i>
   <i type="logical" name="LORBITALREAL"> F  </i>
  </separator>
  <separator name="miscellaneous" >
   <i type="int" name="IDIOT">     3</i>
   <i type="int" name="ISPECIAL">     0</i>
   <i type="logical" name="LMUSIC"> F  </i>
   <v name="POMASS">     55.84700000     54.93800000</v>
   <v name="DARWINR">      0.00000000      0.00000000</v>
   <v name="DARWINV">      1.00000000      1.00000000</v>
   <i type="logical" name="LCORR"> T  </i>
  </separator>
  <i type="logical" name="GGA_COMPAT"> T  </i>
  <i type="logical" name="LBERRY"> F  </i>
  <i type="int" name="ICORELEVEL">     0</i>
  <i type="logical" name="LDAU"> F  </i>
  <i type="int" name="I_CONSTRAINED_M">     0</i>
  <separator name="electronic exchange-correlation" >
   <i type="string" name="GGA">--</i>
   <i type="int" name="VOSKOWN">     0</i>
   <i type="logical" name="LHFCALC"> F  </i>
   <i type="string" name="PRECFOCK"></i>
   <i type="logical" name="LSYMGRAD"> F  </i>
   <i type="logical" name="LHFONE"> F  </i>
   <i type="logical" name="LRHFCALC"> F  </i>
   <i type="logical" name="LTHOMAS"> F  </i>
   <i type="logical" name="LMODELHF"> F  </i>
   <i name="ENCUT4O">     -1.00000000</i>
   <i type="int" name="EXXOEP">     0</i>
   <i type="int" name="FOURORBIT">     0</i>
   <i name="AEXX">      0.00000000</i>
   <i name="HFALPHA">      0.00000000</i>
   <i name="MCALPHA">      0.00000000</i>
   <i name="ALDAX">      1.00000000</i>
   <i name="AGGAX">      1.00000000</i>
   <i name="ALDAC">      1.00000000</i>
   <i name="AGGAC">      1.00000000</i>
   <i type="int" name="NKREDX">     1</i>
   <i type="int" name="NKREDY">     1</i>
   <i type="int" name="NKREDZ">     1</i>
   <i type="logical" name="SHIFTRED"> F  </i>
   <i type="logical" name="ODDONLY"> F  </i>
   <i type="logical" name="EVENONLY"> F  </i>
   <i type="int" name="LMAXFOCK">     0</i>
   <i type="int" name="NMAXFOCKAE">     0</i>
   <i type="logical" name="LFOCKAEDFT"> F  </i>
   <i name="HFSCREEN">      0.00000000</i>
   <i name="HFSCREENC">      0.00000000</i>
   <i type="int" name="NBANDSGWLOW">     0</i>
  </separator>
  <separator name="vdW DFT" >
   <i type="logical" name="LUSE_VDW"> F  </i>
   <i name="Zab_VDW">     -0.84910000</i>
   <i name="PARAM1">      0.12340000</i>
   <i name="PARAM2">      1.00000000</i>
   <i name="PARAM3">      0.00000000</i>
  </separator>
  <separator name="model GW" >
   <i type="int" name="MODEL_GW">     0</i>
   <i name="MODEL_EPS0">      7.68123389</i>
   <i name="MODEL_ALPHA">      1.00000000</i>
  </separator>
  <separator name="linear response parameters" >
   <i type="logical" name="LEPSILON"> F  </i>
   <i type="logical" name="LRPA"> F  </i>
   <i type="logical" name="LNABLA"> F  </i>
   <i type="logical" name="LVEL"> F  </i>
   <i type="int" name="KINTER">     0</i>
   <i name="CSHIFT">      0.10000000</i>
   <i name="OMEGAMAX">     -1.00000000</i>
   <i name="DEG_THRESHOLD">      0.00200000</i>
   <i name="RTIME">     -0.10000000</i>
   <i name="WPLASMAI">      0.00000000</i>
   <v name="DFIELD">      0.00000000      0.00000000      0.00000000</v>
   <v name="WPLASMA">      0.00000000      0.00000000      0.00000000      0.00000000      0.00000000      0.00000000      0.00000000      0.00000000      0.00000000</v>
  </separator>
  <separator name="orbital magnetization" >
   <i type="logical" name="NUCIND"> F  </i>
   <v name="MAGPOS">      0.00000000      0.00000000      0.00000000</v>
   <i type="logical" name="LNICSALL"> T  </i>
   <i type="logical" name="ORBITALMAG"> F  </i>
   <i type="logical" name="LMAGBLOCH"> F  </i>
   <i type="logical" name="LCHIMAG"> F  </i>
   <i type="logical" name="LGAUGE"> T  </i>
   <i type="int" name="MAGATOM">     0</i>
   <v name="MAGDIPOL">      0.00000000      0.00000000      0.00000000</v>
   <v name="AVECCONST">      0.00000000      0.00000000      0.00000000</v>
  </separator>
  <separator name="response functions" >
   <i type="logical" name="LADDER"> F  </i>
   <i type="logical" name="LRPAFORCE"> F  </i>
   <i type="logical" name="LFXC"> F  </i>
   <i type="logical" name="LHARTREE"> T  </i>
   <i type="int" name="IBSE">     0</i>
   <v type="int" name="KPOINT">    -1     0     0     0</v>
   <i type="logical" name="LTCTE"> F  </i>
   <i type="logical" name="LTETE"> F  </i>
   <i type="logical" name="LTRIPLET"> F  </i>
   <i type="logical" name="LFXCEPS"> F  </i>
   <i type="logical" name="LFXHEG"> F  </i>
   <i type="int" name="NATURALO">     2</i>
   <i type="logical" name="L2ORDER"> F  </i>
   <i type="logical" name="LMP2LT"> F  </i>
   <i type="logical" name="LUSEW"> F  </i>
   <i name="ENCUTGW">     -2.00000000</i>
   <i name="ENCUTGWSOFT">     -2.00000000</i>
   <i name="ENCUTLF">     -1.00000000</i>
   <i type="int" name="LMAXMP2">    -1</i>
   <i name="SCISSOR">      0.00000000</i>
   <i type="int" name="NOMEGA">     0</i>
   <i type="int" name="NOMEGAR">     0</i>
   <i type="int" name="NBANDSGW">    -1</i>
   <i type="int" name="NBANDSO">    -1</i>
   <i type="int" name="NBANDSV">    -1</i>
   <i type="int" name="NELM">   100</i>
   <i type="int" name="NELMHF">     1</i>
   <i type="int" name="DIM">     3</i>
   <i type="int" name="ANTIRES">     0</i>
   <i name="OMEGAMAX">    -30.00000000</i>
   <i name="OMEGAMIN">    -30.00000000</i>
   <i name="OMEGATL">   -200.00000000</i>
   <i type="int" name="OMEGAGRID">   140</i>
   <i name="CSHIFT">     -0.10000000</i>
   <i type="logical" name="SELFENERGY"> F  </i>
   <i type="logical" name="LSPECTRAL"> F  </i>
   <i type="logical" name="LSPECTRALGW"> F  </i>
   <i type="logical" name="LSINGLES"> F  </i>
   <i type="logical" name="LFERMIGW"> F  </i>
   <i type="logical" name="ODDONLYGW"> F  </i>
   <i type="logical" name="EVENONLYGW"> F  </i>
   <i type="int" name="NKREDLFX">     1</i>
   <i type="int" name="NKREDLFY">     1</i>
   <i type="int" name="NKREDLFZ">     1</i>
   <i type="int" name="MAXMEM">  2800</i>
   <i type="int" name="TELESCOPE">     0</i>
   <i type="int" name="TAUPAR">     1</i>
   <i type="int" name="OMEGAPAR">    -1</i>
   <i name="LAMBDA">      1.00000000</i>
  </separator>
  <separator name="External order field" >
   <i name="OFIELD_KAPPA">      0.00000000</i>
   <v name="OFIELD_K">      0.00000000      0.00000000      0.00000000</v>
   <i name="OFIELD_Q6_NEAR">      0.00000000</i>
   <i name="OFIELD_Q6_FAR">      0.00000000</i>
   <i name="OFIELD_A">      0.00000000</i>
  </separator>
 </parameters>
 <atominfo>
  <atoms>     288 </atoms>
  <types>       2 </types>
  <array name="atoms" >
   <dimension dim="1">ion</dimension>
   <field type="string">element</field>
   <field type="int">atomtype</field>
   <set>
    <rc><c>Fe</c><c>   1</c></rc>
    <rc><c>Fe</c><c>   1</c></rc>
    <rc><c>Fe</c><c>   1</c></rc>
    <rc><c>Fe</c><c>   1</c></rc>
    <rc><c>Fe</c><c>   1</c></rc>
    <rc><c>Fe</c><c>   1</c></rc>
    <rc><c>Fe</c><c>   1</c></rc>
    <rc><c>Fe</c><c>   1</c></rc>
    <rc><c>Fe</c><c>   1</c></rc>
    <rc><c>Fe</c><c>   1</c></rc>
    <rc><c>Fe</c><c>   1</c></rc>
    <rc><c>Fe</c><c>   1</c></rc>
    <rc><c>Fe</c><c>   1</c></rc>
    <rc><c>Fe</c><c>   1</c></rc>
    <rc><c>Fe</c><c>   1</c></rc>
    <rc><c>Fe</c><c>   1</c></rc>
    <rc><c>Fe</c><c>   1</c></rc>
    <rc><c>Fe</c><c>   1</c></rc>
    <rc><c>Fe</c><c>   1</c></rc>
    <rc><c>Fe</c><c>   1</c></rc>
    <rc><c>Fe</c><c>   1</c></rc>
    <rc><c>Fe</c><c>   1</c></rc>
    <rc><c>Fe</c><c>   1</c></rc>
    <rc><c>Fe</c><c>   1</c></rc>
    <rc><c>Fe</c><c>   1</c></rc>
    <rc><c>Fe</c><c>   1</c></rc>
    <rc><c>Fe</c><c>   1</c></rc>
    <rc><c>Fe</c><c>   1</c></rc>
    <rc><c>Fe</c><c>   1</c></rc>
    <rc><c>Fe</c><c>   1</c></rc>
    <rc><c>Fe</c><c>   1</c></rc>
    <rc><c>Fe</c><c>   1</c></rc>
    <rc><c>Fe</c><c>   1</c></rc>
    <rc><c>Fe</c><c>   1</c></rc>
    <rc><c>Fe</c><c>   1</c></rc>
    <rc><c>Fe</c><c>   1</c></rc>
    <rc><c>Fe</c><c>   1</c></rc>
    <rc><c>Fe</c><c>   1</c></rc>
    <rc><c>Fe</c><c>   1</c></rc>
    <rc><c>Fe</c><c>   1</c></rc>
    <rc><c>Fe</c><c>   1</c></rc>
    <rc><c>Fe</c><c>   1</c></rc>
    <rc><c>Fe</c><c>   1</c></rc>
    <rc><c>Fe</c><c>   1</c></rc>
    <rc><c>Fe</c><c>   1</c></rc>
    <rc><c>Fe</c><c>   1</c></rc>
    <rc><c>Fe</c><c>   1</c></rc>
    <rc><c>Fe</c><c>   1</c></rc>
    <rc><c>Fe</c><c>   1</c></rc>
    <rc><c>Fe</c><c>   1</c></rc>
    <rc><c>Fe</c><c>   1</c></rc>
    <rc><c>Fe</c><c>   1</c></rc>
    <rc><c>Fe</c><c>   1</c></rc>
    <rc><c>Fe</c><c>   1</c></rc>
    <rc><c>Fe</c><c>   1</c></rc>
    <rc><c>Fe</c><c>   1</c></rc>
    <rc><c>Fe</c><c>   1</c></rc>
    <rc><c>Fe</c><c>   1</c></rc>
    <rc><c>Fe</c><c>   1</c></rc>
    <rc><c>Fe</c><c>   1</c></rc>
    <rc><c>Fe</c><c>   1</c></rc>
    <rc><c>Fe</c><c>   1</c></rc>
    <rc><c>Fe</c><c>   1</c></rc>
    <rc><c>Fe</c><c>   1</c></rc>
    <rc><c>Fe</c><c>   1</c></rc>
    <rc><c>Fe</c><c>   1</c></rc>
    <rc><c>Fe</c><c>   1</c></rc>
    <rc><c>Fe</c><c>   1</c></rc>
    <rc><c>Fe</c><c>   1</c></rc>
    <rc><c>Fe</c><c>   1</c></rc>
    <rc><c>Fe</c><c>   1</c></rc>
    <rc><c>Fe</c><c>   1</c></rc>
    <rc><c>Fe</c><c>   1</c></rc>
    <rc><c>Fe</c><c>   1</c></rc>
    <rc><c>Fe</c><c>   1</c></rc>
    <rc><c>Fe</c><c>   1</c></rc>
    <rc><c>Fe</c><c>   1</c></rc>
    <rc><c>Fe</c><c>   1</c></rc>
    <rc><c>Fe</c><c>   1</c></rc>
    <rc><c>Fe</c><c>   1</c></rc>
    <rc><c>Fe</c><c>   1</c></rc>
    <rc><c>Fe</c><c>   1</c></rc>
    <rc><c>Fe</c><c>   1</c></rc>
    <rc><c>Fe</c><c>   1</c></rc>
    <rc><c>Fe</c><c>   1</c></rc>
    <rc><c>Fe</c><c>   1</c></rc>
    <rc><c>Fe</c><c>   1</c></rc>
    <rc><c>Fe</c><c>   1</c></rc>
    <rc><c>Fe</c><c>   1</c></rc>
    <rc><c>Fe</c><c>   1</c></rc>
    <rc><c>Fe</c><c>   1</c></rc>
    <rc><c>Fe</c><c>   1</c></rc>
    <rc><c>Fe</c><c>   1</c></rc>
    <rc><c>Fe</c><c>   1</c></rc>
    <rc><c>Fe</c><c>   1</c></rc>
    <rc><c>Fe</c><c>   1</c></rc>
    <rc><c>Fe</c><c>   1</c></rc>
    <rc><c>Fe</c><c>   1</c></rc>
    <rc><c>Fe</c><c>   1</c></rc>
    <rc><c>Fe</c><c>   1</c></rc>
    <rc><c>Fe</c><c>   1</c></rc>
    <rc><c>Fe</c><c>   1</c></rc>
    <rc><c>Fe</c><c>   1</c></rc>
    <rc><c>Fe</c><c>   1</c></rc>
    <rc><c>Fe</c><c>   1</c></rc>
    <rc><c>Fe</c><c>   1</c></rc>
    <rc><c>Fe</c><c>   1</c></rc>
    <rc><c>Fe</c><c>   1</c></rc>
    <rc><c>Fe</c><c>   1</c></rc>
    <rc><c>Fe</c><c>   1</c></rc>
    <rc><c>Fe</c><c>   1</c></rc>
    <rc><c>Fe</c><c>   1</c></rc>
    <rc><c>Fe</c><c>   1</c></rc>
    <rc><c>Fe</c><c>   1</c></rc>
    <rc><c>Fe</c><c>   1</c></rc>
    <rc><c>Fe</c><c>   1</c></rc>
    <rc><c>Fe</c><c>   1</c></rc>
    <rc><c>Fe</c><c>   1</c></rc>
    <rc><c>Fe</c><c>   1</c></rc>
    <rc><c>Fe</c><c>   1</c></rc>
    <rc><c>Fe</c><c>   1</c></rc>
    <rc><c>Fe</c><c>   1</c></rc>
    <rc><c>Fe</c><c>   1</c></rc>
    <rc><c>Fe</c><c>   1</c></rc>
    <rc><c>Fe</c><c>   1</c></rc>
    <rc><c>Fe</c><c>   1</c></rc>
    <rc><c>Fe</c><c>   1</c></rc>
    <rc><c>Fe</c><c>   1</c></rc>
    <rc><c>Fe</c><c>   1</c></rc>
    <rc><c>Fe</c><c>   1</c></rc>
    <rc><c>Fe</c><c>   1</c></rc>
    <rc><c>Fe</c><c>   1</c></rc>
    <rc><c>Fe</c><c>   1</c></rc>
    <rc><c>Fe</c><c>   1</c></rc>
    <rc><c>Fe</c><c>   1</c></rc>
    <rc><c>Fe</c><c>   1</c></rc>
    <rc><c>Fe</c><c>   1</c></rc>
    <rc><c>Fe</c><c>   1</c></rc>
    <rc><c>Fe</c><c>   1</c></rc>
    <rc><c>Fe</c><c>   1</c></rc>
    <rc><c>Fe</c><c>   1</c></rc>
    <rc><c>Fe</c><c>   1</c></rc>
    <rc><c>Fe</c><c>   1</c></rc>
    <rc><c>Fe</c><c>   1</c></rc>
    <rc><c>Fe</c><c>   1</c></rc>
    <rc><c>Fe</c><c>   1</c></rc>
    <rc><c>Fe</c><c>   1</c></rc>
    <rc><c>Fe</c><c>   1</c></rc>
    <rc><c>Fe</c><c>   1</c></rc>
    <rc><c>Fe</c><c>   1</c></rc>
    <rc><c>Fe</c><c>   1</c></rc>
    <rc><c>Fe</c><c>   1</c></rc>
    <rc><c>Fe</c><c>   1</c></rc>
    <rc><c>Fe</c><c>   1</c></rc>
    <rc><c>Fe</c><c>   1</c></rc>
    <rc><c>Fe</c><c>   1</c></rc>
    <rc><c>Fe</c><c>   1</c></rc>
    <rc><c>Fe</c><c>   1</c></rc>
    <rc><c>Fe</c><c>   1</c></rc>
    <rc><c>Fe</c><c>   1</c></rc>
    <rc><c>Fe</c><c>   1</c></rc>
    <rc><c>Fe</c><c>   1</c></rc>
    <rc><c>Fe</c><c>   1</c></rc>
    <rc><c>Fe</c><c>   1</c></rc>
    <rc><c>Fe</c><c>   1</c></rc>
    <rc><c>Fe</c><c>   1</c></rc>
    <rc><c>Fe</c><c>   1</c></rc>
    <rc><c>Fe</c><c>   1</c></rc>
    <rc><c>Fe</c><c>   1</c></rc>
    <rc><c>Fe</c><c>   1</c></rc>
    <rc><c>Fe</c><c>   1</c></rc>
    <rc><c>Fe</c><c>   1</c></rc>
    <rc><c>Fe</c><c>   1</c></rc>
    <rc><c>Fe</c><c>   1</c></rc>
    <rc><c>Fe</c><c>   1</c></rc>
    <rc><c>Fe</c><c>   1</c></rc>
    <rc><c>Fe</c><c>   1</c></rc>
    <rc><c>Fe</c><c>   1</c></rc>
    <rc><c>Fe</c><c>   1</c></rc>
    <rc><c>Fe</c><c>   1</c></rc>
    <rc><c>Fe</c><c>   1</c></rc>
    <rc><c>Fe</c><c>   1</c></rc>
    <rc><c>Fe</c><c>   1</c></rc>
    <rc><c>Fe</c><c>   1</c></rc>
    <rc><c>Fe</c><c>   1</c></rc>
    <rc><c>Fe</c><c>   1</c></rc>
    <rc><c>Fe</c><c>   1</c></rc>
    <rc><c>Fe</c><c>   1</c></rc>
    <rc><c>Fe</c><c>   1</c></rc>
    <rc><c>Fe</c><c>   1</c></rc>
    <rc><c>Fe</c><c>   1</c></rc>
    <rc><c>Fe</c><c>   1</c></rc>
    <rc><c>Fe</c><c>   1</c></rc>
    <rc><c>Fe</c><c>   1</c></rc>
    <rc><c>Fe</c><c>   1</c></rc>
    <rc><c>Fe</c><c>   1</c></rc>
    <rc><c>Fe</c><c>   1</c></rc>
    <rc><c>Fe</c><c>   1</c></rc>
    <rc><c>Fe</c><c>   1</c></rc>
    <rc><c>Fe</c><c>   1</c></rc>
    <rc><c>Fe</c><c>   1</c></rc>
    <rc><c>Fe</c><c>   1</c></rc>
    <rc><c>Fe</c><c>   1</c></rc>
    <rc><c>Fe</c><c>   1</c></rc>
    <rc><c>Fe</c><c>   1</c></rc>
    <rc><c>Fe</c><c>   1</c></rc>
    <rc><c>Fe</c><c>   1</c></rc>
    <rc><c>Fe</c><c>   1</c></rc>
    <rc><c>Fe</c><c>   1</c></rc>
    <rc><c>Fe</c><c>   1</c></rc>
    <rc><c>Fe</c><c>   1</c></rc>
    <rc><c>Fe</c><c>   1</c></rc>
    <rc><c>Fe</c><c>   1</c></rc>
    <rc><c>Fe</c><c>   1</c></rc>
    <rc><c>Fe</c><c>   1</c></rc>
    <rc><c>Fe</c><c>   1</c></rc>
    <rc><c>Fe</c><c>   1</c></rc>
    <rc><c>Fe</c><c>   1</c></rc>
    <rc><c>Fe</c><c>   1</c></rc>
    <rc><c>Fe</c><c>   1</c></rc>
    <rc><c>Fe</c><c>   1</c></rc>
    <rc><c>Fe</c><c>   1</c></rc>
    <rc><c>Fe</c><c>   1</c></rc>
    <rc><c>Fe</c><c>   1</c></rc>
    <rc><c>Fe</c><c>   1</c></rc>
    <rc><c>Fe</c><c>   1</c></rc>
    <rc><c>Fe</c><c>   1</c></rc>
    <rc><c>Fe</c><c>   1</c></rc>
    <rc><c>Fe</c><c>   1</c></rc>
    <rc><c>Fe</c><c>   1</c></rc>
    <rc><c>Fe</c><c>   1</c></rc>
    <rc><c>Fe</c><c>   1</c></rc>
    <rc><c>Fe</c><c>   1</c></rc>
    <rc><c>Fe</c><c>   1</c></rc>
    <rc><c>Fe</c><c>   1</c></rc>
    <rc><c>Fe</c><c>   1</c></rc>
    <rc><c>Fe</c><c>   1</c></rc>
    <rc><c>Fe</c><c>   1</c></rc>
    <rc><c>Fe</c><c>   1</c></rc>
    <rc><c>Fe</c><c>   1</c></rc>
    <rc><c>Fe</c><c>   1</c></rc>
    <rc><c>Fe</c><c>   1</c></rc>
    <rc><c>Fe</c><c>   1</c></rc>
    <rc><c>Fe</c><c>   1</c></rc>
    <rc><c>Fe</c><c>   1</c></rc>
    <rc><c>Fe</c><c>   1</c></rc>
    <rc><c>Fe</c><c>   1</c></rc>
    <rc><c>Fe</c><c>   1</c></rc>
    <rc><c>Fe</c><c>   1</c></rc>
    <rc><c>Fe</c><c>   1</c></rc>
    <rc><c>Fe</c><c>   1</c></rc>
    <rc><c>Fe</c><c>   1</c></rc>
    <rc><c>Fe</c><c>   1</c></rc>
    <rc><c>Fe</c><c>   1</c></rc>
    <rc><c>Fe</c><c>   1</c></rc>
    <rc><c>Fe</c><c>   1</c></rc>
    <rc><c>Fe</c><c>   1</c></rc>
    <rc><c>Fe</c><c>   1</c></rc>
    <rc><c>Fe</c><c>   1</c></rc>
    <rc><c>Fe</c><c>   1</c></rc>
    <rc><c>Fe</c><c>   1</c></rc>
    <rc><c>Fe</c><c>   1</c></rc>
    <rc><c>Fe</c><c>   1</c></rc>
    <rc><c>Fe</c><c>   1</c></rc>
    <rc><c>Fe</c><c>   1</c></rc>
    <rc><c>Fe</c><c>   1</c></rc>
    <rc><c>Fe</c><c>   1</c></rc>
    <rc><c>Fe</c><c>   1</c></rc>
    <rc><c>Fe</c><c>   1</c></rc>
    <rc><c>Fe</c><c>   1</c></rc>
    <rc><c>Fe</c><c>   1</c></rc>
    <rc><c>Fe</c><c>   1</c></rc>
    <rc><c>Fe</c><c>   1</c></rc>
    <rc><c>Fe</c><c>   1</c></rc>
    <rc><c>Fe</c><c>   1</c></rc>
    <rc><c>Fe</c><c>   1</c></rc>
    <rc><c>Fe</c><c>   1</c></rc>
    <rc><c>Fe</c><c>   1</c></rc>
    <rc><c>Fe</c><c>   1</c></rc>
    <rc><c>Fe</c><c>   1</c></rc>
    <rc><c>Fe</c><c>   1</c></rc>
    <rc><c>Mn</c><c>   2</c></rc>
    <rc><c>Mn</c><c>   2</c></rc>
    <rc><c>Mn</c><c>   2</c></rc>
    <rc><c>Mn</c><c>   2</c></rc>
    <rc><c>Mn</c><c>   2</c></rc>
    <rc><c>Mn</c><c>   2</c></rc>
    <rc><c>Mn</c><c>   2</c></rc>
   </set>
  </array>
  <array name="atomtypes" >
   <dimension dim="1">type</dimension>
   <field type="int">atomspertype</field>
   <field type="string">element</field>
   <field>mass</field>
   <field>valence</field>
   <field type="string">pseudopotential</field>
   <set>
    <rc><c> 281</c><c>Fe</c><c>     55.84700000</c><c>      8.00000000</c><c>  PAW_PBE Fe_GW 31Mar2010               </c></rc>
    <rc><c>   7</c><c>Mn</c><c>     54.93800000</c><c>      7.00000000</c><c>  PAW_PBE Mn_GW 31Mar2010               </c></rc>
   </set>
  </array>
 </atominfo>
 <structure name="initialpos" >
  <crystal>
   <varray name="basis" >
    <v>       9.72667804       0.00000000       0.00000000 </v>
    <v>       0.00000000       8.42355028       0.00000000 </v>
    <v>       0.00000000       0.00000000      45.00000000 </v>
   </varray>
   <i name="volume">   3686.99226691 </i>
   <varray name="rec_basis" >
    <v>       0.10281002       0.00000000       0.00000000 </v>
    <v>       0.00000000       0.11871479       0.00000000 </v>
    <v>       0.00000000       0.00000000       0.02222222 </v>
   </varray>
  </crystal>
  <varray name="positions" >
   <v>       0.06092962       0.03149441       0.12449176 </v>
   <v>       0.06320376       0.87174945       0.52125011 </v>
   <v>       0.19394063       0.12334045       0.78853243 </v>
   <v>       0.43344659       0.28763787       0.38907170 </v>
   <v>       0.30840660       0.71271426       0.83316473 </v>
   <v>       0.80848365       0.21269002       0.83316356 </v>
   <v>       0.18342136       0.78766651       0.38907080 </v>
   <v>       0.56272480       0.20756348       0.56537741 </v>
   <v>       0.06014671       0.04113663       0.74404420 </v>
   <v>       0.81329771       0.87199632       0.52137125 </v>
   <v>       0.18507972       0.29078394       0.74406628 </v>
   <v>       0.94131234       0.45196507       0.34493511 </v>
   <v>       0.93367508       0.28756808       0.38903954 </v>
   <v>       0.81381074       0.04200976       0.87561641 </v>
   <v>       0.18811465       0.79148939       0.61069812 </v>
   <v>       0.55872008       0.03741350       0.38908069 </v>
   <v>       0.93344914       0.96270063       0.83315201 </v>
   <v>       0.31350664       0.54195125       0.87559407 </v>
   <v>       0.68530951       0.29136117       0.74416952 </v>
   <v>       0.19207952       0.61267580       0.16677547 </v>
   <v>       0.81280502       0.20583216       0.47861524 </v>
   <v>       0.81268915       0.54177907       0.61084952 </v>
   <v>       0.31318013       0.87078010       0.43437060 </v>
   <v>       0.81570497       0.03607493       0.25607343 </v>
   <v>       0.69132753       0.95210761       0.34494331 </v>
   <v>       0.94205051       0.11227513       0.16681245 </v>
   <v>       0.93849614       0.12194467       0.52127625 </v>
   <v>       0.56596614       0.53649237       0.25600014 </v>
   <v>       0.68903104       0.79403307       0.87565741 </v>
   <v>       0.56805601       0.36354302       0.16690870 </v>
   <v>       0.43528325       0.79096246       0.74408420 </v>
   <v>       0.81333591       0.70801769       0.56532944 </v>
   <v>       0.56905190       0.87345201       0.78843293 </v>
   <v>       0.68863589       0.12188509       0.52128525 </v>
   <v>       0.19116932       0.28707883       0.25591249 </v>
   <v>       0.93341578       0.46265702       0.83314043 </v>
   <v>       0.06495317       0.20843200       0.69965870 </v>
   <v>       0.44007646       0.95774260       0.69967567 </v>
   <v>       0.30857653       0.21273606       0.83316272 </v>
   <v>       0.43384603       0.62562955       0.65492708 </v>
   <v>       0.31331566       0.54097787       0.61066281 </v>
   <v>       0.93859941       0.45746681       0.56538498 </v>
   <v>       0.68528654       0.79132599       0.74414451 </v>
   <v>       0.30863750       0.87532144       0.65487929 </v>
   <v>       0.68365709       0.78753834       0.38904534 </v>
   <v>       0.93521034       0.79118120       0.74414560 </v>
   <v>       0.06608282       0.20167833       0.34492397 </v>
   <v>       0.80869397       0.03745484       0.38899843 </v>
   <v>       0.44408552       0.12314693       0.78844611 </v>
   <v>       0.05833968       0.20518995       0.21194179 </v>
   <v>       0.06811397       0.36331719       0.16692624 </v>
   <v>       0.94091385       0.78665715       0.25615446 </v>
   <v>       0.56432640       0.20766361       0.69967024 </v>
   <v>       0.68964442       0.95795026       0.69966082 </v>
   <v>       0.68365601       0.28758948       0.38907527 </v>
   <v>       0.43860258       0.95749962       0.56546774 </v>
   <v>       0.81915112       0.37335795       0.78843823 </v>
   <v>       0.69088728       0.28667958       0.25605228 </v>
   <v>       0.18880925       0.45767843       0.56543173 </v>
   <v>       0.06696406       0.86246922       0.16685378 </v>
   <v>       0.18858272       0.29105838       0.61077059 </v>
   <v>       0.56622193       0.70243100       0.34497264 </v>
   <v>       0.31453866       0.20823910       0.69968230 </v>
   <v>       0.56359702       0.54189364       0.87556299 </v>
   <v>       0.06351381       0.70703158       0.56550266 </v>
   <v>       0.69452245       0.62344955       0.78846800 </v>
   <v>       0.30875842       0.53758715       0.38900678 </v>
   <v>       0.18821286       0.62186207       0.52136117 </v>
   <v>       0.56265394       0.87113156       0.43436849 </v>
   <v>       0.43809970       0.45795031       0.56532058 </v>
   <v>       0.43512535       0.29089340       0.74407914 </v>
   <v>       0.80437133       0.87273420       0.30030516 </v>
   <v>       0.81653615       0.70198870       0.34499133 </v>
   <v>       0.43340348       0.46269183       0.83312203 </v>
   <v>       0.68774676       0.95572952       0.47861808 </v>
   <v>       0.68996881       0.45780024       0.69962879 </v>
   <v>       0.56302602       0.87240886       0.52135190 </v>
   <v>       0.55881315       0.37558889       0.65496046 </v>
   <v>       0.80847344       0.87523079       0.65483094 </v>
   <v>       0.81255798       0.37044850       0.43445443 </v>
   <v>       0.81523015       0.53660691       0.25606211 </v>
   <v>       0.68339429       0.46269831       0.83315274 </v>
   <v>       0.18958701       0.78582369       0.12471687 </v>
   <v>       0.06369892       0.04205901       0.87562034 </v>
   <v>       0.30876517       0.37533744       0.65492681 </v>
   <v>       0.31616619       0.20198905       0.34489393 </v>
   <v>       0.81004303       0.54110527       0.74396684 </v>
   <v>       0.68354178       0.96269681       0.83315126 </v>
   <v>       0.55851029       0.87529652       0.65489131 </v>
   <v>       0.31309087       0.70736080       0.56547805 </v>
   <v>       0.31250777       0.53013205       0.12436280 </v>
   <v>       0.68207322       0.95479010       0.21198935 </v>
   <v>       0.31384170       0.20715262       0.56546305 </v>
   <v>       0.31011698       0.54110342       0.74408744 </v>
   <v>       0.68859312       0.95766217       0.56537178 </v>
   <v>       0.43817231       0.79084565       0.61067725 </v>
   <v>       0.69362658       0.61391942       0.16689993 </v>
   <v>       0.30446167       0.87310127       0.30032850 </v>
   <v>       0.31233247       0.70561298       0.47866161 </v>
   <v>       0.93822166       0.29125779       0.61062649 </v>
   <v>       0.42940771       0.62309794       0.30033842 </v>
   <v>       0.81815448       0.86237597       0.16691391 </v>
   <v>       0.55810731       0.20392491       0.21171041 </v>
   <v>       0.94295583       0.61362379       0.16684293 </v>
   <v>       0.93916210       0.79402087       0.87563021 </v>
   <v>       0.56923010       0.37324538       0.78843757 </v>
   <v>       0.06339196       0.37228376       0.52131976 </v>
   <v>       0.56351237       0.37200130       0.52126431 </v>
   <v>       0.67939042       0.12297573       0.30033722 </v>
   <v>       0.43348559       0.96267028       0.83315098 </v>
   <v>       0.19021356       0.28674516       0.12455997 </v>
   <v>       0.81933090       0.87349734       0.78838899 </v>
   <v>       0.31199547       0.37091975       0.43429165 </v>
   <v>       0.93789339       0.79174974       0.61080159 </v>
   <v>       0.43859649       0.29040153       0.61067611 </v>
   <v>       0.19138468       0.45180469       0.34498457 </v>
   <v>       0.43945374       0.28697303       0.12459303 </v>
   <v>       0.69075080       0.78642594       0.25602639 </v>
   <v>       0.18949259       0.95779993       0.69962079 </v>
   <v>       0.18898807       0.29381608       0.87565277 </v>
   <v>       0.18365440       0.12508655       0.65491639 </v>
   <v>       0.93335867       0.12545420       0.65484729 </v>
   <v>       0.30692783       0.20434310       0.21181934 </v>
   <v>       0.05868608       0.03751162       0.38903876 </v>
   <v>       0.19382898       0.11348705       0.16728717 </v>
   <v>       0.06266122       0.54164126       0.61085095 </v>
   <v>       0.94100749       0.28658715       0.25593752 </v>
   <v>       0.56320739       0.54118848       0.61076162 </v>
   <v>       0.93820109       0.95784866       0.56538501 </v>
   <v>       0.67946847       0.62318136       0.30020435 </v>
   <v>       0.93762451       0.62036581       0.43443790 </v>
   <v>       0.94416036       0.62342564       0.78848401 </v>
   <v>       0.56426603       0.70824296       0.69966656 </v>
   <v>       0.05846989       0.71272890       0.83316631 </v>
   <v>       0.92926284       0.12307360       0.30036745 </v>
   <v>       0.93981362       0.45802616       0.69968064 </v>
   <v>       0.44098233       0.78645691       0.25605275 </v>
   <v>       0.31906980       0.37341342       0.78842316 </v>
   <v>       0.43340615       0.45518497       0.21194217 </v>
   <v>       0.18831665       0.12207738       0.52122211 </v>
   <v>       0.81459973       0.70767142       0.69965985 </v>
   <v>       0.06342506       0.04102310       0.61065953 </v>
   <v>       0.55838951       0.21284835       0.83314834 </v>
   <v>       0.31355150       0.87225948       0.52130042 </v>
   <v>       0.69031450       0.28694071       0.12460379 </v>
   <v>       0.18317570       0.95451511       0.21196006 </v>
   <v>       0.68850894       0.29134414       0.61066523 </v>
   <v>       0.31330592       0.04100999       0.61068515 </v>
   <v>       0.94413794       0.12352945       0.78843622 </v>
   <v>       0.43901740       0.79395792       0.87563134 </v>
   <v>       0.81025075       0.04102469       0.74409428 </v>
   <v>       0.43819332       0.12195721       0.52136428 </v>
   <v>       0.18378248       0.62536261       0.65497065 </v>
   <v>       0.31440828       0.70780980       0.69966068 </v>
   <v>       0.93913393       0.28556198       0.12465694 </v>
   <v>       0.43777473       0.45565050       0.47866503 </v>
   <v>       0.06322483       0.70527063       0.47856966 </v>
   <v>       0.93809136       0.12035032       0.43442523 </v>
   <v>       0.42925636       0.12267433       0.30037166 </v>
   <v>       0.18802578       0.12019316       0.43449493 </v>
   <v>       0.56387502       0.04194606       0.87560525 </v>
   <v>       0.18854328       0.95686910       0.56532390 </v>
   <v>       0.68983294       0.78559562       0.12469055 </v>
   <v>       0.56279225       0.53066877       0.12437883 </v>
   <v>       0.30854425       0.03754980       0.38907210 </v>
   <v>       0.69224108       0.11276078       0.16713852 </v>
   <v>       0.80731124       0.20481504       0.21188029 </v>
   <v>       0.06581584       0.53646087       0.25614148 </v>
   <v>       0.56291821       0.70569245       0.47863441 </v>
   <v>       0.06350753       0.20757418       0.56546019 </v>
   <v>       0.55424482       0.37284977       0.30036063 </v>
   <v>       0.44134178       0.95212667       0.34490586 </v>
   <v>       0.18346992       0.96293311       0.83310992 </v>
   <v>       0.44246235       0.61138934       0.16695820 </v>
   <v>       0.93339703       0.45410024       0.21189598 </v>
   <v>       0.06284088       0.53209310       0.12447415 </v>
   <v>       0.81325162       0.37177895       0.52130086 </v>
   <v>       0.92931362       0.62300301       0.30034837 </v>
   <v>       0.31575789       0.03628617       0.25594504 </v>
   <v>       0.68826004       0.79142930       0.61078853 </v>
   <v>       0.18345600       0.46275034       0.83314131 </v>
   <v>       0.44235291       0.11300038       0.16693699 </v>
   <v>       0.31323825       0.37184683       0.52136246 </v>
   <v>       0.44461237       0.62332692       0.78848537 </v>
   <v>       0.06583166       0.03637490       0.25593503 </v>
   <v>       0.56349792       0.70778267       0.56530099 </v>
   <v>       0.93535552       0.29147956       0.74417275 </v>
   <v>       0.69388100       0.12347738       0.78845197 </v>
   <v>       0.18196467       0.45455278       0.21201816 </v>
   <v>       0.93366849       0.78754353       0.38907120 </v>
   <v>       0.68897918       0.29395336       0.87562581 </v>
   <v>       0.31807452       0.86341309       0.16694241 </v>
   <v>       0.43962684       0.45768478       0.69962062 </v>
   <v>       0.94150720       0.95219712       0.34502395 </v>
   <v>       0.68845544       0.62202748       0.52132595 </v>
   <v>       0.05887778       0.87544981       0.65492216 </v>
   <v>       0.06917196       0.87340946       0.78844603 </v>
   <v>       0.05838774       0.37539663       0.65483249 </v>
   <v>       0.68779639       0.45578624       0.47864610 </v>
   <v>       0.19088315       0.78617393       0.25613512 </v>
   <v>       0.43774621       0.12045345       0.43444192 </v>
   <v>       0.81425125       0.03272837       0.12452273 </v>
   <v>       0.93836679       0.62175352       0.52130994 </v>
   <v>       0.06267360       0.87038324       0.43446033 </v>
   <v>       0.81175201       0.53204945       0.12438322 </v>
   <v>       0.44131917       0.45191751       0.34497423 </v>
   <v>       0.81648460       0.20164056       0.34493839 </v>
   <v>       0.31646037       0.70191446       0.34495712 </v>
   <v>       0.68386525       0.12553776       0.65495897 </v>
   <v>       0.55432420       0.87230946       0.30041224 </v>
   <v>       0.05999969       0.54101809       0.74409090 </v>
   <v>       0.93315196       0.95435907       0.21195113 </v>
   <v>       0.80847211       0.70442971       0.21168148 </v>
   <v>       0.05433049       0.87276129       0.30031171 </v>
   <v>       0.17946104       0.12322919       0.30030775 </v>
   <v>       0.06641966       0.70186430       0.34497817 </v>
   <v>       0.81325174       0.04147298       0.61075497 </v>
   <v>       0.06305219       0.37042988       0.43443473 </v>
   <v>       0.56635182       0.20182951       0.34494159 </v>
   <v>       0.80416997       0.37281328       0.30034052 </v>
   <v>       0.43787905       0.95581653       0.47860998 </v>
   <v>       0.55865770       0.53748289       0.38910045 </v>
   <v>       0.06278047       0.20586907       0.47860773 </v>
   <v>       0.31916205       0.87333266       0.78847514 </v>
   <v>       0.93951396       0.95793400       0.69966418 </v>
   <v>       0.05419231       0.37261015       0.30037375 </v>
   <v>       0.68365995       0.62502138       0.65486802 </v>
   <v>       0.68829045       0.45794121       0.56543351 </v>
   <v>       0.43318648       0.95423388       0.21185152 </v>
   <v>       0.31278401       0.20588025       0.47859253 </v>
   <v>       0.43366661       0.12527687       0.65486973 </v>
   <v>       0.68800229       0.62038653       0.43439256 </v>
   <v>       0.81460861       0.20776430       0.69958536 </v>
   <v>       0.81274551       0.70596676       0.47864165 </v>
   <v>       0.81296939       0.87050925       0.43445338 </v>
   <v>       0.93770567       0.95580111       0.47857592 </v>
   <v>       0.56273990       0.20562513       0.47846351 </v>
   <v>       0.18814464       0.62077846       0.43431769 </v>
   <v>       0.31009122       0.04117653       0.74409005 </v>
   <v>       0.93360773       0.62465021       0.65487916 </v>
   <v>       0.55851161       0.71274366       0.83315640 </v>
   <v>       0.30430687       0.37268552       0.30035949 </v>
   <v>       0.55716252       0.70397611       0.21172212 </v>
   <v>       0.18787288       0.45585071       0.47860923 </v>
   <v>       0.31380008       0.04217945       0.87562656 </v>
   <v>       0.43962351       0.78750554       0.12438925 </v>
   <v>       0.81356400       0.54192883       0.87557771 </v>
   <v>       0.18364294       0.28778591       0.38905995 </v>
   <v>       0.43780859       0.62064482       0.43453073 </v>
   <v>       0.05710481       0.70430331       0.21177765 </v>
   <v>       0.56260898       0.03140040       0.12464333 </v>
   <v>       0.81840095       0.36224374       0.16719928 </v>
   <v>       0.80839477       0.71273710       0.83315185 </v>
   <v>       0.06902427       0.37339068       0.78841659 </v>
   <v>       0.43910784       0.29385739       0.87563734 </v>
   <v>       0.31212201       0.03127169       0.12461656 </v>
   <v>       0.68747344       0.12053789       0.43445359 </v>
   <v>       0.19135862       0.95190003       0.34497811 </v>
   <v>       0.05847534       0.21276708       0.83315025 </v>
   <v>       0.56302326       0.04094201       0.61070962 </v>
   <v>       0.68313425       0.45407474       0.21179471 </v>
   <v>       0.18510644       0.79080658       0.74402642 </v>
   <v>       0.17938481       0.62314832       0.30026407 </v>
   <v>       0.43402499       0.78736370       0.38901384 </v>
   <v>       0.44103793       0.28682083       0.25600991 </v>
   <v>       0.06368479       0.54185997       0.87560155 </v>
   <v>       0.56007257       0.04102728       0.74405996 </v>
   <v>       0.18904292       0.79393763       0.87565455 </v>
   <v>       0.93770989       0.45566962       0.47864358 </v>
   <v>       0.80840639       0.53757837       0.38907248 </v>
   <v>       0.81375042       0.20779512       0.56542989 </v>
   <v>       0.19431569       0.62328373       0.78844785 </v>
   <v>       0.05861581       0.53763265       0.38906527 </v>
   <v>       0.06503417       0.70780686       0.69965232 </v>
   <v>       0.31547606       0.53639509       0.25603765 </v>
   <v>       0.30811307       0.70403649       0.21175137 </v>
   <v>       0.56761701       0.86357573       0.16696964 </v>
   <v>       0.56008608       0.54109115       0.74404110 </v>
   <v>       0.69131026       0.45190686       0.34495829 </v>
   <v>       0.93904683       0.29381572       0.87563500 </v>
   <v>       0.56600430       0.03668201       0.25587573 </v>
   <v>       0.19081711       0.45683041       0.69957805 </v>
   <v>       0.31902168       0.36336673       0.16644194 </v>
   <v>       0.43827087       0.62196674       0.52135562 </v>
   <v>       0.56345774       0.37051710       0.43422251 </v>
   <v>       0.93825466       0.78728056       0.12469220 </v>
   <v>       0.80807584       0.37542643       0.65471573 </v>
   <v>       0.18788166       0.95580455       0.47858740 </v>
  </varray>
 </structure>
 <calculation>
  <scstep>
   <time name="dav">   53.98   53.99</time>
   <time name="total">   54.12   54.17</time>
   <energy>
    <i name="alphaZ">  16403.00255340 </i>
    <i name="ewald"> 729718.06864528 </i>
    <i name="hartreedc">-921365.20487829 </i>
    <i name="XCdc">  -6388.55888714 </i>
    <i name="pawpsdc"> 163151.95320885 </i>
    <i name="pawaedc">-160818.84594568 </i>
    <i name="eentropy">     -1.04150798 </i>
    <i name="bandstr">  38622.56704720 </i>
    <i name="atom"> 169914.59583762 </i>
    <i name="e_fr_energy">  29236.53607326 </i>
    <i name="e_wo_entrp">  29237.57758124 </i>
    <i name="e_0_energy">  29237.05682725 </i>
   </energy>
  </scstep>
  <scstep>
   <time name="dav">   53.39   53.43</time>
   <time name="total">   53.40   53.44</time>
   <energy>
    <i name="e_fr_energy">   1197.75572030 </i>
    <i name="e_wo_entrp">   1199.22162817 </i>
    <i name="e_0_energy">   1198.48867423 </i>
   </energy>
  </scstep>
  <scstep>
   <time name="dav">   70.58   70.62</time>
   <time name="total">   70.59   70.63</time>
   <energy>
    <i name="e_fr_energy">  -1940.71683961 </i>
    <i name="e_wo_entrp">  -1937.13184365 </i>
    <i name="e_0_energy">  -1938.92434163 </i>
   </energy>
  </scstep>
  <scstep>
   <time name="dav">   87.92   87.97</time>
   <time name="total">   87.93   87.97</time>
   <energy>
    <i name="e_fr_energy">  -2610.95444401 </i>
    <i name="e_wo_entrp">  -2607.39258839 </i>
    <i name="e_0_energy">  -2609.17351620 </i>
   </energy>
  </scstep>
  <scstep>
   <time name="dav">   83.99   84.03</time>
   <time name="total">   86.01   86.06</time>
   <energy>
    <i name="e_fr_energy">  -2731.14300884 </i>
    <i name="e_wo_entrp">  -2727.46868053 </i>
    <i name="e_0_energy">  -2729.30584469 </i>
   </energy>
  </scstep>
  <scstep>
   <time name="diag">    8.28    8.28</time>
   <time name="diis">   37.64   37.64</time>
   <time name="orth">    2.25    2.25</time>
   <time name="total">   50.34   50.39</time>
   <energy>
    <i name="e_fr_energy">  -6195.34788539 </i>
    <i name="e_wo_entrp">  -6191.82477923 </i>
    <i name="e_0_energy">  -6193.58633231 </i>
   </energy>
  </scstep>
  <scstep>
   <time name="diag">    8.20    8.20</time>
   <time name="diis">   37.97   37.97</time>
   <time name="orth">    2.26    2.26</time>
   <time name="total">   50.61   50.66</time>
[...]
       <r>     5.8616     0.0000  2772.0000 </r>
       <r>     5.9044     0.0000  2772.0000 </r>
       <r>     5.9473     0.0000  2772.0000 </r>
       <r>     5.9901     0.0000  2772.0000 </r>
       <r>     6.0330     0.0000  2772.0000 </r>
       <r>     6.0758     0.0000  2772.0000 </r>
       <r>     6.1186     0.0000  2772.0000 </r>
       <r>     6.1615     0.0000  2772.0000 </r>
       <r>     6.2043     0.0000  2772.0000 </r>
       <r>     6.2472     0.0000  2772.0000 </r>
       <r>     6.2900     0.0000  2772.0000 </r>
       <r>     6.3329     0.0000  2772.0000 </r>
       <r>     6.3757     0.0000  2772.0000 </r>
       <r>     6.4186     0.0000  2772.0000 </r>
       <r>     6.4614     0.0000  2772.0000 </r>
       <r>     6.5043     0.0000  2772.0000 </r>
       <r>     6.5471     0.0000  2772.0000 </r>
       <r>     6.5900     0.0000  2772.0000 </r>
       <r>     6.6328     0.0000  2772.0000 </r>
       <r>     6.6757     0.0000  2772.0000 </r>
       <r>     6.7185     0.0000  2772.0000 </r>
       <r>     6.7613     0.0000  2772.0000 </r>
       <r>     6.8042     0.0000  2772.0000 </r>
      </set>
     </set>
    </array>
   </total>
  </dos>
 </calculation>
 <structure name="finalpos" >
  <crystal>
   <varray name="basis" >
    <v>       9.72667804       0.00000000       0.00000000 </v>
    <v>       0.00000000       8.42355028       0.00000000 </v>
    <v>       0.00000000       0.00000000      45.00000000 </v>
   </varray>
   <i name="volume">   3686.99226691 </i>
   <varray name="rec_basis" >
    <v>       0.10281002       0.00000000       0.00000000 </v>
    <v>       0.00000000       0.11871479       0.00000000 </v>
    <v>       0.00000000       0.00000000       0.02222222 </v>
   </varray>
  </crystal>
  <varray name="positions" >
   <v>       0.06372188       0.03322636       0.12488805 </v>
   <v>       0.06308181       0.87286470       0.52163652 </v>
   <v>       0.19110093       0.12416791       0.78830598 </v>
   <v>       0.43516643       0.28742013       0.38940981 </v>
   <v>       0.31065751       0.71143205       0.83349226 </v>
   <v>       0.81071034       0.21133637       0.83342275 </v>
   <v>       0.18559274       0.78763080       0.38948504 </v>
   <v>       0.56293723       0.20682497       0.56553982 </v>
   <v>       0.06196582       0.04103755       0.74383637 </v>
   <v>       0.81310839       0.87316385       0.52170676 </v>
   <v>       0.18709013       0.29125548       0.74393938 </v>
   <v>       0.93790480       0.45307877       0.34510169 </v>
   <v>       0.93537238       0.28733025       0.38942876 </v>
   <v>       0.81298334       0.04344535       0.87525310 </v>
   <v>       0.18731486       0.79145608       0.61049093 </v>
   <v>       0.56041764       0.03751618       0.38948774 </v>
   <v>       0.93564784       0.96134250       0.83346652 </v>
   <v>       0.31286028       0.54348398       0.87523770 </v>
   <v>       0.68711242       0.29132654       0.74385748 </v>
   <v>       0.19021833       0.61471497       0.16660032 </v>
   <v>       0.81293251       0.20500641       0.47806888 </v>
   <v>       0.81261328       0.54108233       0.61039656 </v>
   <v>       0.31238219       0.87105285       0.43406692 </v>
   <v>       0.81299710       0.03645504       0.25613540 </v>
   <v>       0.68799127       0.95344684       0.34509966 </v>
   <v>       0.94105419       0.11399336       0.16670446 </v>
   <v>       0.93855384       0.12305173       0.52166287 </v>
   <v>       0.56287186       0.53637307       0.25607877 </v>
   <v>       0.68824960       0.79342717       0.87534014 </v>
   <v>       0.56662286       0.36556352       0.16662031 </v>
   <v>       0.43720828       0.79142339       0.74390922 </v>
   <v>       0.81306098       0.70743083       0.56559404 </v>
   <v>       0.56613063       0.87444663       0.78822546 </v>
   <v>       0.68848226       0.12334923       0.52166947 </v>
   <v>       0.18802750       0.28671474       0.25612727 </v>
   <v>       0.93564769       0.46138004       0.83349571 </v>
   <v>       0.06272399       0.20783012       0.69961847 </v>
   <v>       0.43865600       0.95753541       0.69969680 </v>
   <v>       0.31072751       0.21141000       0.83347097 </v>
   <v>       0.43544368       0.62516906       0.65484473 </v>
   <v>       0.31267292       0.54098797       0.61042542 </v>
   <v>       0.93789713       0.45695942       0.56566117 </v>
   <v>       0.68709313       0.79116387       0.74390703 </v>
   <v>       0.31060943       0.87524690       0.65486731 </v>
   <v>       0.68532294       0.78743706       0.38944788 </v>
   <v>       0.93705534       0.79123541       0.74386484 </v>
   <v>       0.06296862       0.20335645       0.34507944 </v>
   <v>       0.81058941       0.03746493       0.38943228 </v>
   <v>       0.44098273       0.12451336       0.78824409 </v>
   <v>       0.06044812       0.20268184       0.21183001 </v>
   <v>       0.06623218       0.36506002       0.16666869 </v>
   <v>       0.93802523       0.78679510       0.25608886 </v>
   <v>       0.56370359       0.20756104       0.69965778 </v>
   <v>       0.68834693       0.95770167       0.69963710 </v>
   <v>       0.68543199       0.28729863       0.38945761 </v>
   <v>       0.43822421       0.95669208       0.56580002 </v>
   <v>       0.81592192       0.37440400       0.78821238 </v>
   <v>       0.68802480       0.28666449       0.25608169 </v>
   <v>       0.18829352       0.45681496       0.56574598 </v>
   <v>       0.06532523       0.86500921       0.16665400 </v>
   <v>       0.18769837       0.29096590       0.61042766 </v>
   <v>       0.56293771       0.70350892       0.34504881 </v>
   <v>       0.31362130       0.20746707       0.69964325 </v>
   <v>       0.56290222       0.54354152       0.87525533 </v>
   <v>       0.06283834       0.70690633       0.56574641 </v>
   <v>       0.69108571       0.62451205       0.78823314 </v>
   <v>       0.31073771       0.53760559       0.38939336 </v>
   <v>       0.18764521       0.62298000       0.52168173 </v>
   <v>       0.56255771       0.87103242       0.43413892 </v>
   <v>       0.43818234       0.45626716       0.56569692 </v>
   <v>       0.43701455       0.29143736       0.74390175 </v>
   <v>       0.80832380       0.87157714       0.30034799 </v>
   <v>       0.81294858       0.70321722       0.34519678 </v>
   <v>       0.43554945       0.46126684       0.83347349 </v>
   <v>       0.68792942       0.95464573       0.47813767 </v>
   <v>       0.68866728       0.45775780       0.69965495 </v>
   <v>       0.56316350       0.87340365       0.52167814 </v>
   <v>       0.56027314       0.37478273       0.65482934 </v>
   <v>       0.81051197       0.87494328       0.65482703 </v>
   <v>       0.81292901       0.37111753       0.43425049 </v>
   <v>       0.81284371       0.53644717       0.25614459 </v>
   <v>       0.68565485       0.46124095       0.83345822 </v>
   <v>       0.19003786       0.78187693       0.12499076 </v>
   <v>       0.06300270       0.04346581       0.87524045 </v>
   <v>       0.31043534       0.37509508       0.65485183 </v>
   <v>       0.31271551       0.20302037       0.34498515 </v>
   <v>       0.81201722       0.54136641       0.74392213 </v>
   <v>       0.68563837       0.96127884       0.83346966 </v>
   <v>       0.56027637       0.87511954       0.65487755 </v>
   <v>       0.31277719       0.70704849       0.56583902 </v>
   <v>       0.31326552       0.53320623       0.12455654 </v>
   <v>       0.68509902       0.95373038       0.21200060 </v>
   <v>       0.31319232       0.20710467       0.56572865 </v>
   <v>       0.31198444       0.54117259       0.74392262 </v>
   <v>       0.68797458       0.95720367       0.56568207 </v>
   <v>       0.43745374       0.79084418       0.61043096 </v>
   <v>       0.69126913       0.61553260       0.16666618 </v>
   <v>       0.30832318       0.87174880       0.30030567 </v>
   <v>       0.31276111       0.70446183       0.47812916 </v>
   <v>       0.93776727       0.29109452       0.61030979 </v>
   <v>       0.43334645       0.62148104       0.30037116 </v>
   <v>       0.81703696       0.86493925       0.16670630 </v>
   <v>       0.55992808       0.20344667       0.21188234 </v>
   <v>       0.94053583       0.61601443       0.16670228 </v>
   <v>       0.93827364       0.79345421       0.87529445 </v>
   <v>       0.56598061       0.37451887       0.78822526 </v>
   <v>       0.06341843       0.37249804       0.52171847 </v>
   <v>       0.56380687       0.37282184       0.52162092 </v>
   <v>       0.68327473       0.12164947       0.30035976 </v>
   <v>       0.43566404       0.96131528       0.83348407 </v>
   <v>       0.18967688       0.28281769       0.12478914 </v>
   <v>       0.81604882       0.87445755       0.78818420 </v>
   <v>       0.31213048       0.37094064       0.43414112 </v>
   <v>       0.93776256       0.79138995       0.61044706 </v>
   <v>       0.43762241       0.29064860       0.61041834 </v>
   <v>       0.18787022       0.45305320       0.34514803 </v>
   <v>       0.43938743       0.28262296       0.12473172 </v>
   <v>       0.68811674       0.78655990       0.25608973 </v>
   <v>       0.18844844       0.95786862       0.69967903 </v>
   <v>       0.18817078       0.29339969       0.87529748 </v>
   <v>       0.18553624       0.12480005       0.65481838 </v>
   <v>       0.93559128       0.12488943       0.65481215 </v>
   <v>       0.31022342       0.20295525       0.21188654 </v>
   <v>       0.06061715       0.03738143       0.38949806 </v>
   <v>       0.19084722       0.11499642       0.16688313 </v>
   <v>       0.06235382       0.54102093       0.61043088 </v>
   <v>       0.93786153       0.28664652       0.25613913 </v>
   <v>       0.56234259       0.54100254       0.61040840 </v>
   <v>       0.93805635       0.95717624       0.56578476 </v>
   <v>       0.68333377       0.62140247       0.30034039 </v>
   <v>       0.93732897       0.62132060       0.43426323 </v>
   <v>       0.94109433       0.62469298       0.78832258 </v>
   <v>       0.56335322       0.70818352       0.69970751 </v>
   <v>       0.06076634       0.71135094       0.83344169 </v>
   <v>       0.93325032       0.12165285       0.30042208 </v>
   <v>       0.93815729       0.45772932       0.69970183 </v>
   <v>       0.43797499       0.78651690       0.25605892 </v>
   <v>       0.31602830       0.37424745       0.78823544 </v>
   <v>       0.43545311       0.45346401       0.21191794 </v>
   <v>       0.18759026       0.12348018       0.52167792 </v>
   <v>       0.81349576       0.70822877       0.69968288 </v>
   <v>       0.06269803       0.04129701       0.61048351 </v>
   <v>       0.56078512       0.21126592       0.83342474 </v>
   <v>       0.31344262       0.87330286       0.52172079 </v>
   <v>       0.69058842       0.28349093       0.12498190 </v>
   <v>       0.18525491       0.95367532       0.21197271 </v>
   <v>       0.68757447       0.29112973       0.61043152 </v>
   <v>       0.31236075       0.04099984       0.61050771 </v>
   <v>       0.94112270       0.12441428       0.78827444 </v>
   <v>       0.43821326       0.79342203       0.87529169 </v>
   <v>       0.81204579       0.04110547       0.74392527 </v>
   <v>       0.43784032       0.12299198       0.52168015 </v>
   <v>       0.18548595       0.62533592       0.65488554 </v>
   <v>       0.31344154       0.70806812       0.69968567 </v>
   <v>       0.93917836       0.28344206       0.12502270 </v>
   <v>       0.43815901       0.45469225       0.47818381 </v>
   <v>       0.06256035       0.70439498       0.47812192 </v>
   <v>       0.93771847       0.12059988       0.43416966 </v>
   <v>       0.43334890       0.12180603       0.30038589 </v>
   <v>       0.18774680       0.12123332       0.43413955 </v>
   <v>       0.56295499       0.04344530       0.87524621 </v>
   <v>       0.18784534       0.95685677       0.56544464 </v>
   <v>       0.68897906       0.78199575       0.12493688 </v>
   <v>       0.56371409       0.53337041       0.12480081 </v>
   <v>       0.31010840       0.03734977       0.38948935 </v>
   <v>       0.69078313       0.11470645       0.16694257 </v>
   <v>       0.80972936       0.20284086       0.21187723 </v>
   <v>       0.06286352       0.53658802       0.25615057 </v>
   <v>       0.56257634       0.70492155       0.47813496 </v>
   <v>       0.06302171       0.20693422       0.56567474 </v>
   <v>       0.55832755       0.37165752       0.30036526 </v>
   <v>       0.43794522       0.95344927       0.34506417 </v>
   <v>       0.18570770       0.96138711       0.83344011 </v>
   <v>       0.44092492       0.61497061       0.16671393 </v>
   <v>       0.93500542       0.45305514       0.21203376 </v>
   <v>       0.06481741       0.53333904       0.12480003 </v>
   <v>       0.81300733       0.37267835       0.52180860 </v>
   <v>       0.93331464       0.62151157       0.30043778 </v>
   <v>       0.31286020       0.03637442       0.25608833 </v>
   <v>       0.68763555       0.79146205       0.61052250 </v>
   <v>       0.18568847       0.46128287       0.83345039 </v>
   <v>       0.44034782       0.11492942       0.16678654 </v>
   <v>       0.31220034       0.37268172       0.52175193 </v>
   <v>       0.44127732       0.62454414       0.78825889 </v>
   <v>       0.06280917       0.03647505       0.25610455 </v>
   <v>       0.56344540       0.70697717       0.56562946 </v>
   <v>       0.93722894       0.29134426       0.74384920 </v>
   <v>       0.69109823       0.12446652       0.78824455 </v>
   <v>       0.18508489       0.45400448       0.21206014 </v>
   <v>       0.93525034       0.78714638       0.38940125 </v>
   <v>       0.68816423       0.29341505       0.87529164 </v>
   <v>       0.31659521       0.86470638       0.16662819 </v>
   <v>       0.43891103       0.45798088       0.69970296 </v>
   <v>       0.93782694       0.95309781       0.34506408 </v>
   <v>       0.68859156       0.62285330       0.52179276 </v>
   <v>       0.06101224       0.87492696       0.65482944 </v>
   <v>       0.06609638       0.87432433       0.78821187 </v>
   <v>       0.06089930       0.37486387       0.65480253 </v>
   <v>       0.68756024       0.45519716       0.47815038 </v>
   <v>       0.18797978       0.78641345       0.25610009 </v>
   <v>       0.43711059       0.12117071       0.43418402 </v>
   <v>       0.81341939       0.03480950       0.12487415 </v>
   <v>       0.93804542       0.62350631       0.52169653 </v>
   <v>       0.06232464       0.87087344       0.43419911 </v>
   <v>       0.81279397       0.53344795       0.12484509 </v>
   <v>       0.43797178       0.45323494       0.34510156 </v>
   <v>       0.81303781       0.20322264       0.34501239 </v>
   <v>       0.31295132       0.70311729       0.34509619 </v>
   <v>       0.68562723       0.12477430       0.65485423 </v>
   <v>       0.55839047       0.87176707       0.30033671 </v>
   <v>       0.06224422       0.54140153       0.74395897 </v>
   <v>       0.93516366       0.95367544       0.21197180 </v>
   <v>       0.80989084       0.70296320       0.21180886 </v>
   <v>       0.05842639       0.87178061       0.30037579 </v>
   <v>       0.18343778       0.12162093       0.30039032 </v>
   <v>       0.06289271       0.70314527       0.34506508 </v>
   <v>       0.81259681       0.04146571       0.61049121 </v>
   <v>       0.06260450       0.37111318       0.43425090 </v>
   <v>       0.56280062       0.20340154       0.34505529 </v>
   <v>       0.80828700       0.37168292       0.30033263 </v>
   <v>       0.43822452       0.95487670       0.47816397 </v>
   <v>       0.56025204       0.53765356       0.38942358 </v>
   <v>       0.06202746       0.20500826       0.47808407 </v>
   <v>       0.31610986       0.87421757       0.78822785 </v>
   <v>       0.93816840       0.95758060       0.69970418 </v>
   <v>       0.05827178       0.37183379       0.30037235 </v>
   <v>       0.68544714       0.62513407       0.65491496 </v>
   <v>       0.68789852       0.45726247       0.56567989 </v>
   <v>       0.43509241       0.95324227       0.21190521 </v>
   <v>       0.31389914       0.20525676       0.47804331 </v>
   <v>       0.43573849       0.12472691       0.65476013 </v>
   <v>       0.68802107       0.62105999       0.43410037 </v>
   <v>       0.81359483       0.20764109       0.69966224 </v>
   <v>       0.81309959       0.70453406       0.47813525 </v>
   <v>       0.81318347       0.87099005       0.43425903 </v>
   <v>       0.93721336       0.95518653       0.47808234 </v>
   <v>       0.56241071       0.20508549       0.47822211 </v>
   <v>       0.18749332       0.62155600       0.43414582 </v>
   <v>       0.31207408       0.04092243       0.74389837 </v>
   <v>       0.93607912       0.62480503       0.65491815 </v>
   <v>       0.56070504       0.71129501       0.83336232 </v>
   <v>       0.30845988       0.37159727       0.30034487 </v>
   <v>       0.55999990       0.70326622       0.21183012 </v>
   <v>       0.18823918       0.45524342       0.47818508 </v>
   <v>       0.31299647       0.04351057       0.87524473 </v>
   <v>       0.43979900       0.78344823       0.12499199 </v>
   <v>       0.81288289       0.54355004       0.87524413 </v>
   <v>       0.18548128       0.28750778       0.38937712 </v>
   <v>       0.43749544       0.62117817       0.43448600 </v>
   <v>       0.06026622       0.70320261       0.21185245 </v>
   <v>       0.56352125       0.03312086       0.12485311 </v>
   <v>       0.81656617       0.36459571       0.16670110 </v>
   <v>       0.81086015       0.71129287       0.83342614 </v>
   <v>       0.06617953       0.37445647       0.78823945 </v>
   <v>       0.43821035       0.29344308       0.87530512 </v>
   <v>       0.31344961       0.03431171       0.12490884 </v>
   <v>       0.68787724       0.12088661       0.43418365 </v>
   <v>       0.18792966       0.95340828       0.34509693 </v>
   <v>       0.06068070       0.21138286       0.83344982 </v>
   <v>       0.56255182       0.04091793       0.61045292 </v>
   <v>       0.68515255       0.45348481       0.21197655 </v>
   <v>       0.18713116       0.79122806       0.74385426 </v>
   <v>       0.18321316       0.62169780       0.30043362 </v>
   <v>       0.43560630       0.78716253       0.38933668 </v>
   <v>       0.43788644       0.28631061       0.25617343 </v>
   <v>       0.06294200       0.54348312       0.87524785 </v>
   <v>       0.56207421       0.04126654       0.74388559 </v>
   <v>       0.18820583       0.79331745       0.87531101 </v>
   <v>       0.93725596       0.45488253       0.47813299 </v>
   <v>       0.81024138       0.53737017       0.38945694 </v>
   <v>       0.81313955       0.20720059       0.56563747 </v>
   <v>       0.19109602       0.62434029       0.78822337 </v>
   <v>       0.06025749       0.53755143       0.38945565 </v>
   <v>       0.06324506       0.70775229       0.69967174 </v>
   <v>       0.31285519       0.53629295       0.25612892 </v>
   <v>       0.31011658       0.70294170       0.21186045 </v>
   <v>       0.56630758       0.86508664       0.16668068 </v>
   <v>       0.56205747       0.54152497       0.74396201 </v>
   <v>       0.68784190       0.45342352       0.34505454 </v>
   <v>       0.93821123       0.29345484       0.87530107 </v>
   <v>       0.56277403       0.03639707       0.25609000 </v>
   <v>       0.18877372       0.45812017       0.69966216 </v>
   <v>       0.31675781       0.36490334       0.16625639 </v>
   <v>       0.43837954       0.62348154       0.52155555 </v>
   <v>       0.56284442       0.37072675       0.43406647 </v>
   <v>       0.93920240       0.78393626       0.12505021 </v>
   <v>       0.81038080       0.37471606       0.65476953 </v>
   <v>       0.18755147       0.95460787       0.47827641 </v>
  </varray>
 </structure>
</modeling>
