unknown system                          
           1
     9.726678    0.000000    0.000000
     0.000000    8.423550    0.000000
     0.000000    0.000000   45.000000
   Fe   Mn
 281   7
Direct configuration=     1
   0.06092962  0.03149441  0.12449176
   0.06320376  0.87174945  0.52125011
   0.19394063  0.12334045  0.78853243
   0.43344659  0.28763787  0.38907170
   0.30840660  0.71271426  0.83316473
   0.80848365  0.21269002  0.83316356
   0.18342136  0.78766651  0.38907080
   0.56272480  0.20756348  0.56537741
   0.06014671  0.04113663  0.74404420
   0.81329771  0.87199632  0.52137125
   0.18507972  0.29078394  0.74406628
   0.94131234  0.45196507  0.34493511
   0.93367508  0.28756808  0.38903954
   0.81381074  0.04200976  0.87561641
   0.18811465  0.79148939  0.61069812
   0.55872008  0.03741350  0.38908069
   0.93344914  0.96270063  0.83315201
   0.31350664  0.54195125  0.87559407
   0.68530951  0.29136117  0.74416952
   0.19207952  0.61267580  0.16677547
   0.81280502  0.20583216  0.47861524
   0.81268915  0.54177907  0.61084952
   0.31318013  0.87078010  0.43437060
   0.81570497  0.03607493  0.25607343
   0.69132753  0.95210761  0.34494331
   0.94205051  0.11227513  0.16681245
   0.93849614  0.12194467  0.52127625
   0.56596614  0.53649237  0.25600014
   0.68903104  0.79403307  0.87565741
   0.56805601  0.36354302  0.16690870
   0.43528325  0.79096246  0.74408420
   0.81333591  0.70801769  0.56532944
   0.56905190  0.87345201  0.78843293
   0.68863589  0.12188509  0.52128525
   0.19116932  0.28707883  0.25591249
   0.93341578  0.46265702  0.83314043
   0.06495317  0.20843200  0.69965870
   0.44007646  0.95774260  0.69967567
   0.30857653  0.21273606  0.83316272
   0.43384603  0.62562955  0.65492708
   0.31331566  0.54097787  0.61066281
   0.93859941  0.45746681  0.56538498
   0.68528654  0.79132599  0.74414451
   0.30863750  0.87532144  0.65487929
   0.68365709  0.78753834  0.38904534
   0.93521034  0.79118120  0.74414560
   0.06608282  0.20167833  0.34492397
   0.80869397  0.03745484  0.38899843
   0.44408552  0.12314693  0.78844611
   0.05833968  0.20518995  0.21194179
   0.06811397  0.36331719  0.16692624
   0.94091385  0.78665715  0.25615446
   0.56432640  0.20766361  0.69967024
   0.68964442  0.95795026  0.69966082
   0.68365601  0.28758948  0.38907527
   0.43860258  0.95749962  0.56546774
   0.81915112  0.37335795  0.78843823
   0.69088728  0.28667958  0.25605228
   0.18880925  0.45767843  0.56543173
   0.06696406  0.86246922  0.16685378
   0.18858272  0.29105838  0.61077059
   0.56622193  0.70243100  0.34497264
   0.31453866  0.20823910  0.69968230
   0.56359702  0.54189364  0.87556299
   0.06351381  0.70703158  0.56550266
   0.69452245  0.62344955  0.78846800
   0.30875842  0.53758715  0.38900678
   0.18821286  0.62186207  0.52136117
   0.56265394  0.87113156  0.43436849
   0.43809970  0.45795031  0.56532058
   0.43512535  0.29089340  0.74407914
   0.80437133  0.87273420  0.30030516
   0.81653615  0.70198870  0.34499133
   0.43340348  0.46269183  0.83312203
   0.68774676  0.95572952  0.47861808
   0.68996881  0.45780024  0.69962879
   0.56302602  0.87240886  0.52135190
   0.55881315  0.37558889  0.65496046
   0.80847344  0.87523079  0.65483094
   0.81255798  0.37044850  0.43445443
   0.81523015  0.53660691  0.25606211
   0.68339429  0.46269831  0.83315274
   0.18958701  0.78582369  0.12471687
   0.06369892  0.04205901  0.87562034
   0.30876517  0.37533744  0.65492681
   0.31616619  0.20198905  0.34489393
   0.81004303  0.54110527  0.74396684
   0.68354178  0.96269681  0.83315126
   0.55851029  0.87529652  0.65489131
   0.31309087  0.70736080  0.56547805
   0.31250777  0.53013205  0.12436280
   0.68207322  0.95479010  0.21198935
   0.31384170  0.20715262  0.56546305
   0.31011698  0.54110342  0.74408744
   0.68859312  0.95766217  0.56537178
   0.43817231  0.79084565  0.61067725
   0.69362658  0.61391942  0.16689993
   0.30446167  0.87310127  0.30032850
   0.31233247  0.70561298  0.47866161
   0.93822166  0.29125779  0.61062649
   0.42940771  0.62309794  0.30033842
   0.81815448  0.86237597  0.16691391
   0.55810731  0.20392491  0.21171041
   0.94295583  0.61362379  0.16684293
   0.93916210  0.79402087  0.87563021
   0.56923010  0.37324538  0.78843757
   0.06339196  0.37228376  0.52131976
   0.56351237  0.37200130  0.52126431
   0.67939042  0.12297573  0.30033722
   0.43348559  0.96267028  0.83315098
   0.19021356  0.28674516  0.12455997
   0.81933090  0.87349734  0.78838899
   0.31199547  0.37091975  0.43429165
   0.93789339  0.79174974  0.61080159
   0.43859649  0.29040153  0.61067611
   0.19138468  0.45180469  0.34498457
   0.43945374  0.28697303  0.12459303
   0.69075080  0.78642594  0.25602639
   0.18949259  0.95779993  0.69962079
   0.18898807  0.29381608  0.87565277
   0.18365440  0.12508655  0.65491639
   0.93335867  0.12545420  0.65484729
   0.30692783  0.20434310  0.21181934
   0.05868608  0.03751162  0.38903876
   0.19382898  0.11348705  0.16728717
   0.06266122  0.54164126  0.61085095
   0.94100749  0.28658715  0.25593752
   0.56320739  0.54118848  0.61076162
   0.93820109  0.95784866  0.56538501
   0.67946847  0.62318136  0.30020435
   0.93762451  0.62036581  0.43443790
   0.94416036  0.62342564  0.78848401
   0.56426603  0.70824296  0.69966656
   0.05846989  0.71272890  0.83316631
   0.92926284  0.12307360  0.30036745
   0.93981362  0.45802616  0.69968064
   0.44098233  0.78645691  0.25605275
   0.31906980  0.37341342  0.78842316
   0.43340615  0.45518497  0.21194217
   0.18831665  0.12207738  0.52122211
   0.81459973  0.70767142  0.69965985
   0.06342506  0.04102310  0.61065953
   0.55838951  0.21284835  0.83314834
   0.31355150  0.87225948  0.52130042
   0.69031450  0.28694071  0.12460379
   0.18317570  0.95451511  0.21196006
   0.68850894  0.29134414  0.61066523
   0.31330592  0.04100999  0.61068515
   0.94413794  0.12352945  0.78843622
   0.43901740  0.79395792  0.87563134
   0.81025075  0.04102469  0.74409428
   0.43819332  0.12195721  0.52136428
   0.18378248  0.62536261  0.65497065
   0.31440828  0.70780980  0.69966068
   0.93913393  0.28556198  0.12465694
   0.43777473  0.45565050  0.47866503
   0.06322483  0.70527063  0.47856966
   0.93809136  0.12035032  0.43442523
   0.42925636  0.12267433  0.30037166
   0.18802578  0.12019316  0.43449493
   0.56387502  0.04194606  0.87560525
   0.18854328  0.95686910  0.56532390
   0.68983294  0.78559562  0.12469055
   0.56279225  0.53066877  0.12437883
   0.30854425  0.03754980  0.38907210
   0.69224108  0.11276078  0.16713852
   0.80731124  0.20481504  0.21188029
   0.06581584  0.53646087  0.25614148
   0.56291821  0.70569245  0.47863441
   0.06350753  0.20757418  0.56546019
   0.55424482  0.37284977  0.30036063
   0.44134178  0.95212667  0.34490586
   0.18346992  0.96293311  0.83310992
   0.44246235  0.61138934  0.16695820
   0.93339703  0.45410024  0.21189598
   0.06284088  0.53209310  0.12447415
   0.81325162  0.37177895  0.52130086
   0.92931362  0.62300301  0.30034837
   0.31575789  0.03628617  0.25594504
   0.68826004  0.79142930  0.61078853
   0.18345600  0.46275034  0.83314131
   0.44235291  0.11300038  0.16693699
   0.31323825  0.37184683  0.52136246
   0.44461237  0.62332692  0.78848537
   0.06583166  0.03637490  0.25593503
   0.56349792  0.70778267  0.56530099
   0.93535552  0.29147956  0.74417275
   0.69388100  0.12347738  0.78845197
   0.18196467  0.45455278  0.21201816
   0.93366849  0.78754353  0.38907120
   0.68897918  0.29395336  0.87562581
   0.31807452  0.86341309  0.16694241
   0.43962684  0.45768478  0.69962062
   0.94150720  0.95219712  0.34502395
   0.68845544  0.62202748  0.52132595
   0.05887778  0.87544981  0.65492216
   0.06917196  0.87340946  0.78844603
   0.05838774  0.37539663  0.65483249
   0.68779639  0.45578624  0.47864610
   0.19088315  0.78617393  0.25613512
   0.43774621  0.12045345  0.43444192
   0.81425125  0.03272837  0.12452273
   0.93836679  0.62175352  0.52130994
   0.06267360  0.87038324  0.43446033
   0.81175201  0.53204945  0.12438322
   0.44131917  0.45191751  0.34497423
   0.81648460  0.20164056  0.34493839
   0.31646037  0.70191446  0.34495712
   0.68386525  0.12553776  0.65495897
   0.55432420  0.87230946  0.30041224
   0.05999969  0.54101809  0.74409090
   0.93315196  0.95435907  0.21195113
   0.80847211  0.70442971  0.21168148
   0.05433049  0.87276129  0.30031171
   0.17946104  0.12322919  0.30030775
   0.06641966  0.70186430  0.34497817
   0.81325174  0.04147298  0.61075497
   0.06305219  0.37042988  0.43443473
   0.56635182  0.20182951  0.34494159
   0.80416997  0.37281328  0.30034052
   0.43787905  0.95581653  0.47860998
   0.55865770  0.53748289  0.38910045
   0.06278047  0.20586907  0.47860773
   0.31916205  0.87333266  0.78847514
   0.93951396  0.95793400  0.69966418
   0.05419231  0.37261015  0.30037375
   0.68365995  0.62502138  0.65486802
   0.68829045  0.45794121  0.56543351
   0.43318648  0.95423388  0.21185152
   0.31278401  0.20588025  0.47859253
   0.43366661  0.12527687  0.65486973
   0.68800229  0.62038653  0.43439256
   0.81460861  0.20776430  0.69958536
   0.81274551  0.70596676  0.47864165
   0.81296939  0.87050925  0.43445338
   0.93770567  0.95580111  0.47857592
   0.56273990  0.20562513  0.47846351
   0.18814464  0.62077846  0.43431769
   0.31009122  0.04117653  0.74409005
   0.93360773  0.62465021  0.65487916
   0.55851161  0.71274366  0.83315640
   0.30430687  0.37268552  0.30035949
   0.55716252  0.70397611  0.21172212
   0.18787288  0.45585071  0.47860923
   0.31380008  0.04217945  0.87562656
   0.43962351  0.78750554  0.12438925
   0.81356400  0.54192883  0.87557771
   0.18364294  0.28778591  0.38905995
   0.43780859  0.62064482  0.43453073
   0.05710481  0.70430331  0.21177765
   0.56260898  0.03140040  0.12464333
   0.81840095  0.36224374  0.16719928
   0.80839477  0.71273710  0.83315185
   0.06902427  0.37339068  0.78841659
   0.43910784  0.29385739  0.87563734
   0.31212201  0.03127169  0.12461656
   0.68747344  0.12053789  0.43445359
   0.19135862  0.95190003  0.34497811
   0.05847534  0.21276708  0.83315025
   0.56302326  0.04094201  0.61070962
   0.68313425  0.45407474  0.21179471
   0.18510644  0.79080658  0.74402642
   0.17938481  0.62314832  0.30026407
   0.43402499  0.78736370  0.38901384
   0.44103793  0.28682083  0.25600991
   0.06368479  0.54185997  0.87560155
   0.56007257  0.04102728  0.74405996
   0.18904292  0.79393763  0.87565455
   0.93770989  0.45566962  0.47864358
   0.80840639  0.53757837  0.38907248
   0.81375042  0.20779512  0.56542989
   0.19431569  0.62328373  0.78844785
   0.05861581  0.53763265  0.38906527
   0.06503417  0.70780686  0.69965232
   0.31547606  0.53639509  0.25603765
   0.30811307  0.70403649  0.21175137
   0.56761701  0.86357573  0.16696964
   0.56008608  0.54109115  0.74404110
   0.69131026  0.45190686  0.34495829
   0.93904683  0.29381572  0.87563500
   0.56600430  0.03668201  0.25587573
   0.19081711  0.45683041  0.69957805
   0.31902168  0.36336673  0.16644194
   0.43827087  0.62196674  0.52135562
   0.56345774  0.37051710  0.43422251
   0.93825466  0.78728056  0.12469220
   0.80807584  0.37542643  0.65471573
   0.18788166  0.95580455  0.47858740
Direct configuration=     2
   0.06137913  0.03177323  0.12455556
   0.06318412  0.87192899  0.52131232
   0.19348348  0.12347366  0.78849598
   0.43372346  0.28760282  0.38912613
   0.30876896  0.71250785  0.83321746
   0.80884211  0.21247210  0.83320529
   0.18377092  0.78766076  0.38913748
   0.56275900  0.20744459  0.56540355
   0.06043955  0.04112068  0.74401074
   0.81326723  0.87218427  0.52142526
   0.18540336  0.29085985  0.74404585
   0.94076378  0.45214436  0.34496192
   0.93394832  0.28752979  0.38910220
   0.81367754  0.04224087  0.87555793
   0.18798590  0.79148403  0.61066477
   0.55899336  0.03743003  0.38914622
   0.93380309  0.96248199  0.83320264
   0.31340259  0.54219800  0.87553670
   0.68559975  0.29135559  0.74411928
   0.19177990  0.61300408  0.16674727
   0.81282555  0.20569923  0.47852728
   0.81267693  0.54166691  0.61077660
   0.31305167  0.87082401  0.43432171
   0.81526905  0.03613612  0.25608341
   0.69079044  0.95232320  0.34496848
   0.94189012  0.11255173  0.16679507
   0.93850543  0.12212289  0.52133849
   0.56546801  0.53647316  0.25601280
   0.68890524  0.79393553  0.87560633
   0.56782529  0.36386829  0.16686227
   0.43559315  0.79103666  0.74405603
   0.81329165  0.70792321  0.56537204
   0.56858162  0.87361213  0.78839953
   0.68861116  0.12212079  0.52134711
   0.19066354  0.28702022  0.25594707
   0.93377509  0.46245145  0.83319763
   0.06459431  0.20833511  0.69965222
   0.43984779  0.95770925  0.69967907
   0.30892280  0.21252258  0.83321235
   0.43410323  0.62555542  0.65491382
   0.31321219  0.54097950  0.61062459
   0.93848635  0.45738513  0.56542944
   0.68557737  0.79129989  0.74410628
   0.30895495  0.87530944  0.65487737
   0.68392527  0.78752204  0.38911014
   0.93550736  0.79118992  0.74410040
   0.06558148  0.20194848  0.34494900
   0.80899911  0.03745647  0.38906827
   0.44358602  0.12336690  0.78841359
   0.05867911  0.20478618  0.21192379
   0.06781104  0.36359776  0.16688478
   0.94044883  0.78667936  0.25614390
   0.56422613  0.20764710  0.69966823
   0.68943555  0.95791024  0.69965701
   0.68394192  0.28754266  0.38913682
   0.43854167  0.95736962  0.56552123
   0.81863127  0.37352634  0.78840187
   0.69042647  0.28667715  0.25605701
   0.18872623  0.45753943  0.56548232
   0.06670023  0.86287811  0.16682162
   0.18844035  0.29104349  0.61071538
   0.56569322  0.70260453  0.34498491
   0.31439098  0.20811482  0.69967601
   0.56348517  0.54215892  0.87551346
   0.06340507  0.70701141  0.56554190
   0.69396919  0.62362060  0.78843020
   0.30907705  0.53759011  0.38906901
   0.18812148  0.62204204  0.52141278
   0.56263845  0.87111560  0.43433153
   0.43811301  0.45767935  0.56538117
   0.43542948  0.29098097  0.74405059
   0.80500762  0.87254793  0.30031205
   0.81595861  0.70218647  0.34502440
   0.43374895  0.46246243  0.83317861
   0.68777616  0.95555505  0.47854074
   0.68975928  0.45779341  0.69963300
   0.56304816  0.87256901  0.52140442
   0.55904819  0.37545911  0.65493935
   0.80880161  0.87518451  0.65483031
   0.81261771  0.37055620  0.43442160
   0.81484597  0.53658120  0.25607539
   0.68375821  0.46246370  0.83320192
   0.18965959  0.78518832  0.12476096
   0.06358684  0.04228549  0.87555918
   0.30903404  0.37529843  0.65491474
   0.31561069  0.20215508  0.34490862
   0.81036084  0.54114731  0.74395965
   0.68387930  0.96246854  0.83320251
   0.55879460  0.87526803  0.65488910
   0.31304038  0.70731052  0.56553616
   0.31262976  0.53062695  0.12439398
   0.68256032  0.95461950  0.21199116
   0.31373716  0.20714490  0.56550580
   0.31041761  0.54111456  0.74406090
   0.68849354  0.95758836  0.56542173
   0.43805664  0.79084541  0.61063760
   0.69324707  0.61417911  0.16686230
   0.30508331  0.87288355  0.30032483
   0.31240147  0.70542766  0.47857590
   0.93814851  0.29123150  0.61057551
   0.43004178  0.62283765  0.30034369
   0.81797457  0.86278862  0.16688049
   0.55840043  0.20384792  0.21173809
   0.94256625  0.61400865  0.16682029
   0.93901907  0.79392965  0.87557616
   0.56870698  0.37345039  0.78840339
   0.06339622  0.37231826  0.52138395
   0.56355978  0.37213339  0.52132172
   0.68001574  0.12276222  0.30034085
   0.43383629  0.96245214  0.83320461
   0.19012717  0.28611290  0.12459686
   0.81880254  0.87365192  0.78835603
   0.31201721  0.37092311  0.43426742
   0.93787233  0.79169182  0.61074452
   0.43843968  0.29044130  0.61063461
   0.19081891  0.45200568  0.34501089
   0.43944306  0.28627274  0.12461535
   0.69032676  0.78644751  0.25603658
   0.18932450  0.95781099  0.69963017
   0.18885650  0.29374905  0.87559557
   0.18395735  0.12504043  0.65490061
   0.93371809  0.12536328  0.65484163
   0.30745837  0.20411968  0.21183016
   0.05899695  0.03749066  0.38911270
   0.19334897  0.11373004  0.16722213
   0.06261174  0.54154140  0.61078332
   0.94050104  0.28659671  0.25596998
   0.56306817  0.54115854  0.61070476
   0.93817779  0.95774041  0.56544937
   0.68009072  0.62289499  0.30022625
   0.93757693  0.62051951  0.43440978
   0.94366678  0.62362966  0.78845803
   0.56411908  0.70823339  0.69967315
   0.05883958  0.71250707  0.83321065
   0.92990476  0.12284488  0.30037624
   0.93954698  0.45797837  0.69968405
   0.44049819  0.78646656  0.25605375
   0.31858017  0.37354768  0.78839294
   0.43373568  0.45490793  0.21193827
   0.18819971  0.12230321  0.52129548
   0.81442201  0.70776114  0.69966356
   0.06330802  0.04106719  0.61063120
   0.55877517  0.21259360  0.83319284
   0.31353397  0.87242745  0.52136809
   0.69035860  0.28638535  0.12466466
   0.18351042  0.95437992  0.21196209
   0.68835850  0.29130962  0.61062760
   0.31315377  0.04100836  0.61065659
   0.94365253  0.12367189  0.78841018
   0.43888795  0.79387165  0.87557666
   0.81053972  0.04103770  0.74406707
   0.43813650  0.12212379  0.52141513
   0.18405672  0.62535831  0.65495695
   0.31425265  0.70785139  0.69966470
   0.93914108  0.28522071  0.12471582
   0.43783659  0.45549623  0.47858756
   0.06311786  0.70512966  0.47849758
   0.93803133  0.12039049  0.43438409
   0.42991519  0.12253455  0.30037395
   0.18798087  0.12036061  0.43443772
   0.56372691  0.04218742  0.87554745
   0.18843092  0.95686712  0.56534334
   0.68969548  0.78501610  0.12473020
   0.56294065  0.53110369  0.12444676
   0.30879605  0.03751760  0.38913927
   0.69200638  0.11307400  0.16710698
   0.80770052  0.20449722  0.21187979
   0.06534056  0.53648134  0.25614294
   0.56286318  0.70556835  0.47855401
   0.06342932  0.20747116  0.56549473
   0.55490208  0.37265784  0.30036138
   0.44079499  0.95233958  0.34493135
   0.18383017  0.96268423  0.83316307
   0.44221485  0.61196587  0.16691888
   0.93365596  0.45393200  0.21191816
   0.06315907  0.53229368  0.12452661
   0.81321230  0.37192374  0.52138260
   0.92995772  0.62276291  0.30036277
   0.31529141  0.03630038  0.25596811
   0.68815951  0.79143457  0.61074570
   0.18381539  0.46251410  0.83319107
   0.44203012  0.11331093  0.16691277
   0.31307117  0.37198123  0.52142516
   0.44407548  0.62352287  0.78844891
   0.06534509  0.03639102  0.25596232
   0.56348946  0.70765300  0.56535387
   0.93565711  0.29145778  0.74412066
   0.69343302  0.12363662  0.78841858
   0.18246697  0.45446451  0.21202492
   0.93392315  0.78747960  0.38912433
   0.68884798  0.29386670  0.87557202
   0.31783637  0.86362129  0.16689182
   0.43951160  0.45773245  0.69963387
   0.94091474  0.95234212  0.34503041
   0.68847735  0.62216043  0.52140110
   0.05922139  0.87536564  0.65490723
   0.06867684  0.87355674  0.78840833
   0.05879206  0.37531086  0.65482767
   0.68775837  0.45569141  0.47856629
   0.19041575  0.78621249  0.25612948
   0.43764388  0.12056892  0.43440040
   0.81411733  0.03306340  0.12457930
   0.93831506  0.62203569  0.52137218
   0.06261742  0.87046216  0.43441828
   0.81191975  0.53227458  0.12445758
   0.44078029  0.45212960  0.34499473
   0.81592972  0.20189525  0.34495030
   0.31589547  0.70210810  0.34497950
   0.68414890  0.12541486  0.65494211
   0.55497881  0.87222215  0.30040008
   0.06036102  0.54107981  0.74406966
   0.93347581  0.95424902  0.21195446
   0.80870050  0.70419363  0.21170199
   0.05498986  0.87260341  0.30032203
   0.18010123  0.12297029  0.30032104
   0.06585187  0.70207052  0.34499216
   0.81314631  0.04147181  0.61071251
   0.06298012  0.37053988  0.43440513
   0.56578013  0.20208258  0.34495989
   0.80483275  0.37263131  0.30033925
   0.43793466  0.95566523  0.47853818
   0.55891437  0.53751037  0.38915247
   0.06265925  0.20573050  0.47852343
   0.31867070  0.87347512  0.78843533
   0.93929734  0.95787711  0.69967062
   0.05484904  0.37248517  0.30037353
   0.68394766  0.62503952  0.65487558
   0.68822736  0.45783194  0.56547318
   0.43349331  0.95407425  0.21186017
   0.31296353  0.20577988  0.47850411
   0.43400015  0.12518833  0.65485208
   0.68800531  0.62049494  0.43434552
   0.81444540  0.20774447  0.69959773
   0.81280251  0.70573611  0.47856013
   0.81300385  0.87058665  0.43442210
   0.93762642  0.95570217  0.47849646
   0.56268691  0.20553826  0.47842465
   0.18803978  0.62090363  0.43429003
   0.31041042  0.04113562  0.74405919
   0.93400559  0.62467513  0.65488544
   0.55886471  0.71251045  0.83318955
   0.30497543  0.37251033  0.30035713
   0.55761929  0.70386183  0.21173950
   0.18793184  0.45575295  0.47854095
   0.31367071  0.04239374  0.87556509
   0.43965176  0.78685238  0.12448628
   0.81345435  0.54218982  0.87552401
   0.18393889  0.28774113  0.38911101
   0.43775818  0.62073068  0.43452353
   0.05761375  0.70412612  0.21178969
   0.56275584  0.03167737  0.12467710
   0.81810558  0.36262237  0.16711908
   0.80879166  0.71250460  0.83319600
   0.06856631  0.37356226  0.78838807
   0.43896336  0.29379069  0.87558386
   0.31233573  0.03176109  0.12466361
   0.68753845  0.12059403  0.43441013
   0.19080661  0.95214283  0.34499724
   0.05883037  0.21254424  0.83319847
   0.56294737  0.04093813  0.61066829
   0.68345916  0.45397977  0.21182398
   0.18543239  0.79087443  0.74399871
   0.18000111  0.62291481  0.30029136
   0.43427956  0.78733131  0.38906581
   0.44053059  0.28673869  0.25603624
   0.06356521  0.54212127  0.87554461
   0.56039480  0.04106580  0.74403189
   0.18890816  0.79383779  0.87559924
   0.93763681  0.45554291  0.47856138
   0.80870180  0.53754485  0.38913437
   0.81365208  0.20769941  0.56546331
   0.19379737  0.62345382  0.78841171
   0.05888009  0.53761958  0.38912812
   0.06474615  0.70779807  0.69965544
   0.31505414  0.53637865  0.25605234
   0.30843560  0.70386024  0.21176893
   0.56740622  0.86381896  0.16692312
   0.56040344  0.54116099  0.74402836
   0.69075191  0.45215102  0.34497379
   0.93891231  0.29375763  0.87558124
   0.56548428  0.03663614  0.25591022
   0.19048816  0.45703804  0.69959159
   0.31865723  0.36361410  0.16641207
   0.43828836  0.62221059  0.52138780
   0.56335900  0.37055085  0.43419739
   0.93840723  0.78674218  0.12474983
   0.80844691  0.37531208  0.65472439
   0.18782851  0.95561190  0.47853733
Direct configuration=     3
   0.06272766  0.03260968  0.12474695
   0.06312523  0.87246760  0.52149893
   0.19211204  0.12387328  0.78838661
   0.43455406  0.28749766  0.38928942
   0.30985604  0.71188860  0.83337564
   0.80991750  0.21181836  0.83333046
   0.18481959  0.78764351  0.38933755
   0.56286159  0.20708793  0.56548199
   0.06131810  0.04107283  0.74391037
   0.81317580  0.87274814  0.52158730
   0.18637429  0.29108758  0.74398456
   0.93911810  0.45268222  0.34504238
   0.93476803  0.28741493  0.38929017
   0.81327795  0.04293419  0.87538246
   0.18759964  0.79146794  0.61056470
   0.55981320  0.03747962  0.38934281
   0.93486496  0.96182608  0.83335453
   0.31309043  0.54293823  0.87536459
   0.68647047  0.29133887  0.74396858
   0.19088103  0.61398890  0.16666269
   0.81288711  0.20530043  0.47826342
   0.81264030  0.54133042  0.61055785
   0.31266631  0.87095573  0.43417505
   0.81396128  0.03631969  0.25611334
   0.68917919  0.95296999  0.34504399
   0.94140895  0.11338156  0.16674291
   0.93853330  0.12265754  0.52152521
   0.56397362  0.53641555  0.25605077
   0.68852784  0.79364291  0.87545311
   0.56713315  0.36484409  0.16672299
   0.43652285  0.79125927  0.74397152
   0.81315887  0.70763979  0.56549982
   0.56717079  0.87409248  0.78829933
   0.68853696  0.12282790  0.52153266
   0.18914619  0.28684438  0.25605079
   0.93485299  0.46183473  0.83336921
   0.06351772  0.20804443  0.69963279
   0.43916178  0.95760918  0.69968928
   0.30996162  0.21188216  0.83336122
   0.43487482  0.62533303  0.65487405
   0.31290178  0.54098438  0.61050995
   0.93814719  0.45714008  0.56556283
   0.68644987  0.79122159  0.74399159
   0.30990730  0.87527344  0.65487158
   0.68472979  0.78747312  0.38930455
   0.93639840  0.79121611  0.74396481
   0.06407748  0.20275893  0.34502408
   0.80991451  0.03746134  0.38927780
   0.44208752  0.12402682  0.78831602
   0.05969738  0.20357489  0.21186981
   0.06690222  0.36443946  0.16676040
   0.93905376  0.78674598  0.25611222
   0.56392535  0.20759756  0.69966221
   0.68880892  0.95779019  0.69964555
   0.68479963  0.28740219  0.38932147
   0.43835893  0.95697962  0.56568171
   0.81707172  0.37403154  0.78829280
   0.68904403  0.28666986  0.25607121
   0.18847715  0.45712241  0.56563409
   0.06590875  0.86410481  0.16672513
   0.18801326  0.29099883  0.61054977
   0.56410711  0.70312511  0.34502169
   0.31394794  0.20774196  0.69965715
   0.56314962  0.54295477  0.87536487
   0.06307885  0.70695092  0.56565962
   0.69230941  0.62413373  0.78831677
   0.31003296  0.53759902  0.38925571
   0.18784733  0.62258195  0.52156759
   0.56259198  0.87106772  0.43422066
   0.43815292  0.45686647  0.56556292
   0.43634187  0.29124368  0.74396491
   0.80691647  0.87198912  0.30033274
   0.81422598  0.70277979  0.34512363
   0.43478535  0.46177423  0.83334835
   0.68786438  0.95503163  0.47830873
   0.68913071  0.45777291  0.69964563
   0.56311455  0.87304944  0.52156197
   0.55975329  0.37506977  0.65487602
   0.80978613  0.87504566  0.65482842
   0.81279690  0.37087931  0.43432311
   0.81369343  0.53650405  0.25611522
   0.68484995  0.46175987  0.83334945
   0.18987733  0.78328223  0.12489324
   0.06325060  0.04296490  0.87537571
   0.30984066  0.37518138  0.65487853
   0.31394417  0.20265316  0.34495267
   0.81131428  0.54127343  0.74393805
   0.68489185  0.96178372  0.83335628
   0.55964753  0.87518256  0.65488245
   0.31288888  0.70715969  0.56571049
   0.31299572  0.53211163  0.12448755
   0.68402164  0.95410771  0.21199659
   0.31342354  0.20712174  0.56563408
   0.31131950  0.54114796  0.74398130
   0.68819482  0.95736693  0.56557159
   0.43770960  0.79084470  0.61051866
   0.69210853  0.61495820  0.16674941
   0.30694823  0.87223037  0.30031380
   0.31260849  0.70487171  0.47831875
   0.93792906  0.29115266  0.61042255
   0.43194401  0.62205676  0.30035950
   0.81743487  0.86402656  0.16678022
   0.55927977  0.20361696  0.21182113
   0.94139750  0.61516321  0.16675236
   0.93858999  0.79365598  0.87541400
   0.56713763  0.37406542  0.78830085
   0.06340900  0.37242174  0.52157650
   0.56370201  0.37252968  0.52149395
   0.68189167  0.12212170  0.30035173
   0.43488837  0.96179774  0.83336547
   0.18986797  0.28421612  0.12470754
   0.81721745  0.87411565  0.78825712
   0.31208241  0.37093320  0.43419472
   0.93780914  0.79151806  0.61057329
   0.43796924  0.29056062  0.61051012
   0.18912159  0.45260865  0.34508983
   0.43941104  0.28417187  0.12468233
   0.68905463  0.78651220  0.25606718
   0.18882022  0.95784416  0.69965829
   0.18846179  0.29354795  0.87542399
   0.18486618  0.12490206  0.65485328
   0.93479633  0.12509052  0.65482466
   0.30904998  0.20344941  0.21186261
   0.05992957  0.03742778  0.38933452
   0.19190892  0.11445899  0.16702700
   0.06246327  0.54124181  0.61058045
   0.93898169  0.28662538  0.25606734
   0.56265052  0.54106875  0.61053417
   0.93810789  0.95741567  0.56564242
   0.68195748  0.62203587  0.30029195
   0.93743420  0.62098063  0.43432542
   0.94218603  0.62424172  0.78838006
   0.56367824  0.70820468  0.69969293
   0.05994866  0.71184159  0.83334364
   0.93183053  0.12215872  0.30040263
   0.93874705  0.45783501  0.69969428
   0.43904579  0.78649554  0.25605672
   0.31711127  0.37395048  0.78830228
   0.43472426  0.45407678  0.21192657
   0.18784890  0.12298069  0.52151562
   0.81388884  0.70803032  0.69967468
   0.06295690  0.04119948  0.61054619
   0.55993213  0.21182936  0.83332632
   0.31348139  0.87293135  0.52157111
   0.69049088  0.28471927  0.12484727
   0.18451458  0.95397434  0.21196821
   0.68790720  0.29120607  0.61051473
   0.31269729  0.04100346  0.61057089
   0.94219632  0.12409922  0.78833204
   0.43849959  0.79361284  0.87541263
   0.81140664  0.04107671  0.74398545
   0.43796601  0.12262353  0.52156768
   0.18487941  0.62534542  0.65491584
   0.31378576  0.70797614  0.69967677
   0.93916254  0.28419689  0.12489247
   0.43802218  0.45503344  0.47835516
   0.06279695  0.70470677  0.47828134
   0.93785124  0.12051102  0.43426066
   0.43189170  0.12211520  0.30038082
   0.18784614  0.12086296  0.43426609
   0.56328258  0.04291148  0.87537405
   0.18809385  0.95686116  0.56540165
   0.68928309  0.78327753  0.12484917
   0.56338586  0.53240845  0.12465056
   0.30955146  0.03742099  0.38934078
   0.69130226  0.11401366  0.16701234
   0.80886835  0.20354379  0.21187832
   0.06391474  0.53654274  0.25614733
   0.56269807  0.70519604  0.47831280
   0.06319469  0.20716209  0.56559835
   0.55687384  0.37208204  0.30036361
   0.43915461  0.95297834  0.34500780
   0.18491091  0.96193759  0.83332254
   0.44147234  0.61369545  0.16680090
   0.93443273  0.45342726  0.21198470
   0.06411364  0.53289541  0.12468400
   0.81309431  0.37235811  0.52162781
   0.93189002  0.62204262  0.30040594
   0.31389196  0.03634299  0.25603731
   0.68785791  0.79145039  0.61061722
   0.18489356  0.46180538  0.83334034
   0.44106176  0.11424256  0.16684011
   0.31256990  0.37238445  0.52161326
   0.44246481  0.62411073  0.78833953
   0.06388537  0.03643939  0.25604419
   0.56346410  0.70726398  0.56551250
   0.93656189  0.29139243  0.74396440
   0.69208907  0.12411432  0.78831841
   0.18397389  0.45419971  0.21204519
   0.93468710  0.78728779  0.38928373
   0.68845440  0.29360673  0.87541063
   0.31712194  0.86424589  0.16674007
   0.43916591  0.45787545  0.69967364
   0.93913735  0.95277711  0.34504979
   0.68854309  0.62255926  0.52162655
   0.06025223  0.87511313  0.65486246
   0.06719149  0.87399858  0.78829524
   0.06000502  0.37505357  0.65481320
   0.68764433  0.45540691  0.47832688
   0.18901356  0.78632816  0.25611256
   0.43733691  0.12091532  0.43427585
   0.81371558  0.03406849  0.12474902
   0.93815985  0.62288220  0.52155888
   0.06244889  0.87069890  0.43429212
   0.81242297  0.53295000  0.12468064
   0.43916366  0.45276586  0.34505623