<?xml version="1.0" encoding="ISO-8859-1"?>
<modeling>
 <generator>
  <i name="program" type="string">vasp </i>
  <i name="version" type="string">5.4.4.18Apr17-6-g9f103f2a35  </i>
  <i name="subversion" type="string">(build Sep 27 2018 12:46:37) complex + VL-xray_ parallel </i>
  <i name="platform" type="string">LLNL_Quartz_ifc </i>
  <i name="date" type="string">2021 09 27 </i>
  <i name="time" type="string">01:38:36 </i>
 </generator>
 <incar>
  <i type="int" name="ISTART">     2</i>
  <i type="string" name="PREC">accurate</i>
  <i type="string" name="ALGO"> Fast</i>
  <i type="int" name="ICHARG">     2</i>
  <i type="int" name="INIWAV">     1</i>
  <i type="int" name="NELM">   100</i>
  <i type="int" name="NELMIN">     4</i>
  <i type="int" name="IBRION">     2</i>
  <i name="EDIFF">      0.00000100</i>
  <i type="int" name="NSW">     5</i>
  <i type="int" name="ISIF">     2</i>
  <i type="int" name="ISYM">     2</i>
  <i name="ENCUT">    450.00000000</i>
  <i name="POTIM">      0.25000000</i>
  <i type="string" name="LREAL"> Auto</i>
  <i type="int" name="ISMEAR">     0</i>
  <i name="SIGMA">      0.15000000</i>
  <i type="logical" name="LWAVE"> F  </i>
  <i type="logical" name="LCHARG"> F  </i>
  <i type="int" name="ICORELEVEL">     0</i>
  <i type="int" name="CLNT">     1</i>
  <i type="int" name="CLN">     1</i>
  <i type="int" name="INCAR     ">     0</i>
  <i name="CLZ">      0.00000000</i>
  <v type="int" name="KPOINT_BSE">    -1     0     0     0</v>
  <i type="int" name="NELM">   100</i>
 </incar>
 <structure name="primitive_cell" >
  <crystal>
   <varray name="basis" >
    <v>       9.72667804       0.00000000       0.00000000 </v>
    <v>       0.00000000       8.42355028       0.00000000 </v>
    <v>       0.00000000       0.00000000      45.00000000 </v>
   </varray>
   <i name="volume">   3686.99226691 </i>
   <varray name="rec_basis" >
    <v>       0.10281002       0.00000000       0.00000000 </v>
    <v>       0.00000000       0.11871479       0.00000000 </v>
    <v>       0.00000000       0.00000000       0.02222222 </v>
   </varray>
  </crystal>
  <varray name="positions" >
   <v>       0.06266128       0.03531923       0.12540691 </v>
   <v>       0.18746151       0.11723221       0.16749999 </v>
   <v>       0.06288168      -0.13003557       0.16807936 </v>
   <v>       0.18806456      -0.20914427       0.12543131 </v>
   <v>      -0.06254094       0.11950760       0.16855029 </v>
   <v>      -0.06377747      -0.20937587       0.12562792 </v>
   <v>      -0.18674996       0.03380072       0.12548069 </v>
   <v>       0.31337943       0.03444475       0.12548272 </v>
   <v>       0.18632974       0.29095747       0.12546917 </v>
   <v>      -0.06300443       0.29028111       0.12554527 </v>
   <v>       0.31258799      -0.13042624       0.16697478 </v>
   <v>       0.06176515       0.36973068       0.16810174 </v>
   <v>      -0.18770442      -0.13074053       0.16844734 </v>
   <v>      -0.06192994      -0.04165884       0.21286273 </v>
   <v>       0.43750279       0.11718514       0.16767661 </v>
   <v>      -0.31072198      -0.20908312       0.12560294 </v>
   <v>       0.18868043      -0.38121660       0.16766260 </v>
   <v>       0.18730116      -0.04150389       0.21304742 </v>
   <v>      -0.06267328      -0.38076425       0.16817784 </v>
   <v>       0.43756489      -0.20889100       0.12543692 </v>
   <v>       0.31260647       0.36912973       0.16832402 </v>
   <v>       0.06233733       0.20743034       0.21275651 </v>
   <v>      -0.31263580       0.11956585       0.16851034 </v>
   <v>       0.06153132      -0.46626167       0.12553140 </v>
   <v>      -0.18743134       0.36992183       0.16863386 </v>
   <v>      -0.31217233       0.29035516       0.12554874 </v>
   <v>       0.43835574       0.29143248       0.12551831 </v>
   <v>       0.06257061      -0.29197367       0.21281025 </v>
   <v>      -0.18741338       0.20846059       0.21250665 </v>
   <v>       0.31255964       0.20820949       0.21286032 </v>
   <v>      -0.43605487       0.03514405       0.12543970 </v>
   <v>      -0.18717998      -0.46599309       0.12523742 </v>
   <v>       0.31233751      -0.46529423       0.12538627 </v>
   <v>      -0.18750840      -0.29204645       0.21283397 </v>
   <v>       0.43638089      -0.38156902       0.16751843 </v>
   <v>      -0.43736569      -0.13010343       0.16802188 </v>
   <v>      -0.31281031      -0.04161512       0.21293400 </v>
   <v>      -0.31240797      -0.38075241       0.16814079 </v>
   <v>       0.43815516      -0.04137708       0.21317677 </v>
   <v>       0.31259803      -0.29535281       0.21346436 </v>
   <v>       0.18771661       0.45815236       0.21280361 </v>
   <v>      -0.06257821       0.45826910       0.21291903 </v>
   <v>      -0.43664100       0.36961100       0.16804315 </v>
   <v>       0.06162929       0.04117174       0.25726170 </v>
   <v>       0.18817260      -0.20853798       0.25734098 </v>
   <v>      -0.06435977      -0.20869179       0.25729777 </v>
   <v>       0.31320123       0.04071342       0.25697701 </v>
   <v>      -0.43686539       0.20731724       0.21276227 </v>
   <v>      -0.43628544      -0.46625395       0.12548586 </v>
   <v>      -0.18724410       0.04045574       0.25743858 </v>
   <v>      -0.06235167       0.29083276       0.25734743 </v>
   <v>       0.43738727       0.45821998       0.21280562 </v>
   <v>       0.18574200       0.29179133       0.25753561 </v>
   <v>      -0.31244150       0.45810929       0.21288783 </v>
   <v>      -0.43760259      -0.29211662       0.21271182 </v>
   <v>       0.06378692      -0.45832118       0.25726613 </v>
   <v>       0.43519736      -0.20848034       0.25731093 </v>
   <v>      -0.31299229      -0.20885963       0.25725039 </v>
   <v>       0.43513930       0.29234260       0.25733831 </v>
   <v>      -0.31508284       0.29110955       0.25747806 </v>
   <v>       0.31281448      -0.45711348       0.25688192 </v>
   <v>      -0.18710129      -0.45912994       0.25738699 </v>
   <v>      -0.43668336       0.04210584       0.25726697 </v>
   <v>       0.06183638      -0.12447925       0.30181632 </v>
   <v>      -0.06216811       0.12554909       0.30148310 </v>
   <v>       0.18760009       0.12644794       0.30179665 </v>
   <v>       0.31251537      -0.12452572       0.30144042 </v>
   <v>      -0.18778783      -0.12231099       0.30157674 </v>
   <v>       0.06294883       0.37611414       0.30138908 </v>
   <v>      -0.43787563      -0.45876573       0.25720736 </v>
   <v>      -0.06248830      -0.37498173       0.30136168 </v>
   <v>       0.18737849      -0.37287283       0.30177988 </v>
   <v>      -0.31201164       0.12508015       0.30146297 </v>
   <v>       0.43735706       0.12597189       0.30173077 </v>
   <v>       0.31293675       0.37405136       0.30149439 </v>
   <v>      -0.18709249       0.37633602       0.30152891 </v>
   <v>      -0.31261281      -0.37488473       0.30143640 </v>
   <v>       0.43801283      -0.37357147       0.30172199 </v>
   <v>      -0.43676204      -0.12353763       0.30182129 </v>
   <v>      -0.43775467       0.37706787       0.30156606 </v>
   <v>      -0.06149922      -0.04360411       0.34612883 </v>
   <v>       0.06317045       0.20618930       0.34595690 </v>
   <v>       0.18697243      -0.04258145       0.34629897 </v>
   <v>       0.31290825       0.20556285       0.34592749 </v>
   <v>       0.06185084      -0.29382311       0.34628496 </v>
   <v>      -0.18724818       0.20725770       0.34646708 </v>
   <v>       0.31292291      -0.29417640       0.34605578 </v>
   <v>      -0.31246320      -0.04448519       0.34598337 </v>
   <v>       0.43664945      -0.04345600       0.34624056 </v>
   <v>      -0.18827825      -0.29354911       0.34633327 </v>
   <v>      -0.06344485       0.45658033       0.34631202 </v>
   <v>       0.18678731       0.45825296       0.34658479 </v>
   <v>      -0.31386848       0.45484669       0.34603836 </v>
   <v>      -0.43754092       0.20708428       0.34628826 </v>
   <v>       0.43726285       0.45675430       0.34640031 </v>
   <v>       0.06432045       0.03198831      -0.12569294 </v>
   <v>      -0.43615339      -0.29358442       0.34630375 </v>
   <v>      -0.06073852      -0.21042019      -0.12542777 </v>
   <v>       0.18827740      -0.20911258      -0.12548480 </v>
   <v>      -0.18796865       0.03492096      -0.12565942 </v>
   <v>       0.18868615       0.29132504      -0.12546025 </v>
   <v>       0.31393696       0.03577381      -0.12564546 </v>
   <v>      -0.06537648       0.29288444      -0.12583701 </v>
   <v>       0.06260882       0.03977899       0.38974454 </v>
   <v>       0.43755656       0.29211294      -0.12520427 </v>
   <v>      -0.31390887      -0.20905504      -0.12553079 </v>
   <v>       0.43759069      -0.20898893      -0.12567293 </v>
   <v>       0.06368664      -0.46449989      -0.12549554 </v>
   <v>      -0.31363396       0.29334130      -0.12542384 </v>
   <v>      -0.06270121      -0.20933403       0.38982070 </v>
   <v>       0.31244198       0.04014482       0.38984654 </v>
   <v>       0.18673705      -0.20715972       0.39013229 </v>
   <v>       0.18752549       0.29055964       0.38986666 </v>
   <v>      -0.18856535       0.04096277       0.39008072 </v>
   <v>      -0.06413307       0.29083097       0.38993012 </v>
   <v>      -0.43815862       0.03413132      -0.12541386 </v>
   <v>      -0.18882232      -0.46616231      -0.12539146 </v>
   <v>       0.31385908      -0.46508871      -0.12541860 </v>
   <v>       0.06299920      -0.45947360       0.38968722 </v>
   <v>      -0.31238995      -0.21043387       0.38965339 </v>
   <v>      -0.31211966       0.29076440       0.38958594 </v>
   <v>       0.43643626      -0.20861491       0.39007467 </v>
   <v>       0.43766059       0.29104648       0.38973454 </v>
   <v>       0.31178943      -0.45949708       0.38974782 </v>
   <v>      -0.18679130      -0.46051042       0.39008680 </v>
   <v>      -0.43798764       0.04084065       0.38998646 </v>
   <v>      -0.43838002      -0.46545120      -0.12546886 </v>
   <v>      -0.06079437      -0.04063271      -0.16727863 </v>
   <v>       0.06334571       0.20906962      -0.16716860 </v>
   <v>       0.18813836      -0.04105609      -0.16776986 </v>
   <v>       0.06280308      -0.28980441      -0.16751616 </v>
   <v>      -0.18596901       0.20974785      -0.16744703 </v>
   <v>       0.31306723       0.20586613      -0.16796280 </v>
   <v>      -0.43731686      -0.45929877       0.38986392 </v>
   <v>      -0.31224806      -0.04309626      -0.16783669 </v>
   <v>      -0.06220214       0.45872325      -0.16756087 </v>
   <v>      -0.18680801      -0.28972469      -0.16841067 </v>
   <v>       0.18882238       0.45844831      -0.16785933 </v>
   <v>       0.44011681      -0.04270056      -0.16827515 </v>
   <v>       0.31462955      -0.29292210      -0.16864091 </v>
   <v>       0.06289173      -0.12737379       0.43458534 </v>
   <v>       0.18750958       0.12397255       0.43480804 </v>
   <v>      -0.06344643       0.12435013       0.43532632 </v>
   <v>      -0.31043124       0.45549628      -0.16805411 </v>
   <v>      -0.43763638       0.20653803      -0.16840216 </v>
   <v>       0.43799687       0.45603345      -0.16850190 </v>
   <v>       0.31254400      -0.12680749       0.43467579 </v>
   <v>       0.06268516       0.37315280       0.43461663 </v>
   <v>      -0.18828874      -0.12610609       0.43488317 </v>
   <v>      -0.43686524      -0.29238524      -0.16809027 </v>
   <v>       0.18737812      -0.37593080       0.43483710 </v>
   <v>      -0.31227827       0.12112346       0.43459794 </v>
   <v>       0.43735982       0.12336174       0.43465036 </v>
   <v>      -0.18729783       0.37390911       0.43465726 </v>
   <v>      -0.06332293      -0.37635148       0.43508443 </v>
   <v>       0.31235995       0.37332736       0.43479037 </v>
   <v>      -0.31272374      -0.37689649       0.43466344 </v>
   <v>       0.43687828      -0.37594977       0.43477683 </v>
   <v>      -0.43668291      -0.12600374       0.43500271 </v>
   <v>      -0.43800093       0.37445012       0.43530756 </v>
   <v>      -0.06242148       0.11707095      -0.21277147 </v>
   <v>       0.18744691       0.11694760      -0.21282589 </v>
   <v>       0.06229377      -0.13175279      -0.21300217 </v>
   <v>       0.06227486       0.36816412      -0.21293205 </v>
   <v>       0.31284013      -0.13248279      -0.21306125 </v>
   <v>      -0.18853042      -0.13144195      -0.21334592 </v>
   <v>       0.43751347       0.11719756      -0.21271222 </v>
   <v>      -0.18717845       0.36816950      -0.21288947 </v>
   <v>       0.31247483       0.36782338      -0.21302125 </v>
   <v>       0.18740891      -0.38303286      -0.21299875 </v>
   <v>      -0.31331523       0.11729082      -0.21304340 </v>
   <v>      -0.06292656      -0.38297831      -0.21324895 </v>
   <v>       0.18705190      -0.04356957       0.47872143 </v>
   <v>       0.06286830       0.20604042       0.47863083 </v>
   <v>      -0.06256306      -0.04447972       0.47890459 </v>
   <v>       0.43757205      -0.38314318      -0.21272093 </v>
   <v>      -0.43715431      -0.13211547      -0.21289807 </v>
   <v>      -0.31203599      -0.38260300      -0.21296830 </v>
   <v>       0.06257423      -0.29405020       0.47863298 </v>
   <v>       0.31241598       0.20593744       0.47877765 </v>
   <v>      -0.18857872       0.20620210       0.47886543 </v>
   <v>      -0.43799593       0.36770719      -0.21292806 </v>
   <v>      -0.18776243      -0.29399130       0.47864978 </v>
   <v>       0.31268121      -0.29436729       0.47871674 </v>
   <v>      -0.31241346      -0.04406801       0.47874932 </v>
   <v>       0.43733006      -0.04357272       0.47880331 </v>
   <v>       0.18720962       0.45590269       0.47868486 </v>
   <v>      -0.06258295       0.45566124       0.47869793 </v>
   <v>      -0.43754956       0.20582242       0.47877659 </v>
   <v>       0.43734707       0.45579752       0.47879386 </v>
   <v>      -0.31230520       0.45569109       0.47878554 </v>
   <v>      -0.43777848      -0.29415076       0.47867165 </v>
   <v>       0.06206219       0.03529332      -0.25746458 </v>
   <v>      -0.06235043      -0.21320188      -0.25681552 </v>
   <v>       0.18755026      -0.21315356      -0.25717095 </v>
   <v>      -0.18735094       0.03696181      -0.25719952 </v>
   <v>       0.31243219       0.03724603      -0.25730296 </v>
   <v>      -0.06231674       0.28564778      -0.25740669 </v>
   <v>       0.18962745       0.28625953      -0.25754874 </v>
   <v>       0.43731004      -0.21243389      -0.25715820 </v>
   <v>      -0.31217005      -0.21245461      -0.25716836 </v>
   <v>       0.06343288      -0.46465882      -0.25722594 </v>
   <v>       0.43741609       0.28746248      -0.25719738 </v>
   <v>      -0.31126790       0.28668558      -0.25761238 </v>
   <v>       0.06344566      -0.12915338      -0.47888227 </v>
   <v>       0.18736388       0.12041056      -0.47882405 </v>
   <v>      -0.06271326       0.12079388      -0.47882163 </v>
   <v>      -0.18720711      -0.46342670      -0.25711718 </v>
   <v>       0.31294342      -0.46500083      -0.25714907 </v>
   <v>      -0.43625671       0.03620680      -0.25727934 </v>
   <v>       0.31147724      -0.12877873      -0.47887303 </v>
   <v>      -0.18773631      -0.12923560      -0.47888006 </v>
   <v>       0.06198869       0.37128483      -0.47883596 </v>
   <v>       0.18770585      -0.37934803      -0.47887522 </v>
   <v>      -0.06271923      -0.37873323      -0.47879618 </v>
   <v>      -0.31266353       0.12068853      -0.47888455 </v>
   <v>       0.43713232       0.12130897      -0.47883601 </v>
   <v>       0.31191147       0.37093332      -0.47886607 </v>
   <v>      -0.18676367       0.37183028      -0.47877272 </v>
   <v>      -0.43694303      -0.46340948      -0.25768233 </v>
   <v>      -0.31332861      -0.37842562      -0.47888278 </v>
   <v>      -0.43705878      -0.12867487      -0.47882650 </v>
   <v>       0.43808352      -0.37778730      -0.47876541 </v>
   <v>      -0.43733327       0.37076655      -0.47873715 </v>
   <v>       0.18757670      -0.04399645      -0.30138757 </v>
   <v>      -0.06234248      -0.04391995      -0.30145754 </v>
   <v>       0.06202633       0.20605500      -0.30143021 </v>
   <v>       0.31212825       0.20562047      -0.30143849 </v>
   <v>       0.06307770      -0.29445905      -0.30158040 </v>
   <v>      -0.18749656       0.20616887      -0.30143061 </v>
   <v>      -0.18796899      -0.29397075      -0.30145062 </v>
   <v>       0.31225757      -0.29468628      -0.30154803 </v>
   <v>      -0.31302245      -0.04409987      -0.30149848 </v>
   <v>       0.43709071      -0.04408725      -0.30161176 </v>
   <v>       0.18662023       0.45674608      -0.30152198 </v>
   <v>      -0.06331051       0.45654261      -0.30160753 </v>
   <v>       0.06258606       0.20705504      -0.43506652 </v>
   <v>       0.18743360      -0.04225070      -0.43494079 </v>
   <v>      -0.06301301      -0.04374956      -0.43467314 </v>
   <v>       0.43747314       0.45614105      -0.30137939 </v>
   <v>      -0.43703059       0.20511743      -0.30155484 </v>
   <v>      -0.31327402       0.45647893      -0.30159422 </v>
   <v>       0.06296502      -0.29320281      -0.43511075 </v>
   <v>      -0.18764485       0.20707386      -0.43508068 </v>
   <v>       0.31232032       0.20723444      -0.43479978 </v>
   <v>      -0.43825545      -0.29500880      -0.30163113 </v>
   <v>       0.43723792      -0.04311911      -0.43522192 </v>
   <v>      -0.18766137      -0.29321069      -0.43504869 </v>
   <v>       0.31228666      -0.29277690      -0.43490540 </v>
   <v>      -0.31192047      -0.04305937      -0.43497500 </v>
   <v>       0.18798812       0.45721774      -0.43505951 </v>
   <v>      -0.06265600       0.45718934      -0.43496684 </v>
   <v>       0.43706690       0.45738019      -0.43507980 </v>
   <v>      -0.31255435       0.45708040      -0.43508811 </v>
   <v>      -0.43674912       0.20715795      -0.43489877 </v>
   <v>      -0.43741099      -0.29248498      -0.43480551 </v>
   <v>       0.06252226      -0.12807303      -0.34605057 </v>
   <v>       0.18791951       0.12179355      -0.34605979 </v>
   <v>      -0.06192813       0.12172152      -0.34613979 </v>
   <v>       0.31309099      -0.12811842      -0.34595280 </v>
   <v>       0.06271830       0.37079359      -0.34591381 </v>
   <v>      -0.18698445      -0.12804272      -0.34603290 </v>
   <v>      -0.18644856       0.37087412      -0.34582021 </v>
   <v>       0.18756427      -0.37786868      -0.34605160 </v>
   <v>      -0.06251636      -0.37835940      -0.34610029 </v>
   <v>      -0.31304378       0.12200194      -0.34599971 </v>
   <v>       0.31315620       0.37116965      -0.34620679 </v>
   <v>       0.43837234       0.12129841      -0.34627211 </v>
   <v>      -0.31227828      -0.37774114      -0.34601278 </v>
   <v>       0.43774807      -0.37823891      -0.34608898 </v>
   <v>      -0.43747257      -0.12823778      -0.34606214 </v>
   <v>       0.06184032       0.03581777      -0.38992673 </v>
   <v>      -0.18916115       0.03632016      -0.39014714 </v>
   <v>       0.18599861      -0.21262512      -0.38988718 </v>
   <v>      -0.06280842      -0.21424899      -0.38988118 </v>
   <v>      -0.06395948       0.28752263      -0.38991945 </v>
   <v>      -0.43676870       0.37134756      -0.34617809 </v>
   <v>       0.31107575       0.03651987      -0.38968593 </v>
   <v>       0.18700376       0.28683080      -0.38970524 </v>
   <v>       0.43627701       0.28657625      -0.39003698 </v>
   <v>       0.43685797      -0.21347542      -0.38987008 </v>
   <v>      -0.31237865      -0.21373079      -0.38981605 </v>
   <v>      -0.31414835       0.28711992      -0.38984935 </v>
   <v>       0.06212732      -0.46455571      -0.38974227 </v>
   <v>       0.31209244      -0.46387544      -0.38991763 </v>
   <v>      -0.18721790      -0.46410102      -0.38975580 </v>
   <v>      -0.43759556       0.03562069      -0.38969849 </v>
   <v>      -0.43819287      -0.46396390      -0.38984760 </v>
  </varray>
 </structure>
 <varray name="primitive_index" >
  <v type="int" >        1 </v>
  <v type="int" >      125 </v>
  <v type="int" >       60 </v>
  <v type="int" >       83 </v>
  <v type="int" >       26 </v>
  <v type="int" >       44 </v>
  <v type="int" >      202 </v>
  <v type="int" >      256 </v>
  <v type="int" >      111 </v>
  <v type="int" >      155 </v>
  <v type="int" >      277 </v>
  <v type="int" >       51 </v>
  <v type="int" >      102 </v>
  <v type="int" >      212 </v>
  <v type="int" >      182 </v>
  <v type="int" >      163 </v>
  <v type="int" >       20 </v>
  <v type="int" >      146 </v>
  <v type="int" >      104 </v>
  <v type="int" >       55 </v>
  <v type="int" >      108 </v>
  <v type="int" >       50 </v>
  <v type="int" >      166 </v>
  <v type="int" >      176 </v>
  <v type="int" >      129 </v>
  <v type="int" >      145 </v>
  <v type="int" >      117 </v>
  <v type="int" >      250 </v>
  <v type="int" >      167 </v>
  <v type="int" >      123 </v>
  <v type="int" >      114 </v>
  <v type="int" >      205 </v>
  <v type="int" >       91 </v>
  <v type="int" >      213 </v>
  <v type="int" >      174 </v>
  <v type="int" >      192 </v>
  <v type="int" >       92 </v>
  <v type="int" >       97 </v>
  <v type="int" >      229 </v>
  <v type="int" >      276 </v>
  <v type="int" >      189 </v>
  <v type="int" >      175 </v>
  <v type="int" >       30 </v>
  <v type="int" >      185 </v>
  <v type="int" >      200 </v>
  <v type="int" >       52 </v>
  <v type="int" >      179 </v>
  <v type="int" >      103 </v>
  <v type="int" >      164 </v>
  <v type="int" >       24 </v>
  <v type="int" >      127 </v>
  <v type="int" >      139 </v>
  <v type="int" >      112 </v>
  <v type="int" >      261 </v>
  <v type="int" >      243 </v>
  <v type="int" >      168 </v>
  <v type="int" >      137 </v>
  <v type="int" >      118 </v>
  <v type="int" >      265 </v>
  <v type="int" >       58 </v>
  <v type="int" >      275 </v>
  <v type="int" >       81 </v>
  <v type="int" >      221 </v>
  <v type="int" >      214 </v>
  <v type="int" >      135 </v>
  <v type="int" >      215 </v>
  <v type="int" >       98 </v>
  <v type="int" >       72 </v>
  <v type="int" >      226 </v>
  <v type="int" >       28 </v>
  <v type="int" >      178 </v>
  <v type="int" >      263 </v>
  <v type="int" >      109 </v>
  <v type="int" >      159 </v>
  <v type="int" >      242 </v>
  <v type="int" >      220 </v>
  <v type="int" >      130 </v>
  <v type="int" >      101 </v>
  <v type="int" >      210 </v>
  <v type="int" >      171 </v>
  <v type="int" >      194 </v>
  <v type="int" >       47 </v>
  <v type="int" >      258 </v>
  <v type="int" >       86 </v>
  <v type="int" >      216 </v>
  <v type="int" >      207 </v>
  <v type="int" >      208 </v>
  <v type="int" >       25 </v>
  <v type="int" >      172 </v>
  <v type="int" >       73 </v>
  <v type="int" >       12 </v>
  <v type="int" >      116 </v>
  <v type="int" >      279 </v>
  <v type="int" >      219 </v>
  <v type="int" >      206 </v>
  <v type="int" >      282 </v>
  <v type="int" >       62 </v>
  <v type="int" >      105 </v>
  <v type="int" >      268 </v>
  <v type="int" >       14 </v>
  <v type="int" >      120 </v>
  <v type="int" >      245 </v>
  <v type="int" >      280 </v>
  <v type="int" >      124 </v>
  <v type="int" >      255 </v>
  <v type="int" >       29 </v>
  <v type="int" >      150 </v>
  <v type="int" >      266 </v>
  <v type="int" >      191 </v>
  <v type="int" >      190 </v>
  <v type="int" >      165 </v>
  <v type="int" >      283 </v>
  <v type="int" >      248 </v>
  <v type="int" >       48 </v>
  <v type="int" >       13 </v>
  <v type="int" >      161 </v>
  <v type="int" >      247 </v>
  <v type="int" >       18 </v>
  <v type="int" >      273 </v>
  <v type="int" >       45 </v>
  <v type="int" >       84 </v>
  <v type="int" >      264 </v>
  <v type="int" >        4 </v>
  <v type="int" >       67 </v>
  <v type="int" >      278 </v>
  <v type="int" >       16 </v>
  <v type="int" >       64 </v>
  <v type="int" >       17 </v>
  <v type="int" >      259 </v>
  <v type="int" >        7 </v>
  <v type="int" >      134 </v>
  <v type="int" >        6 </v>
  <v type="int" >       39 </v>
  <v type="int" >      222 </v>
  <v type="int" >       88 </v>
  <v type="int" >       36 </v>
  <v type="int" >      253 </v>
  <v type="int" >      181 </v>
  <v type="int" >      110 </v>
  <v type="int" >        5 </v>
  <v type="int" >      204 </v>
  <v type="int" >      160 </v>
  <v type="int" >      158 </v>
  <v type="int" >       82 </v>
  <v type="int" >      143 </v>
  <v type="int" >       74 </v>
  <v type="int" >       23 </v>
  <v type="int" >      218 </v>
  <v type="int" >      235 </v>
  <v type="int" >      241 </v>
  <v type="int" >      238 </v>
  <v type="int" >      257 </v>
  <v type="int" >      201 </v>
  <v type="int" >       80 </v>
  <v type="int" >      131 </v>
  <v type="int" >      113 </v>
  <v type="int" >      232 </v>
  <v type="int" >      249 </v>
  <v type="int" >       69 </v>
  <v type="int" >      251 </v>
  <v type="int" >      149 </v>
  <v type="int" >        3 </v>
  <v type="int" >      197 </v>
  <v type="int" >      254 </v>
  <v type="int" >      224 </v>
  <v type="int" >      287 </v>
  <v type="int" >       49 </v>
  <v type="int" >       57 </v>
  <v type="int" >      138 </v>
  <v type="int" >      272 </v>
  <v type="int" >      188 </v>
  <v type="int" >      132 </v>
  <v type="int" >       94 </v>
  <v type="int" >      223 </v>
  <v type="int" >      236 </v>
  <v type="int" >      184 </v>
  <v type="int" >       33 </v>
  <v type="int" >       66 </v>
  <v type="int" >      157 </v>
  <v type="int" >      230 </v>
  <v type="int" >       21 </v>
  <v type="int" >      106 </v>
  <v type="int" >      234 </v>
  <v type="int" >       99 </v>
  <v type="int" >       75 </v>
  <v type="int" >      281 </v>
  <v type="int" >      244 </v>
  <v type="int" >      269 </v>
  <v type="int" >      237 </v>
  <v type="int" >      156 </v>
  <v type="int" >      199 </v>
  <v type="int" >      169 </v>
  <v type="int" >        9 </v>
  <v type="int" >       46 </v>
  <v type="int" >      262 </v>
  <v type="int" >      151 </v>
  <v type="int" >      239 </v>
  <v type="int" >      187 </v>
  <v type="int" >       11 </v>
  <v type="int" >       31 </v>
  <v type="int" >       43 </v>
  <v type="int" >      211 </v>
  <v type="int" >       71 </v>
  <v type="int" >       19 </v>
  <v type="int" >       27 </v>
  <v type="int" >      140 </v>
  <v type="int" >      286 </v>
  <v type="int" >       87 </v>
  <v type="int" >      288 </v>
  <v type="int" >      267 </v>
  <v type="int" >      144 </v>
  <v type="int" >       10 </v>
  <v type="int" >      107 </v>
  <v type="int" >       68 </v>
  <v type="int" >      203 </v>
  <v type="int" >       34 </v>
  <v type="int" >      119 </v>
  <v type="int" >      183 </v>
  <v type="int" >      177 </v>
  <v type="int" >      270 </v>
  <v type="int" >      195 </v>
  <v type="int" >       77 </v>
  <v type="int" >      252 </v>
  <v type="int" >      285 </v>
  <v type="int" >      173 </v>
  <v type="int" >      225 </v>
  <v type="int" >       37 </v>
  <v type="int" >       63 </v>
  <v type="int" >      274 </v>
  <v type="int" >      233 </v>
  <v type="int" >      141 </v>
  <v type="int" >      154 </v>
  <v type="int" >       54 </v>
  <v type="int" >       38 </v>
  <v type="int" >      246 </v>
  <v type="int" >      152 </v>
  <v type="int" >      170 </v>
  <v type="int" >      162 </v>
  <v type="int" >      284 </v>
  <v type="int" >      193 </v>
  <v type="int" >       53 </v>
  <v type="int" >       76 </v>
  <v type="int" >       65 </v>
  <v type="int" >      271 </v>
  <v type="int" >       93 </v>
  <v type="int" >      133 </v>
  <v type="int" >       56 </v>
  <v type="int" >       32 </v>
  <v type="int" >       90 </v>
  <v type="int" >       95 </v>
  <v type="int" >       59 </v>
  <v type="int" >       42 </v>
  <v type="int" >       70 </v>
  <v type="int" >      228 </v>
  <v type="int" >        8 </v>
  <v type="int" >      186 </v>
  <v type="int" >      196 </v>
  <v type="int" >      121 </v>
  <v type="int" >      122 </v>
  <v type="int" >        2 </v>
  <v type="int" >      198 </v>
  <v type="int" >       79 </v>
  <v type="int" >       35 </v>
  <v type="int" >      153 </v>
  <v type="int" >      240 </v>
  <v type="int" >      209 </v>
  <v type="int" >       85 </v>
  <v type="int" >      231 </v>
  <v type="int" >      227 </v>
  <v type="int" >       40 </v>
  <v type="int" >       89 </v>
  <v type="int" >      142 </v>
  <v type="int" >      217 </v>
  <v type="int" >       15 </v>
  <v type="int" >      136 </v>
  <v type="int" >      100 </v>
  <v type="int" >       78 </v>
  <v type="int" >      148 </v>
  <v type="int" >       61 </v>
  <v type="int" >      115 </v>
  <v type="int" >       96 </v>
  <v type="int" >      180 </v>
  <v type="int" >      147 </v>
  <v type="int" >      126 </v>
  <v type="int" >       41 </v>
  <v type="int" >       22 </v>
  <v type="int" >      260 </v>
  <v type="int" >      128 </v>
 </varray>
 <kpoints>
  <generation param="Gamma">
   <v type="int" name="divisions">       4        4        1 </v>
   <v name="usershift">      0.00000000       0.00000000       0.00000000 </v>
   <v name="genvec1">      0.25000000       0.00000000       0.00000000 </v>
   <v name="genvec2">      0.00000000       0.25000000       0.00000000 </v>
   <v name="genvec3">      0.00000000       0.00000000       1.00000000 </v>
   <v name="shift">      0.00000000       0.00000000       0.00000000 </v>
  </generation>
  <varray name="kpointlist" >
   <v>       0.00000000       0.00000000       0.00000000 </v>
   <v>       0.25000000       0.00000000       0.00000000 </v>
   <v>       0.50000000       0.00000000       0.00000000 </v>
   <v>       0.00000000       0.25000000       0.00000000 </v>
   <v>       0.25000000       0.25000000       0.00000000 </v>
   <v>       0.50000000       0.25000000       0.00000000 </v>
   <v>      -0.25000000       0.25000000       0.00000000 </v>
   <v>       0.00000000       0.50000000       0.00000000 </v>
   <v>       0.25000000       0.50000000       0.00000000 </v>
   <v>       0.50000000       0.50000000       0.00000000 </v>
  </varray>
  <varray name="weights" >
   <v>       0.06250000 </v>
   <v>       0.12500000 </v>
   <v>       0.06250000 </v>
   <v>       0.12500000 </v>
   <v>       0.12500000 </v>
   <v>       0.12500000 </v>
   <v>       0.12500000 </v>
   <v>       0.06250000 </v>
   <v>       0.12500000 </v>
   <v>       0.06250000 </v>
  </varray>
 </kpoints>
 <parameters>
  <separator name="general" >
   <i type="string" name="SYSTEM">unknown system</i>
   <i type="logical" name="LCOMPAT"> F  </i>
  </separator>
  <separator name="electronic" >
   <i type="string" name="PREC">accura</i>
   <i name="ENMAX">    450.00000000</i>
   <i name="ENAUG">    838.43500000</i>
   <i name="EDIFF">      0.00000100</i>
   <i type="int" name="IALGO">    68</i>
   <i type="int" name="IWAVPR">    11</i>
   <i type="int" name="NBANDS">  1386</i>
   <i name="NELECT">   2290.00000000</i>
   <i type="int" name="TURBO">     0</i>
   <i type="int" name="IRESTART">     0</i>
   <i type="int" name="NREBOOT">     0</i>
   <i type="int" name="NMIN">     0</i>
   <i name="EREF">      0.00000000</i>
   <separator name="electronic smearing" >
    <i type="int" name="ISMEAR">     0</i>
    <i name="SIGMA">      0.15000000</i>
    <i name="KSPACING">      0.50000000</i>
    <i type="logical" name="KGAMMA"> T  </i>
   </separator>
   <separator name="electronic projectors" >
    <i type="logical" name="LREAL"> T  </i>
    <v name="ROPT">     -0.00025000     -0.00025000</v>
    <i type="int" name="LMAXPAW">  -100</i>
    <i type="int" name="LMAXMIX">     2</i>
    <i type="logical" name="NLSPLINE"> F  </i>
   </separator>
   <separator name="electronic startup" >
    <i type="int" name="ISTART">     0</i>
    <i type="int" name="ICHARG">     2</i>
    <i type="int" name="INIWAV">     1</i>
   </separator>
   <separator name="electronic spin" >
    <i type="int" name="ISPIN">     1</i>
    <i type="logical" name="LNONCOLLINEAR"> F  </i>
    <v name="MAGMOM">      1.00000000      1.00000000      1.00000000      1.00000000      1.00000000      1.00000000      1.00000000      1.00000000      1.00000000      1.00000000      1.00000000      1.00000000      1.00000000      1.00000000      1.00000000      1.00000000      1.00000000      1.00000000      1.00000000      1.00000000
      1.00000000      1.00000000      1.00000000      1.00000000      1.00000000      1.00000000      1.00000000      1.00000000      1.00000000      1.00000000      1.00000000      1.00000000      1.00000000      1.00000000      1.00000000      1.00000000      1.00000000      1.00000000      1.00000000      1.00000000
      1.00000000      1.00000000      1.00000000      1.00000000      1.00000000      1.00000000      1.00000000      1.00000000      1.00000000      1.00000000      1.00000000      1.00000000      1.00000000      1.00000000      1.00000000      1.00000000      1.00000000      1.00000000      1.00000000      1.00000000
      1.00000000      1.00000000      1.00000000      1.00000000      1.00000000      1.00000000      1.00000000      1.00000000      1.00000000      1.00000000      1.00000000      1.00000000      1.00000000      1.00000000      1.00000000      1.00000000      1.00000000      1.00000000      1.00000000      1.00000000
      1.00000000      1.00000000      1.00000000      1.00000000      1.00000000      1.00000000      1.00000000      1.00000000      1.00000000      1.00000000      1.00000000      1.00000000      1.00000000      1.00000000      1.00000000      1.00000000      1.00000000      1.00000000      1.00000000      1.00000000
      1.00000000      1.00000000      1.00000000      1.00000000      1.00000000      1.00000000      1.00000000      1.00000000      1.00000000      1.00000000      1.00000000      1.00000000      1.00000000      1.00000000      1.00000000      1.00000000      1.00000000      1.00000000      1.00000000      1.00000000
      1.00000000      1.00000000      1.00000000      1.00000000      1.00000000      1.00000000      1.00000000      1.00000000      1.00000000      1.00000000      1.00000000      1.00000000      1.00000000      1.00000000      1.00000000      1.00000000      1.00000000      1.00000000      1.00000000      1.00000000
      1.00000000      1.00000000      1.00000000      1.00000000      1.00000000      1.00000000      1.00000000      1.00000000      1.00000000      1.00000000      1.00000000      1.00000000      1.00000000      1.00000000      1.00000000      1.00000000      1.00000000      1.00000000      1.00000000      1.00000000
      1.00000000      1.00000000      1.00000000      1.00000000      1.00000000      1.00000000      1.00000000      1.00000000      1.00000000      1.00000000      1.00000000      1.00000000      1.00000000      1.00000000      1.00000000      1.00000000      1.00000000      1.00000000      1.00000000      1.00000000
      1.00000000      1.00000000      1.00000000      1.00000000      1.00000000      1.00000000      1.00000000      1.00000000      1.00000000      1.00000000      1.00000000      1.00000000      1.00000000      1.00000000      1.00000000      1.00000000      1.00000000      1.00000000      1.00000000      1.00000000
      1.00000000      1.00000000      1.00000000      1.00000000      1.00000000      1.00000000      1.00000000      1.00000000      1.00000000      1.00000000      1.00000000      1.00000000      1.00000000      1.00000000      1.00000000      1.00000000      1.00000000      1.00000000      1.00000000      1.00000000
      1.00000000      1.00000000      1.00000000      1.00000000      1.00000000      1.00000000      1.00000000      1.00000000      1.00000000      1.00000000      1.00000000      1.00000000      1.00000000      1.00000000      1.00000000      1.00000000      1.00000000      1.00000000      1.00000000      1.00000000
      1.00000000      1.00000000      1.00000000      1.00000000      1.00000000      1.00000000      1.00000000      1.00000000      1.00000000      1.00000000      1.00000000      1.00000000      1.00000000      1.00000000      1.00000000      1.00000000      1.00000000      1.00000000      1.00000000      1.00000000
      1.00000000      1.00000000      1.00000000      1.00000000      1.00000000      1.00000000      1.00000000      1.00000000      1.00000000      1.00000000      1.00000000      1.00000000      1.00000000      1.00000000      1.00000000      1.00000000      1.00000000      1.00000000      1.00000000      1.00000000
      1.00000000      1.00000000      1.00000000      1.00000000      1.00000000      1.00000000      1.00000000      1.00000000</v>
    <i name="NUPDOWN">     -1.00000000</i>
    <i type="logical" name="LSORBIT"> F  </i>
    <v name="SAXIS">      0.00000000      0.00000000      1.00000000</v>
    <i type="logical" name="LSPIRAL"> F  </i>
    <v name="QSPIRAL">      0.00000000      0.00000000      0.00000000</v>
    <i type="logical" name="LZEROZ"> F  </i>
   </separator>
   <separator name="electronic exchange-correlation" >
    <i type="logical" name="LASPH"> F  </i>
    <i type="logical" name="LMETAGGA"> F  </i>
   </separator>
   <separator name="electronic convergence" >
    <i type="int" name="NELM">   100</i>
    <i type="int" name="NELMDL">     0</i>
    <i type="int" name="NELMIN">     4</i>
    <i name="ENINI">    450.00000000</i>
    <separator name="electronic convergence detail" >
     <i type="logical" name="LDIAG"> T  </i>
     <i type="logical" name="LSUBROT"> F  </i>
     <i name="WEIMIN">      0.00100000</i>
     <i name="EBREAK">      0.00000000</i>
     <i name="DEPER">      0.30000000</i>
     <i type="int" name="NRMM">     4</i>
     <i name="TIME">      0.40000000</i>
    </separator>
   </separator>
   <separator name="electronic mixer" >
    <i name="AMIX">      0.40000000</i>
    <i name="BMIX">      1.00000000</i>
    <i name="AMIN">      0.10000000</i>
    <i name="AMIX_MAG">      1.60000000</i>
    <i name="BMIX_MAG">      1.00000000</i>
    <separator name="electronic mixer details" >
     <i type="int" name="IMIX">     4</i>
     <i type="logical" name="MIXFIRST"> F  </i>
     <i type="int" name="MAXMIX">   -45</i>
     <i name="WC">    100.00000000</i>
     <i type="int" name="INIMIX">     1</i>
     <i type="int" name="MIXPRE">     1</i>
     <i type="int" name="MREMOVE">     5</i>
    </separator>
   </separator>
   <separator name="electronic dipolcorrection" >
    <i type="logical" name="LDIPOL"> F  </i>
    <i type="logical" name="LMONO"> F  </i>
    <i type="int" name="IDIPOL">     0</i>
    <i name="EPSILON">      1.00000000</i>
    <v name="DIPOL">   -100.00000000   -100.00000000   -100.00000000</v>
    <i name="EFIELD">      0.00000000</i>
   </separator>
  </separator>
  <separator name="grids" >
   <i type="int" name="NGX">    70</i>
   <i type="int" name="NGY">    60</i>
   <i type="int" name="NGZ">   320</i>
   <i type="int" name="NGXF">   140</i>
   <i type="int" name="NGYF">   120</i>
   <i type="int" name="NGZF">   640</i>
   <i type="logical" name="ADDGRID"> F  </i>
  </separator>
  <separator name="ionic" >
   <i type="int" name="NSW">     5</i>
   <i type="int" name="IBRION">     2</i>
   <i type="int" name="MDALGO">     0</i>
   <i type="int" name="ISIF">     2</i>
   <i name="PSTRESS">      0.00000000</i>
   <i name="EDIFFG">      0.00001000</i>
   <i type="int" name="NFREE">     1</i>
   <i name="POTIM">      0.25000000</i>
   <i name="SMASS">     -3.00000000</i>
   <i name="SCALEE">      1.00000000</i>
  </separator>
  <separator name="ionic md" >
   <i name="TEBEG">      0.00010000</i>
   <i name="TEEND">      0.00010000</i>
   <i type="int" name="NBLOCK">     1</i>
   <i type="int" name="KBLOCK">     5</i>
   <i type="int" name="NPACO">   256</i>
   <i name="APACO">     16.00000000</i>
  </separator>
  <separator name="symmetry" >
   <i type="int" name="ISYM">     2</i>
   <i name="SYMPREC">      0.00001000</i>
  </separator>
  <separator name="dos" >
   <i type="int" name="LORBIT">     0</i>
   <v name="RWIGS">     -1.00000000     -1.00000000</v>
   <i type="int" name="NEDOS">   301</i>
   <i name="EMIN">     10.00000000</i>
   <i name="EMAX">    -10.00000000</i>
   <i name="EFERMI">      0.00000000</i>
  </separator>
  <separator name="writing" >
   <i type="int" name="NWRITE">     2</i>
   <i type="logical" name="LWAVE"> F  </i>
   <i type="logical" name="LDOWNSAMPLE"> F  </i>
   <i type="logical" name="LCHARG"> F  </i>
   <i type="logical" name="LPARD"> F  </i>
   <i type="logical" name="LVTOT"> F  </i>
   <i type="logical" name="LVHAR"> F  </i>
   <i type="logical" name="LELF"> F  </i>
   <i type="logical" name="LOPTICS"> F  </i>
   <v name="STM">      0.00000000      0.00000000      0.00000000      0.00000000      0.00000000      0.00000000      0.00000000</v>
  </separator>
  <separator name="performance" >
   <i type="int" name="NPAR">    14</i>
   <i type="int" name="NSIM">     4</i>
   <i type="int" name="NBLK">    -1</i>
   <i type="logical" name="LPLANE"> T  </i>
   <i type="logical" name="LSCALAPACK"> T  </i>
   <i type="logical" name="LSCAAWARE"> T  </i>
   <i type="logical" name="LSCALU"> F  </i>
   <i type="logical" name="LASYNC"> F  </i>
   <i type="logical" name="LORBITALREAL"> F  </i>
  </separator>
  <separator name="miscellaneous" >
   <i type="int" name="IDIOT">     3</i>
   <i type="int" name="ISPECIAL">     0</i>
   <i type="logical" name="LMUSIC"> F  </i>
   <v name="POMASS">     55.84700000     54.93800000</v>
   <v name="DARWINR">      0.00000000      0.00000000</v>
   <v name="DARWINV">      1.00000000      1.00000000</v>
   <i type="logical" name="LCORR"> T  </i>
  </separator>
  <i type="logical" name="GGA_COMPAT"> T  </i>
  <i type="logical" name="LBERRY"> F  </i>
  <i type="int" name="ICORELEVEL">     0</i>
  <i type="logical" name="LDAU"> F  </i>
  <i type="int" name="I_CONSTRAINED_M">     0</i>
  <separator name="electronic exchange-correlation" >
   <i type="string" name="GGA">--</i>
   <i type="int" name="VOSKOWN">     0</i>
   <i type="logical" name="LHFCALC"> F  </i>
   <i type="string" name="PRECFOCK"></i>
   <i type="logical" name="LSYMGRAD"> F  </i>
   <i type="logical" name="LHFONE"> F  </i>
   <i type="logical" name="LRHFCALC"> F  </i>
   <i type="logical" name="LTHOMAS"> F  </i>
   <i type="logical" name="LMODELHF"> F  </i>
   <i name="ENCUT4O">     -1.00000000</i>
   <i type="int" name="EXXOEP">     0</i>
   <i type="int" name="FOURORBIT">     0</i>
   <i name="AEXX">      0.00000000</i>
   <i name="HFALPHA">      0.00000000</i>
   <i name="MCALPHA">      0.00000000</i>
   <i name="ALDAX">      1.00000000</i>
   <i name="AGGAX">      1.00000000</i>
   <i name="ALDAC">      1.00000000</i>
   <i name="AGGAC">      1.00000000</i>
   <i type="int" name="NKREDX">     1</i>
   <i type="int" name="NKREDY">     1</i>
   <i type="int" name="NKREDZ">     1</i>
   <i type="logical" name="SHIFTRED"> F  </i>
   <i type="logical" name="ODDONLY"> F  </i>
   <i type="logical" name="EVENONLY"> F  </i>
   <i type="int" name="LMAXFOCK">     0</i>
   <i type="int" name="NMAXFOCKAE">     0</i>
   <i type="logical" name="LFOCKAEDFT"> F  </i>
   <i name="HFSCREEN">      0.00000000</i>
   <i name="HFSCREENC">      0.00000000</i>
   <i type="int" name="NBANDSGWLOW">     0</i>
  </separator>
  <separator name="vdW DFT" >
   <i type="logical" name="LUSE_VDW"> F  </i>
   <i name="Zab_VDW">     -0.84910000</i>
   <i name="PARAM1">      0.12340000</i>
   <i name="PARAM2">      1.00000000</i>
   <i name="PARAM3">      0.00000000</i>
  </separator>
  <separator name="model GW" >
   <i type="int" name="MODEL_GW">     0</i>
   <i name="MODEL_EPS0">      7.68123389</i>
   <i name="MODEL_ALPHA">      1.00000000</i>
  </separator>
  <separator name="linear response parameters" >
   <i type="logical" name="LEPSILON"> F  </i>
   <i type="logical" name="LRPA"> F  </i>
   <i type="logical" name="LNABLA"> F  </i>
   <i type="logical" name="LVEL"> F  </i>
   <i type="int" name="KINTER">     0</i>
   <i name="CSHIFT">      0.10000000</i>
   <i name="OMEGAMAX">     -1.00000000</i>
   <i name="DEG_THRESHOLD">      0.00200000</i>
   <i name="RTIME">     -0.10000000</i>
   <i name="WPLASMAI">      0.00000000</i>
   <v name="DFIELD">      0.00000000      0.00000000      0.00000000</v>
   <v name="WPLASMA">      0.00000000      0.00000000      0.00000000      0.00000000      0.00000000      0.00000000      0.00000000      0.00000000      0.00000000</v>
  </separator>
  <separator name="orbital magnetization" >
   <i type="logical" name="NUCIND"> F  </i>
   <v name="MAGPOS">      0.00000000      0.00000000      0.00000000</v>
   <i type="logical" name="LNICSALL"> T  </i>
   <i type="logical" name="ORBITALMAG"> F  </i>
   <i type="logical" name="LMAGBLOCH"> F  </i>
   <i type="logical" name="LCHIMAG"> F  </i>
   <i type="logical" name="LGAUGE"> T  </i>
   <i type="int" name="MAGATOM">     0</i>
   <v name="MAGDIPOL">      0.00000000      0.00000000      0.00000000</v>
   <v name="AVECCONST">      0.00000000      0.00000000      0.00000000</v>
  </separator>
  <separator name="response functions" >
   <i type="logical" name="LADDER"> F  </i>
   <i type="logical" name="LRPAFORCE"> F  </i>
   <i type="logical" name="LFXC"> F  </i>
   <i type="logical" name="LHARTREE"> T  </i>
   <i type="int" name="IBSE">     0</i>
   <v type="int" name="KPOINT">    -1     0     0     0</v>
   <i type="logical" name="LTCTE"> F  </i>
   <i type="logical" name="LTETE"> F  </i>
   <i type="logical" name="LTRIPLET"> F  </i>
   <i type="logical" name="LFXCEPS"> F  </i>
   <i type="logical" name="LFXHEG"> F  </i>
   <i type="int" name="NATURALO">     2</i>
   <i type="logical" name="L2ORDER"> F  </i>
   <i type="logical" name="LMP2LT"> F  </i>
   <i type="logical" name="LUSEW"> F  </i>
   <i name="ENCUTGW">     -2.00000000</i>
   <i name="ENCUTGWSOFT">     -2.00000000</i>
   <i name="ENCUTLF">     -1.00000000</i>
   <i type="int" name="LMAXMP2">    -1</i>
   <i name="SCISSOR">      0.00000000</i>
   <i type="int" name="NOMEGA">     0</i>
   <i type="int" name="NOMEGAR">     0</i>
   <i type="int" name="NBANDSGW">    -1</i>
   <i type="int" name="NBANDSO">    -1</i>
   <i type="int" name="NBANDSV">    -1</i>
   <i type="int" name="NELM">   100</i>
   <i type="int" name="NELMHF">     1</i>
   <i type="int" name="DIM">     3</i>
   <i type="int" name="ANTIRES">     0</i>
   <i name="OMEGAMAX">    -30.00000000</i>
   <i name="OMEGAMIN">    -30.00000000</i>
   <i name="OMEGATL">   -200.00000000</i>
   <i type="int" name="OMEGAGRID">   140</i>
   <i name="CSHIFT">     -0.10000000</i>
   <i type="logical" name="SELFENERGY"> F  </i>
   <i type="logical" name="LSPECTRAL"> F  </i>
   <i type="logical" name="LSPECTRALGW"> F  </i>
   <i type="logical" name="LSINGLES"> F  </i>
   <i type="logical" name="LFERMIGW"> F  </i>
   <i type="logical" name="ODDONLYGW"> F  </i>
   <i type="logical" name="EVENONLYGW"> F  </i>
   <i type="int" name="NKREDLFX">     1</i>
   <i type="int" name="NKREDLFY">     1</i>
   <i type="int" name="NKREDLFZ">     1</i>
   <i type="int" name="MAXMEM">  2800</i>
   <i type="int" name="TELESCOPE">     0</i>
   <i type="int" name="TAUPAR">     1</i>
   <i type="int" name="OMEGAPAR">    -1</i>
   <i name="LAMBDA">      1.00000000</i>
  </separator>
  <separator name="External order field" >
   <i name="OFIELD_KAPPA">      0.00000000</i>
   <v name="OFIELD_K">      0.00000000      0.00000000      0.00000000</v>
   <i name="OFIELD_Q6_NEAR">      0.00000000</i>
   <i name="OFIELD_Q6_FAR">      0.00000000</i>
   <i name="OFIELD_A">      0.00000000</i>
  </separator>
 </parameters>
 <atominfo>
  <atoms>     288 </atoms>
  <types>       2 </types>
  <array name="atoms" >
   <dimension dim="1">ion</dimension>
   <field type="string">element</field>
   <field type="int">atomtype</field>
   <set>
    <rc><c>Fe</c><c>   1</c></rc>
    <rc><c>Fe</c><c>   1</c></rc>
    <rc><c>Fe</c><c>   1</c></rc>
    <rc><c>Fe</c><c>   1</c></rc>
    <rc><c>Fe</c><c>   1</c></rc>
    <rc><c>Fe</c><c>   1</c></rc>
    <rc><c>Fe</c><c>   1</c></rc>
    <rc><c>Fe</c><c>   1</c></rc>
    <rc><c>Fe</c><c>   1</c></rc>
    <rc><c>Fe</c><c>   1</c></rc>
    <rc><c>Fe</c><c>   1</c></rc>
    <rc><c>Fe</c><c>   1</c></rc>
    <rc><c>Fe</c><c>   1</c></rc>
    <rc><c>Fe</c><c>   1</c></rc>
    <rc><c>Fe</c><c>   1</c></rc>
    <rc><c>Fe</c><c>   1</c></rc>
    <rc><c>Fe</c><c>   1</c></rc>
    <rc><c>Fe</c><c>   1</c></rc>
    <rc><c>Fe</c><c>   1</c></rc>
    <rc><c>Fe</c><c>   1</c></rc>
    <rc><c>Fe</c><c>   1</c></rc>
    <rc><c>Fe</c><c>   1</c></rc>
    <rc><c>Fe</c><c>   1</c></rc>
    <rc><c>Fe</c><c>   1</c></rc>
    <rc><c>Fe</c><c>   1</c></rc>
    <rc><c>Fe</c><c>   1</c></rc>
    <rc><c>Fe</c><c>   1</c></rc>
    <rc><c>Fe</c><c>   1</c></rc>
    <rc><c>Fe</c><c>   1</c></rc>
    <rc><c>Fe</c><c>   1</c></rc>
    <rc><c>Fe</c><c>   1</c></rc>
    <rc><c>Fe</c><c>   1</c></rc>
    <rc><c>Fe</c><c>   1</c></rc>
    <rc><c>Fe</c><c>   1</c></rc>
    <rc><c>Fe</c><c>   1</c></rc>
    <rc><c>Fe</c><c>   1</c></rc>
    <rc><c>Fe</c><c>   1</c></rc>
    <rc><c>Fe</c><c>   1</c></rc>
    <rc><c>Fe</c><c>   1</c></rc>
    <rc><c>Fe</c><c>   1</c></rc>
    <rc><c>Fe</c><c>   1</c></rc>
    <rc><c>Fe</c><c>   1</c></rc>
    <rc><c>Fe</c><c>   1</c></rc>
    <rc><c>Fe</c><c>   1</c></rc>
    <rc><c>Fe</c><c>   1</c></rc>
    <rc><c>Fe</c><c>   1</c></rc>
    <rc><c>Fe</c><c>   1</c></rc>
    <rc><c>Fe</c><c>   1</c></rc>
    <rc><c>Fe</c><c>   1</c></rc>
    <rc><c>Fe</c><c>   1</c></rc>
    <rc><c>Fe</c><c>   1</c></rc>
    <rc><c>Fe</c><c>   1</c></rc>
    <rc><c>Fe</c><c>   1</c></rc>
    <rc><c>Fe</c><c>   1</c></rc>
    <rc><c>Fe</c><c>   1</c></rc>
    <rc><c>Fe</c><c>   1</c></rc>
    <rc><c>Fe</c><c>   1</c></rc>
    <rc><c>Fe</c><c>   1</c></rc>
    <rc><c>Fe</c><c>   1</c></rc>
    <rc><c>Fe</c><c>   1</c></rc>
    <rc><c>Fe</c><c>   1</c></rc>
    <rc><c>Fe</c><c>   1</c></rc>
    <rc><c>Fe</c><c>   1</c></rc>
    <rc><c>Fe</c><c>   1</c></rc>
    <rc><c>Fe</c><c>   1</c></rc>
    <rc><c>Fe</c><c>   1</c></rc>
    <rc><c>Fe</c><c>   1</c></rc>
    <rc><c>Fe</c><c>   1</c></rc>
    <rc><c>Fe</c><c>   1</c></rc>
    <rc><c>Fe</c><c>   1</c></rc>
    <rc><c>Fe</c><c>   1</c></rc>
    <rc><c>Fe</c><c>   1</c></rc>
    <rc><c>Fe</c><c>   1</c></rc>
    <rc><c>Fe</c><c>   1</c></rc>
    <rc><c>Fe</c><c>   1</c></rc>
    <rc><c>Fe</c><c>   1</c></rc>
    <rc><c>Fe</c><c>   1</c></rc>
    <rc><c>Fe</c><c>   1</c></rc>
    <rc><c>Fe</c><c>   1</c></rc>
    <rc><c>Fe</c><c>   1</c></rc>
    <rc><c>Fe</c><c>   1</c></rc>
    <rc><c>Fe</c><c>   1</c></rc>
    <rc><c>Fe</c><c>   1</c></rc>
    <rc><c>Fe</c><c>   1</c></rc>
    <rc><c>Fe</c><c>   1</c></rc>
    <rc><c>Fe</c><c>   1</c></rc>
    <rc><c>Fe</c><c>   1</c></rc>
    <rc><c>Fe</c><c>   1</c></rc>
    <rc><c>Fe</c><c>   1</c></rc>
    <rc><c>Fe</c><c>   1</c></rc>
    <rc><c>Fe</c><c>   1</c></rc>
    <rc><c>Fe</c><c>   1</c></rc>
    <rc><c>Fe</c><c>   1</c></rc>
    <rc><c>Fe</c><c>   1</c></rc>
    <rc><c>Fe</c><c>   1</c></rc>
    <rc><c>Fe</c><c>   1</c></rc>
    <rc><c>Fe</c><c>   1</c></rc>
    <rc><c>Fe</c><c>   1</c></rc>
    <rc><c>Fe</c><c>   1</c></rc>
    <rc><c>Fe</c><c>   1</c></rc>
    <rc><c>Fe</c><c>   1</c></rc>
    <rc><c>Fe</c><c>   1</c></rc>
    <rc><c>Fe</c><c>   1</c></rc>
    <rc><c>Fe</c><c>   1</c></rc>
    <rc><c>Fe</c><c>   1</c></rc>
    <rc><c>Fe</c><c>   1</c></rc>
    <rc><c>Fe</c><c>   1</c></rc>
    <rc><c>Fe</c><c>   1</c></rc>
    <rc><c>Fe</c><c>   1</c></rc>
    <rc><c>Fe</c><c>   1</c></rc>
    <rc><c>Fe</c><c>   1</c></rc>
    <rc><c>Fe</c><c>   1</c></rc>
    <rc><c>Fe</c><c>   1</c></rc>
    <rc><c>Fe</c><c>   1</c></rc>
    <rc><c>Fe</c><c>   1</c></rc>
    <rc><c>Fe</c><c>   1</c></rc>
    <rc><c>Fe</c><c>   1</c></rc>
    <rc><c>Fe</c><c>   1</c></rc>
    <rc><c>Fe</c><c>   1</c></rc>
    <rc><c>Fe</c><c>   1</c></rc>
    <rc><c>Fe</c><c>   1</c></rc>
    <rc><c>Fe</c><c>   1</c></rc>
    <rc><c>Fe</c><c>   1</c></rc>
    <rc><c>Fe</c><c>   1</c></rc>
    <rc><c>Fe</c><c>   1</c></rc>
    <rc><c>Fe</c><c>   1</c></rc>
    <rc><c>Fe</c><c>   1</c></rc>
    <rc><c>Fe</c><c>   1</c></rc>
    <rc><c>Fe</c><c>   1</c></rc>
    <rc><c>Fe</c><c>   1</c></rc>
    <rc><c>Fe</c><c>   1</c></rc>
    <rc><c>Fe</c><c>   1</c></rc>
    <rc><c>Fe</c><c>   1</c></rc>
    <rc><c>Fe</c><c>   1</c></rc>
    <rc><c>Fe</c><c>   1</c></rc>
    <rc><c>Fe</c><c>   1</c></rc>
    <rc><c>Fe</c><c>   1</c></rc>
    <rc><c>Fe</c><c>   1</c></rc>
    <rc><c>Fe</c><c>   1</c></rc>
    <rc><c>Fe</c><c>   1</c></rc>
    <rc><c>Fe</c><c>   1</c></rc>
    <rc><c>Fe</c><c>   1</c></rc>
    <rc><c>Fe</c><c>   1</c></rc>
    <rc><c>Fe</c><c>   1</c></rc>
    <rc><c>Fe</c><c>   1</c></rc>
    <rc><c>Fe</c><c>   1</c></rc>
    <rc><c>Fe</c><c>   1</c></rc>
    <rc><c>Fe</c><c>   1</c></rc>
    <rc><c>Fe</c><c>   1</c></rc>
    <rc><c>Fe</c><c>   1</c></rc>
    <rc><c>Fe</c><c>   1</c></rc>
    <rc><c>Fe</c><c>   1</c></rc>
    <rc><c>Fe</c><c>   1</c></rc>
    <rc><c>Fe</c><c>   1</c></rc>
    <rc><c>Fe</c><c>   1</c></rc>
    <rc><c>Fe</c><c>   1</c></rc>
    <rc><c>Fe</c><c>   1</c></rc>
    <rc><c>Fe</c><c>   1</c></rc>
    <rc><c>Fe</c><c>   1</c></rc>
    <rc><c>Fe</c><c>   1</c></rc>
    <rc><c>Fe</c><c>   1</c></rc>
    <rc><c>Fe</c><c>   1</c></rc>
    <rc><c>Fe</c><c>   1</c></rc>
    <rc><c>Fe</c><c>   1</c></rc>
    <rc><c>Fe</c><c>   1</c></rc>
    <rc><c>Fe</c><c>   1</c></rc>
    <rc><c>Fe</c><c>   1</c></rc>
    <rc><c>Fe</c><c>   1</c></rc>
    <rc><c>Fe</c><c>   1</c></rc>
    <rc><c>Fe</c><c>   1</c></rc>
    <rc><c>Fe</c><c>   1</c></rc>
    <rc><c>Fe</c><c>   1</c></rc>
    <rc><c>Fe</c><c>   1</c></rc>
    <rc><c>Fe</c><c>   1</c></rc>
    <rc><c>Fe</c><c>   1</c></rc>
    <rc><c>Fe</c><c>   1</c></rc>
    <rc><c>Fe</c><c>   1</c></rc>
    <rc><c>Fe</c><c>   1</c></rc>
    <rc><c>Fe</c><c>   1</c></rc>
    <rc><c>Fe</c><c>   1</c></rc>
    <rc><c>Fe</c><c>   1</c></rc>
    <rc><c>Fe</c><c>   1</c></rc>
    <rc><c>Fe</c><c>   1</c></rc>
    <rc><c>Fe</c><c>   1</c></rc>
    <rc><c>Fe</c><c>   1</c></rc>
    <rc><c>Fe</c><c>   1</c></rc>
    <rc><c>Fe</c><c>   1</c></rc>
    <rc><c>Fe</c><c>   1</c></rc>
    <rc><c>Fe</c><c>   1</c></rc>
    <rc><c>Fe</c><c>   1</c></rc>
    <rc><c>Fe</c><c>   1</c></rc>
    <rc><c>Fe</c><c>   1</c></rc>
    <rc><c>Fe</c><c>   1</c></rc>
    <rc><c>Fe</c><c>   1</c></rc>
    <rc><c>Fe</c><c>   1</c></rc>
    <rc><c>Fe</c><c>   1</c></rc>
    <rc><c>Fe</c><c>   1</c></rc>
    <rc><c>Fe</c><c>   1</c></rc>
    <rc><c>Fe</c><c>   1</c></rc>
    <rc><c>Fe</c><c>   1</c></rc>
    <rc><c>Fe</c><c>   1</c></rc>
    <rc><c>Fe</c><c>   1</c></rc>
    <rc><c>Fe</c><c>   1</c></rc>
    <rc><c>Fe</c><c>   1</c></rc>
    <rc><c>Fe</c><c>   1</c></rc>
    <rc><c>Fe</c><c>   1</c></rc>
    <rc><c>Fe</c><c>   1</c></rc>
    <rc><c>Fe</c><c>   1</c></rc>
    <rc><c>Fe</c><c>   1</c></rc>
    <rc><c>Fe</c><c>   1</c></rc>
    <rc><c>Fe</c><c>   1</c></rc>
    <rc><c>Fe</c><c>   1</c></rc>
    <rc><c>Fe</c><c>   1</c></rc>
    <rc><c>Fe</c><c>   1</c></rc>
    <rc><c>Fe</c><c>   1</c></rc>
    <rc><c>Fe</c><c>   1</c></rc>
    <rc><c>Fe</c><c>   1</c></rc>
    <rc><c>Fe</c><c>   1</c></rc>
    <rc><c>Fe</c><c>   1</c></rc>
    <rc><c>Fe</c><c>   1</c></rc>
    <rc><c>Fe</c><c>   1</c></rc>
    <rc><c>Fe</c><c>   1</c></rc>
    <rc><c>Fe</c><c>   1</c></rc>
    <rc><c>Fe</c><c>   1</c></rc>
    <rc><c>Fe</c><c>   1</c></rc>
    <rc><c>Fe</c><c>   1</c></rc>
    <rc><c>Fe</c><c>   1</c></rc>
    <rc><c>Fe</c><c>   1</c></rc>
    <rc><c>Fe</c><c>   1</c></rc>
    <rc><c>Fe</c><c>   1</c></rc>
    <rc><c>Fe</c><c>   1</c></rc>
    <rc><c>Fe</c><c>   1</c></rc>
    <rc><c>Fe</c><c>   1</c></rc>
    <rc><c>Fe</c><c>   1</c></rc>
    <rc><c>Fe</c><c>   1</c></rc>
    <rc><c>Fe</c><c>   1</c></rc>
    <rc><c>Fe</c><c>   1</c></rc>
    <rc><c>Fe</c><c>   1</c></rc>
    <rc><c>Fe</c><c>   1</c></rc>
    <rc><c>Fe</c><c>   1</c></rc>
    <rc><c>Fe</c><c>   1</c></rc>
    <rc><c>Fe</c><c>   1</c></rc>
    <rc><c>Fe</c><c>   1</c></rc>
    <rc><c>Fe</c><c>   1</c></rc>
    <rc><c>Fe</c><c>   1</c></rc>
    <rc><c>Fe</c><c>   1</c></rc>
    <rc><c>Fe</c><c>   1</c></rc>
    <rc><c>Fe</c><c>   1</c></rc>
    <rc><c>Fe</c><c>   1</c></rc>
    <rc><c>Fe</c><c>   1</c></rc>
    <rc><c>Fe</c><c>   1</c></rc>
    <rc><c>Fe</c><c>   1</c></rc>
    <rc><c>Fe</c><c>   1</c></rc>
    <rc><c>Fe</c><c>   1</c></rc>
    <rc><c>Fe</c><c>   1</c></rc>
    <rc><c>Fe</c><c>   1</c></rc>
    <rc><c>Fe</c><c>   1</c></rc>
    <rc><c>Fe</c><c>   1</c></rc>
    <rc><c>Fe</c><c>   1</c></rc>
    <rc><c>Fe</c><c>   1</c></rc>
    <rc><c>Fe</c><c>   1</c></rc>
    <rc><c>Fe</c><c>   1</c></rc>
    <rc><c>Fe</c><c>   1</c></rc>
    <rc><c>Fe</c><c>   1</c></rc>
    <rc><c>Fe</c><c>   1</c></rc>
    <rc><c>Fe</c><c>   1</c></rc>
    <rc><c>Fe</c><c>   1</c></rc>
    <rc><c>Fe</c><c>   1</c></rc>
    <rc><c>Fe</c><c>   1</c></rc>
    <rc><c>Fe</c><c>   1</c></rc>
    <rc><c>Fe</c><c>   1</c></rc>
    <rc><c>Fe</c><c>   1</c></rc>
    <rc><c>Fe</c><c>   1</c></rc>
    <rc><c>Fe</c><c>   1</c></rc>
    <rc><c>Mn</c><c>   2</c></rc>
    <rc><c>Mn</c><c>   2</c></rc>
    <rc><c>Mn</c><c>   2</c></rc>
    <rc><c>Mn</c><c>   2</c></rc>
    <rc><c>Mn</c><c>   2</c></rc>
    <rc><c>Mn</c><c>   2</c></rc>
    <rc><c>Mn</c><c>   2</c></rc>
    <rc><c>Mn</c><c>   2</c></rc>
    <rc><c>Mn</c><c>   2</c></rc>
    <rc><c>Mn</c><c>   2</c></rc>
    <rc><c>Mn</c><c>   2</c></rc>
    <rc><c>Mn</c><c>   2</c></rc>
    <rc><c>Mn</c><c>   2</c></rc>
    <rc><c>Mn</c><c>   2</c></rc>
   </set>
  </array>
  <array name="atomtypes" >
   <dimension dim="1">type</dimension>
   <field type="int">atomspertype</field>
   <field type="string">element</field>
   <field>mass</field>
   <field>valence</field>
   <field type="string">pseudopotential</field>
   <set>
    <rc><c> 274</c><c>Fe</c><c>     55.84700000</c><c>      8.00000000</c><c>  PAW_PBE Fe_GW 31Mar2010               </c></rc>
    <rc><c>  14</c><c>Mn</c><c>     54.93800000</c><c>      7.00000000</c><c>  PAW_PBE Mn_GW 31Mar2010               </c></rc>
   </set>
  </array>
 </atominfo>
 <structure name="initialpos" >
  <crystal>
   <varray name="basis" >
    <v>       9.72667804       0.00000000       0.00000000 </v>
    <v>       0.00000000       8.42355028       0.00000000 </v>
    <v>       0.00000000       0.00000000      45.00000000 </v>
   </varray>
   <i name="volume">   3686.99226691 </i>
   <varray name="rec_basis" >
    <v>       0.10281002       0.00000000       0.00000000 </v>
    <v>       0.00000000       0.11871479       0.00000000 </v>
    <v>       0.00000000       0.00000000       0.02222222 </v>
   </varray>
  </crystal>
  <varray name="positions" >
   <v>       0.06266128       0.03531923       0.12540691 </v>
   <v>       0.31309099       0.87188158       0.65404720 </v>
   <v>       0.18744691       0.11694760       0.78717411 </v>
   <v>       0.43766059       0.29104648       0.38973454 </v>
   <v>       0.31462955       0.70707790       0.83135909 </v>
   <v>       0.81403099       0.20974785       0.83255297 </v>
   <v>       0.18813836       0.95894391       0.83223014 </v>
   <v>       0.56325088       0.20715795       0.56510123 </v>
   <v>       0.06206219       0.03529332       0.74253542 </v>
   <v>       0.81226369       0.87076440       0.52111994 </v>
   <v>       0.18962745       0.28625953       0.74245126 </v>
   <v>       0.93655515       0.45658033       0.34631202 </v>
   <v>       0.93586693       0.29083097       0.38993012 </v>
   <v>       0.81203135       0.03492096       0.87434058 </v>
   <v>       0.18599861       0.78737488       0.61011282 </v>
   <v>       0.56201236       0.04084065       0.38998646 </v>
   <v>       0.93920563       0.95936729       0.83272137 </v>
   <v>       0.31385908       0.53491129       0.87458140 </v>
   <v>       0.68873210       0.28668558       0.74238762 </v>
   <v>       0.18868043       0.61878340       0.16766260 </v>
   <v>       0.81142128       0.20620210       0.47886543 </v>
   <v>       0.81278210       0.53589898       0.61024420 </v>
   <v>       0.31254400       0.87319251       0.43467579 </v>
   <v>       0.81275590       0.04045574       0.25743858 </v>
   <v>       0.68753680       0.95551481       0.34598337 </v>
   <v>       0.93745906       0.11950760       0.16855029 </v>
   <v>       0.06344566       0.87084662       0.52111773 </v>
   <v>       0.56212437       0.54123427       0.25720736 </v>
   <v>       0.68609113       0.79094496       0.87446921 </v>
   <v>       0.56335900       0.36961100       0.16804315 </v>
   <v>       0.43731004       0.78756611       0.74284180 </v>
   <v>       0.81233863       0.70678931       0.56495131 </v>
   <v>       0.56284569       0.86788453       0.78710193 </v>
   <v>       0.68733647       0.12068853       0.52111545 </v>
   <v>       0.81355144       0.37087412       0.65417979 </v>
   <v>       0.93779786       0.45872325       0.83243913 </v>
   <v>       0.06202633       0.20605500       0.69856979 </v>
   <v>       0.43709071       0.95591275       0.69838824 </v>
   <v>       0.31306723       0.20586613       0.83203720 </v>
   <v>       0.43774807       0.62176109       0.65391102 </v>
   <v>       0.31209244       0.53612456       0.61008237 </v>
   <v>       0.93734400       0.45718934       0.56503316 </v>
   <v>       0.68782995       0.78754539       0.74283164 </v>
   <v>       0.93622253       0.79062413       0.12562792 </v>
   <v>       0.68761005       0.78956613       0.38965339 </v>
   <v>       0.93764957       0.78679812       0.74318448 </v>
   <v>       0.06317045       0.20618930       0.34595690 </v>
   <v>       0.81143465       0.04096277       0.39008072 </v>
   <v>       0.43751347       0.11719756       0.78728778 </v>
   <v>       0.06233733       0.20743034       0.21275651 </v>
   <v>       0.06176515       0.36973068       0.16810174 </v>
   <v>       0.93564023       0.79130821       0.25729777 </v>
   <v>       0.56296941       0.20511743       0.69844516 </v>
   <v>       0.68697755       0.95590013       0.69850152 </v>
   <v>       0.43756489       0.79110900       0.12543692 </v>
   <v>       0.43723792       0.95688089       0.56477808 </v>
   <v>       0.81282155       0.36816950       0.78711053 </v>
   <v>       0.68491716       0.29110955       0.25747806 </v>
   <v>       0.18798812       0.45721774       0.56494049 </v>
   <v>       0.06288168       0.86996443       0.16807936 </v>
   <v>       0.18700376       0.28683080       0.61029476 </v>
   <v>       0.56384661       0.70641558       0.34630375 </v>
   <v>       0.31212825       0.20562047       0.69856151 </v>
   <v>       0.56161998       0.53454880       0.87453114 </v>
   <v>       0.06296502       0.70679719       0.56488925 </v>
   <v>       0.68796401       0.61739700       0.78703170 </v>
   <v>       0.31178943       0.54050292       0.38974782 </v>
   <v>       0.18770585       0.62065197       0.52112478 </v>
   <v>       0.56331709       0.87399626       0.43500271 </v>
   <v>       0.43706690       0.45738019       0.56492020 </v>
   <v>       0.43741609       0.28746248       0.74280262 </v>
   <v>       0.81221217       0.87768901       0.30157674 </v>
   <v>       0.81172175       0.70645089       0.34633327 </v>
   <v>       0.43799687       0.45603345       0.83149810 </v>
   <v>       0.68758654       0.95593199       0.47874932 </v>
   <v>       0.68672598       0.45647893       0.69840578 </v>
   <v>       0.56294122       0.87132513       0.52117350 </v>
   <v>       0.56323130       0.37134756       0.65382191 </v>
   <v>       0.81301555       0.87195728       0.65396710 </v>
   <v>       0.81270217       0.37390911       0.43465726 </v>
   <v>       0.81289871       0.54087006       0.25738699 </v>
   <v>       0.68956876       0.45549628       0.83194589 </v>
   <v>       0.18806456       0.79085573       0.12543131 </v>
   <v>       0.68788034       0.29076440       0.38958594 </v>
   <v>       0.31315620       0.37116965       0.65379321 </v>
   <v>       0.31290825       0.20556285       0.34592749 </v>
   <v>       0.81279289       0.53657330       0.74288282 </v>
   <v>       0.68775194       0.95690374       0.83216331 </v>
   <v>       0.56252743       0.87176222       0.65393786 </v>
   <v>       0.31228666       0.70722310       0.56509460 </v>
   <v>       0.31233751       0.53470577       0.12538627 </v>
   <v>       0.68718969       0.95838488       0.21293400 </v>
   <v>       0.31232032       0.20723444       0.56520022 </v>
   <v>       0.18705190       0.95643043       0.47872143 </v>
   <v>       0.68807953       0.95694063       0.56502500 </v>
   <v>       0.43685797       0.78652458       0.61012992 </v>
   <v>       0.68759203       0.61924759       0.16814079 </v>
   <v>       0.31251537       0.87547428       0.30144042 </v>
   <v>       0.31268121       0.70563271       0.47871674 </v>
   <v>       0.93604052       0.28752263       0.61008055 </v>
   <v>       0.43801283       0.62642853       0.30172199 </v>
   <v>       0.81229558       0.86925947       0.16844734 </v>
   <v>       0.56313461       0.20731724       0.21276227 </v>
   <v>       0.93732672       0.61923575       0.16817784 </v>
   <v>       0.93926148       0.78957981       0.87457223 </v>
   <v>       0.56200407       0.36770719       0.78707194 </v>
   <v>       0.06198869       0.37128483       0.52116404 </v>
   <v>       0.31260647       0.36912973       0.16832402 </v>
   <v>       0.68798836       0.12508015       0.30146297 </v>
   <v>       0.44011681       0.95729944       0.83172485 </v>
   <v>       0.18632974       0.29095747       0.12546917 </v>
   <v>       0.18574200       0.29179133       0.25753561 </v>
   <v>       0.31235995       0.37332736       0.43479037 </v>
   <v>       0.56394513       0.03514405       0.12543970 </v>
   <v>       0.43627701       0.28657625       0.60996302 </v>
   <v>       0.18678731       0.45825296       0.34658479 </v>
   <v>       0.43835574       0.29143248       0.12551831 </v>
   <v>       0.68700771       0.79114037       0.25725039 </v>
   <v>       0.43713232       0.12130897       0.52116399 </v>
   <v>       0.18868615       0.29132504       0.87453975 </v>
   <v>       0.18791951       0.12179355       0.65394021 </v>
   <v>       0.93807187       0.12172152       0.65386021 </v>
   <v>       0.31255964       0.20820949       0.21286032 </v>
   <v>       0.06260882       0.03977899       0.38974454 </v>
   <v>       0.18746151       0.11723221       0.16749999 </v>
   <v>       0.06212732       0.53544429       0.61025773 </v>
   <v>       0.93764833       0.29083276       0.25734743 </v>
   <v>       0.56180713       0.53603610       0.61015240 </v>
   <v>       0.81256866       0.36992183       0.16863386 </v>
   <v>       0.68738719       0.62511527       0.30143640 </v>
   <v>       0.93667707       0.62364852       0.43508443 </v>
   <v>       0.93707344       0.61702169       0.78675105 </v>
   <v>       0.56174455       0.70499120       0.69836887 </v>
   <v>       0.06280308       0.71019559       0.83248384 </v>
   <v>       0.93783189       0.12554909       0.30148310 </v>
   <v>       0.93719158       0.78575101       0.61011882 </v>
   <v>       0.43519736       0.79151966       0.25731093 </v>
   <v>       0.31247483       0.36782338       0.78697875 </v>
   <v>       0.43738727       0.45821998       0.21280562 </v>
   <v>       0.18736388       0.12041056       0.52117595 </v>
   <v>       0.81203101       0.70602925       0.69854938 </v>
   <v>       0.06184032       0.03581777       0.61007327 </v>
   <v>       0.56236362       0.20653803       0.83159784 </v>
   <v>       0.31147724       0.87122127       0.52112697 </v>
   <v>       0.68782767       0.29035516       0.12554874 </v>
   <v>       0.18730116       0.95849611       0.21304742 </v>
   <v>       0.68585165       0.28711992       0.61015065 </v>
   <v>       0.31107575       0.03651987       0.61031407 </v>
   <v>       0.93757852       0.11707095       0.78722853 </v>
   <v>       0.43759069       0.79101107       0.87432707 </v>
   <v>       0.81264906       0.03696181       0.74280048 </v>
   <v>       0.93668949       0.45654261       0.69839247 </v>
   <v>       0.18756427       0.62213132       0.65394840 </v>
   <v>       0.31225757       0.70531372       0.69845197 </v>
   <v>       0.93699557       0.29028111       0.12554527 </v>
   <v>       0.43734707       0.45579752       0.47879386 </v>
   <v>       0.06257423       0.70594980       0.47863298 </v>
   <v>       0.93655357       0.12435013       0.43532632 </v>
   <v>       0.43735706       0.12597189       0.30173077 </v>
   <v>       0.18750958       0.12397255       0.43480804 </v>
   <v>       0.56184138       0.03413132       0.87458614 </v>
   <v>       0.18743360       0.95774930       0.56505921 </v>
   <v>       0.68927802       0.79091688       0.12560294 </v>
   <v>       0.56371456       0.53374605       0.12548586 </v>
   <v>       0.31244198       0.04014482       0.38984654 </v>
   <v>       0.68736420       0.11956585       0.16851034 </v>
   <v>       0.81258662       0.20846059       0.21250665 </v>
   <v>       0.06378692       0.54167882       0.25726613 </v>
   <v>       0.56222152       0.70584924       0.47867165 </v>
   <v>       0.06258606       0.20705504       0.56493348 </v>
   <v>       0.56224533       0.37706787       0.30156606 </v>
   <v>       0.43664945       0.95654400       0.34624056 </v>
   <v>       0.18757670       0.95600355       0.69861243 </v>
   <v>       0.43638089       0.61843098       0.16751843 </v>
   <v>       0.93742179       0.45826910       0.21291903 </v>
   <v>       0.06153132       0.53373833       0.12553140 </v>
   <v>       0.81323633       0.37183028       0.52122728 </v>
   <v>       0.93751170       0.62501827       0.30136168 </v>
   <v>       0.31320123       0.04071342       0.25697701 </v>
   <v>       0.68762135       0.78626921       0.61018395 </v>
   <v>       0.18882238       0.45844831       0.83214067 </v>
   <v>       0.43750279       0.11718514       0.16767661 </v>
   <v>       0.31191147       0.37093332       0.52113393 </v>
   <v>       0.43757205       0.61685682       0.78727907 </v>
   <v>       0.06162929       0.04117174       0.25726170 </v>
   <v>       0.56258901       0.70751502       0.56519449 </v>
   <v>       0.93768326       0.28564778       0.74259331 </v>
   <v>       0.68668477       0.11729082       0.78695660 </v>
   <v>       0.18771661       0.45815236       0.21280361 </v>
   <v>       0.93729879       0.79066597       0.38982070 </v>
   <v>       0.68636604       0.29334130       0.87457616 </v>
   <v>       0.56263431       0.86989657       0.16802188 </v>
   <v>       0.43747314       0.45614105       0.69862061 </v>
   <v>       0.93850078       0.95639589       0.34612883 </v>
   <v>       0.68667139       0.62157438       0.52111722 </v>
   <v>       0.06252226       0.87192697       0.65394943 </v>
   <v>       0.06229377       0.86824721       0.78699783 </v>
   <v>       0.06271830       0.37079359       0.65408619 </v>
   <v>       0.68769480       0.45569109       0.47878554 </v>
   <v>       0.18817260       0.79146202       0.25734098 </v>
   <v>       0.43735982       0.12336174       0.43465036 </v>
   <v>       0.81325004       0.03380072       0.12548069 </v>
   <v>       0.93728077       0.62126677       0.52120382 </v>
   <v>       0.06289173       0.87262621       0.43458534 </v>
   <v>       0.81282002       0.53400691       0.12523742 </v>
   <v>       0.43726285       0.45675430       0.34640031 </v>
   <v>       0.81275182       0.20725770       0.34646708 </v>
   <v>       0.31292291       0.70582360       0.34605578 </v>
   <v>       0.68695622       0.12200194       0.65400029 </v>
   <v>       0.56323796       0.87646237       0.30182129 </v>
   <v>       0.06343288       0.53534118       0.74277406 </v>
   <v>       0.93807006       0.95834116       0.21286273 </v>
   <v>       0.81249160       0.70795355       0.21283397 </v>
   <v>       0.06183638       0.87552075       0.30181632 </v>
   <v>       0.18760009       0.12644794       0.30179665 </v>
   <v>       0.06185084       0.70617689       0.34628496 </v>
   <v>       0.81083885       0.03632016       0.60985286 </v>
   <v>       0.06268516       0.37315280       0.43461663 </v>
   <v>       0.56245908       0.20708428       0.34628826 </v>
   <v>       0.81290751       0.37633602       0.30152891 </v>
   <v>       0.56331664       0.04210584       0.25726697 </v>
   <v>       0.56268314       0.54070123       0.38986392 </v>
   <v>       0.06286830       0.20604042       0.47863083 </v>
   <v>       0.31284013       0.86751721       0.78693875 </v>
   <v>       0.93765752       0.95608005       0.69854246 </v>
   <v>       0.06294883       0.37611414       0.30138908 </v>
   <v>       0.68772172       0.62225886       0.65398722 </v>
   <v>       0.68744565       0.45708040       0.56491189 </v>
   <v>       0.43815516       0.95862292       0.21317677 </v>
   <v>       0.31241598       0.20593744       0.47877765 </v>
   <v>       0.43837234       0.12129841       0.65372789 </v>
   <v>       0.68727626       0.62310351       0.43466344 </v>
   <v>       0.81250344       0.20616887       0.69856939 </v>
   <v>       0.81223757       0.70600870       0.47864978 </v>
   <v>       0.81171126       0.87389391       0.43488317 </v>
   <v>       0.93743694       0.95552028       0.47890459 </v>
   <v>       0.56245044       0.20582242       0.47877659 </v>
   <v>       0.18737812       0.62406920       0.43483710 </v>
   <v>       0.31243219       0.03724603       0.74269704 </v>
   <v>       0.93748364       0.62164060       0.65389971 </v>
   <v>       0.56313476       0.70761476       0.83190973 </v>
   <v>       0.31293675       0.37405136       0.30149439 </v>
   <v>       0.56239741       0.70788338       0.21271182 </v>
   <v>       0.18720962       0.45590269       0.47868486 </v>
   <v>       0.31393696       0.03577381       0.87435454 </v>
   <v>       0.18662023       0.45674608       0.69847802 </v>
   <v>       0.81117768       0.53383769       0.87460854 </v>
   <v>       0.18752549       0.29055964       0.38986666 </v>
   <v>       0.43687828       0.62405023       0.43477683 </v>
   <v>       0.06257061       0.70802633       0.21281025 </v>
   <v>       0.56199907       0.37445012       0.43530756 </v>
   <v>       0.43808352       0.62221270       0.52123459 </v>
   <v>       0.81319199       0.71027531       0.83158933 </v>
   <v>       0.06227486       0.36816412       0.78706795 </v>
   <v>       0.43755656       0.29211294       0.87479573 </v>
   <v>       0.31337943       0.03444475       0.12548272 </v>
   <v>       0.68772173       0.12112346       0.43459794 </v>
   <v>       0.18697243       0.95741855       0.34629897 </v>
   <v>       0.06334571       0.20906962       0.83283140 </v>
   <v>       0.56240444       0.03562069       0.61030151 </v>
   <v>       0.68755850       0.45810929       0.21288783 </v>
   <v>       0.18755026       0.78684644       0.74282905 </v>
   <v>       0.18737849       0.62712717       0.30177988 </v>
   <v>       0.43643626       0.79138509       0.39007467 </v>
   <v>       0.43513930       0.29234260       0.25733831 </v>
   <v>       0.06368664       0.53550011       0.87450446 </v>
   <v>       0.56374329       0.03620680       0.74272066 </v>
   <v>       0.18827740       0.79088742       0.87451520 </v>
   <v>       0.93741705       0.45566124       0.47869793 </v>
   <v>       0.56305697       0.53659052       0.74231767 </v>
   <v>       0.81235515       0.20707386       0.56491932 </v>
   <v>       0.18740891       0.61696714       0.78700125 </v>
   <v>       0.06299920       0.54052640       0.38968722 </v>
   <v>       0.06307770       0.70554095       0.69841960 </v>
   <v>       0.31281448       0.54288652       0.25688192 </v>
   <v>       0.31259803       0.70464719       0.21346436 </v>
   <v>       0.31258799       0.86957376       0.16697478 </v>
   <v>       0.81320870       0.53948958       0.39008680 </v>
   <v>       0.68613152       0.45484669       0.34603836 </v>
   <v>       0.93462352       0.29288444       0.87416299 </v>
   <v>       0.43733006       0.95642728       0.47880331 </v>
   <v>       0.06432045       0.03198831       0.87430706 </v>
   <v>       0.18673705       0.79284028       0.39013229 </v>
   <v>       0.93698699       0.95625044       0.56532686 </v>
   <v>       0.56266673       0.37076655       0.52126285 </v>
   <v>       0.93728674       0.12079388       0.52117837 </v>
   <v>       0.81146958       0.86855805       0.78665408 </v>
   <v>       0.31294342       0.53499917       0.74285093 </v>
  </varray>
 </structure>
 <calculation>
  <scstep>
   <time name="dav">   54.14   54.15</time>
   <time name="total">   54.30   54.33</time>
   <energy>
    <i name="alphaZ">  16293.21160653 </i>
    <i name="ewald"> 755189.62330390 </i>
    <i name="hartreedc">-945642.82692301 </i>
    <i name="XCdc">  -6509.58220778 </i>
    <i name="pawpsdc"> 162273.92519768 </i>
    <i name="pawaedc">-159623.75899949 </i>
    <i name="eentropy">     -1.05983761 </i>
    <i name="bandstr">  38471.04858466 </i>
    <i name="atom"> 168671.76673737 </i>
    <i name="e_fr_energy">  29122.34746224 </i>
    <i name="e_wo_entrp">  29123.40729985 </i>
    <i name="e_0_energy">  29122.87738105 </i>
   </energy>
  </scstep>
  <scstep>
   <time name="dav">   53.62   53.66</time>
   <time name="total">   53.63   53.67</time>
   <energy>
    <i name="e_fr_energy">   1197.30898315 </i>
    <i name="e_wo_entrp">   1198.80474100 </i>
    <i name="e_0_energy">   1198.05686207 </i>
   </energy>
  </scstep>
  <scstep>
   <time name="dav">   70.27   70.32</time>
   <time name="total">   70.28   70.32</time>
   <energy>
    <i name="e_fr_energy">  -1950.57011519 </i>
    <i name="e_wo_entrp">  -1947.00372563 </i>
    <i name="e_0_energy">  -1948.78692041 </i>
   </energy>
  </scstep>
  <scstep>
   <time name="dav">   88.08   88.12</time>
   <time name="total">   88.08   88.13</time>
   <energy>
    <i name="e_fr_energy">  -2620.99631519 </i>
    <i name="e_wo_entrp">  -2617.52192495 </i>
    <i name="e_0_energy">  -2619.25912007 </i>
   </energy>
  </scstep>
  <scstep>
   <time name="dav">   84.51   84.55</time>
   <time name="total">   86.53   86.57</time>
   <energy>
    <i name="e_fr_energy">  -2740.72209926 </i>
    <i name="e_wo_entrp">  -2737.15006972 </i>
    <i name="e_0_energy">  -2738.93608449 </i>
   </energy>
  </scstep>
  <scstep>
   <time name="diag">    8.23    8.23</time>
   <time name="diis">   37.43   37.43</time>
   <time name="orth">    2.30    2.30</time>
   <time name="total">   50.12   50.16</time>
   <energy>
    <i name="e_fr_energy">  -7162.12831400 </i>
    <i name="e_wo_entrp">  -7159.01157435 </i>
    <i name="e_0_energy">  -7160.56994418 </i>
   </energy>
  </scstep>
  <scstep>
   <time name="diag">    8.29    8.29</time>
   <time name="diis">   38.70   38.71</time>
   <time name="orth">    2.27    2.27</time>
   <time name="total">   51.36   51.40</time>
[...]
       <r>     5.8489     0.0000  2772.0000 </r>
       <r>     5.8917     0.0000  2772.0000 </r>
       <r>     5.9345     0.0000  2772.0000 </r>
       <r>     5.9773     0.0000  2772.0000 </r>
       <r>     6.0201     0.0000  2772.0000 </r>
       <r>     6.0630     0.0000  2772.0000 </r>
       <r>     6.1058     0.0000  2772.0000 </r>
       <r>     6.1486     0.0000  2772.0000 </r>
       <r>     6.1914     0.0000  2772.0000 </r>
       <r>     6.2343     0.0000  2772.0000 </r>
       <r>     6.2771     0.0000  2772.0000 </r>
       <r>     6.3199     0.0000  2772.0000 </r>
       <r>     6.3627     0.0000  2772.0000 </r>
       <r>     6.4055     0.0000  2772.0000 </r>
       <r>     6.4484     0.0000  2772.0000 </r>
       <r>     6.4912     0.0000  2772.0000 </r>
       <r>     6.5340     0.0000  2772.0000 </r>
       <r>     6.5768     0.0000  2772.0000 </r>
       <r>     6.6197     0.0000  2772.0000 </r>
       <r>     6.6625     0.0000  2772.0000 </r>
       <r>     6.7053     0.0000  2772.0000 </r>
       <r>     6.7481     0.0000  2772.0000 </r>
       <r>     6.7910     0.0000  2772.0000 </r>
      </set>
     </set>
    </array>
   </total>
  </dos>
 </calculation>
 <structure name="finalpos" >
  <crystal>
   <varray name="basis" >
    <v>       9.72667804       0.00000000       0.00000000 </v>
    <v>       0.00000000       8.42355028       0.00000000 </v>
    <v>       0.00000000       0.00000000      45.00000000 </v>
   </varray>
   <i name="volume">   3686.99226691 </i>
   <varray name="rec_basis" >
    <v>       0.10281002       0.00000000       0.00000000 </v>
    <v>       0.00000000       0.11871479       0.00000000 </v>
    <v>       0.00000000       0.00000000       0.02222222 </v>
   </varray>
  </crystal>
  <varray name="positions" >
   <v>       0.06225792       0.03693663       0.12569602 </v>
   <v>       0.31259899       0.87168117       0.65399370 </v>
   <v>       0.18752449       0.11894827       0.78706674 </v>
   <v>       0.43790825       0.29091648       0.39001647 </v>
   <v>       0.31344163       0.70626515       0.83165515 </v>
   <v>       0.81411242       0.20722455       0.83229224 </v>
   <v>       0.18738047       0.95706845       0.83213783 </v>
   <v>       0.56280872       0.20608890       0.56542124 </v>
   <v>       0.06214963       0.03655510       0.74283791 </v>
   <v>       0.81214206       0.87174767       0.52145685 </v>
   <v>       0.18768665       0.28696769       0.74273238 </v>
   <v>       0.93716688       0.45696212       0.34601012 </v>
   <v>       0.93681770       0.29054158       0.39008806 </v>
   <v>       0.81209319       0.03775851       0.87427497 </v>
   <v>       0.18702100       0.78754171       0.60998702 </v>
   <v>       0.56180239       0.04061120       0.39012970 </v>
   <v>       0.93906592       0.95766204       0.83246270 </v>
   <v>       0.31309123       0.53776143       0.87416734 </v>
   <v>       0.68818188       0.28721140       0.74270038 </v>
   <v>       0.18792724       0.61999062       0.16776627 </v>
   <v>       0.81162551       0.20626719       0.47861405 </v>
   <v>       0.81236078       0.53719882       0.61009622 </v>
   <v>       0.31226090       0.87322884       0.43478440 </v>
   <v>       0.81258085       0.04082191       0.25730463 </v>
   <v>       0.68749990       0.95694029       0.34595252 </v>
   <v>       0.93719042       0.12034602       0.16810467 </v>
   <v>       0.06292549       0.87193472       0.52146900 </v>
   <v>       0.56249700       0.54125425       0.25716429 </v>
   <v>       0.68733293       0.78872863       0.87423055 </v>
   <v>       0.56328386       0.37037103       0.16775865 </v>
   <v>       0.43745640       0.78733131       0.74280687 </v>
   <v>       0.81234303       0.70565370       0.56526063 </v>
   <v>       0.56248283       0.86885618       0.78702190 </v>
   <v>       0.68736282       0.12155726       0.52152795 </v>
   <v>       0.81270740       0.37128606       0.65411710 </v>
   <v>       0.93814030       0.45669375       0.83224411 </v>
   <v>       0.06217212       0.20491980       0.69851591 </v>
   <v>       0.43731684       0.95497329       0.69846625 </v>
   <v>       0.31268071       0.20555658       0.83220876 </v>
   <v>       0.43751876       0.62167296       0.65402815 </v>
   <v>       0.31202465       0.53756336       0.60997109 </v>
   <v>       0.93747434       0.45590911       0.56530294 </v>
   <v>       0.68791513       0.78739385       0.74284411 </v>
   <v>       0.93633612       0.78821234       0.12594509 </v>
   <v>       0.68750837       0.78969406       0.38996349 </v>
   <v>       0.93787274       0.78677606       0.74291677 </v>
   <v>       0.06240442       0.20706905       0.34592871 </v>
   <v>       0.81235769       0.04060062       0.39018100 </v>
   <v>       0.43751788       0.11912538       0.78708477 </v>
   <v>       0.06207508       0.20672842       0.21295243 </v>
   <v>       0.06182638       0.37031957       0.16782113 </v>
   <v>       0.93683460       0.79118063       0.25719997 </v>
   <v>       0.56255091       0.20476389       0.69843587 </v>
   <v>       0.68748805       0.95487913       0.69851864 </v>
   <v>       0.43777506       0.78820612       0.12550946 </v>
   <v>       0.43723292       0.95599732       0.56507960 </v>
   <v>       0.81284101       0.36881459       0.78699655 </v>
   <v>       0.68665266       0.29098940       0.25720457 </v>
   <v>       0.18784859       0.45598760       0.56527788 </v>
   <v>       0.06246759       0.87063687       0.16787449 </v>
   <v>       0.18712914       0.28727208       0.61010763 </v>
   <v>       0.56299801       0.70693475       0.34612621 </v>
   <v>       0.31246119       0.20478427       0.69847511 </v>
   <v>       0.56251043       0.53822371       0.87403069 </v>
   <v>       0.06271187       0.70571745       0.56525127 </v>
   <v>       0.68788965       0.61891550       0.78703844 </v>
   <v>       0.31223253       0.54070631       0.39012389 </v>
   <v>       0.18778737       0.62222920       0.52142647 </v>
   <v>       0.56235795       0.87314356       0.43482369 </v>
   <v>       0.43718871       0.45632596       0.56528765 </v>
   <v>       0.43778759       0.28745058       0.74281493 </v>
   <v>       0.81257468       0.87592767       0.30139903 </v>
   <v>       0.81230720       0.70661802       0.34603912 </v>
   <v>       0.43827155       0.45576263       0.83196102 </v>
   <v>       0.68782830       0.95629818       0.47847516 </v>
   <v>       0.68722338       0.45518928       0.69844873 </v>
   <v>       0.56266020       0.87186172       0.52137856 </v>
   <v>       0.56278977       0.37140499       0.65390563 </v>
   <v>       0.81276159       0.87142420       0.65406147 </v>
   <v>       0.81255936       0.37346501       0.43463102 </v>
   <v>       0.81260888       0.54092542       0.25719999 </v>
   <v>       0.68885846       0.45587346       0.83209861 </v>
   <v>       0.18766092       0.78828639       0.12551279 </v>
   <v>       0.68737258       0.29068533       0.39000989 </v>
   <v>       0.31257653       0.37155854       0.65396098 </v>
   <v>       0.31253047       0.20676226       0.34594759 </v>
   <v>       0.81297838       0.53663685       0.74284727 </v>
   <v>       0.68805691       0.95625442       0.83215989 </v>
   <v>       0.56257589       0.87157045       0.65396642 </v>
   <v>       0.31228516       0.70565898       0.56536334 </v>
   <v>       0.31265005       0.53747104       0.12555184 </v>
   <v>       0.68740601       0.95763666       0.21307882 </v>
   <v>       0.31229186       0.20655683       0.56541381 </v>
   <v>       0.18694095       0.95637773       0.47843950 </v>
   <v>       0.68765116       0.95607595       0.56535710 </v>
   <v>       0.43692818       0.78736357       0.60998979 </v>
   <v>       0.68760319       0.61984069       0.16793081 </v>
   <v>       0.31229873       0.87526644       0.30134363 </v>
   <v>       0.31245827       0.70545580       0.47850259 </v>
   <v>       0.93694571       0.28713828       0.60997296 </v>
   <v>       0.43789403       0.62547030       0.30148381 </v>
   <v>       0.81260032       0.87020121       0.16800600 </v>
   <v>       0.56295164       0.20683101       0.21287987 </v>
   <v>       0.93734675       0.61992146       0.16796883 </v>
   <v>       0.93809247       0.78761659       0.87444248 </v>
   <v>       0.56230215       0.36875380       0.78697769 </v>
   <v>       0.06241535       0.37253205       0.52143264 </v>
   <v>       0.31251516       0.36987121       0.16791087 </v>
   <v>       0.68784543       0.12557818       0.30146380 </v>
   <v>       0.43899000       0.95580677       0.83196730 </v>
   <v>       0.18680750       0.28853457       0.12588068 </v>
   <v>       0.18652776       0.29100747       0.25726234 </v>
   <v>       0.31224558       0.37324912       0.43465669 </v>
   <v>       0.56363277       0.03723288       0.12570396 </v>
   <v>       0.43700149       0.28735526       0.60990984 </v>
   <v>       0.18700960       0.45755128       0.34615531 </v>
   <v>       0.43829064       0.28866758       0.12584843 </v>
   <v>       0.68729650       0.79150413       0.25715202 </v>
   <v>       0.43695749       0.12246062       0.52147103 </v>
   <v>       0.18896463       0.28910653       0.87438191 </v>
   <v>       0.18775102       0.12175761       0.65412145 </v>
   <v>       0.93769625       0.12131129       0.65398279 </v>
   <v>       0.31250447       0.20725406       0.21286550 </v>
   <v>       0.06233404       0.04049131       0.39005842 </v>
   <v>       0.18711206       0.11947000       0.16777149 </v>
   <v>       0.06211308       0.53708235       0.61005446 </v>
   <v>       0.93735870       0.29059390       0.25713146 </v>
   <v>       0.56207635       0.53741932       0.60994263 </v>
   <v>       0.81256752       0.37099079       0.16806088 </v>
   <v>       0.68762147       0.62563793       0.30140773 </v>
   <v>       0.93724224       0.62342060       0.43481578 </v>
   <v>       0.93740551       0.61962361       0.78688299 </v>
   <v>       0.56192125       0.70447792       0.69837271 </v>
   <v>       0.06301500       0.70805164       0.83231816 </v>
   <v>       0.93767333       0.12558447       0.30140080 </v>
   <v>       0.93714406       0.78713768       0.60997748 </v>
   <v>       0.43701280       0.79157442       0.25721979 </v>
   <v>       0.31235469       0.36850703       0.78690047 </v>
   <v>       0.43788100       0.45723623       0.21288779 </v>
   <v>       0.18774937       0.12165857       0.52148796 </v>
   <v>       0.81239384       0.70517638       0.69854363 </v>
   <v>       0.06192614       0.03741227       0.60994062 </v>
   <v>       0.56266662       0.20595382       0.83182814 </v>
   <v>       0.31176866       0.87179346       0.52140493 </v>
   <v>       0.68785399       0.28792030       0.12592454 </v>
   <v>       0.18718112       0.95784763       0.21305948 </v>
   <v>       0.68665179       0.28743478       0.61006566 </v>
   <v>       0.31191611       0.03715333       0.61007742 </v>
   <v>       0.93779660       0.11923499       0.78720245 </v>
   <v>       0.43787926       0.78846096       0.87406574 </v>
   <v>       0.81305384       0.03703987       0.74277779 </v>
   <v>       0.93733521       0.45532124       0.69852460 </v>
   <v>       0.18758566       0.62159582       0.65398816 </v>
   <v>       0.31230762       0.70483858       0.69849882 </v>
   <v>       0.93707999       0.28790011       0.12594296 </v>
   <v>       0.43704103       0.45601389       0.47859715 </v>
   <v>       0.06249411       0.70537826       0.47853687 </v>
   <v>       0.93712288       0.12320742       0.43505440 </v>
   <v>       0.43762434       0.12494733       0.30142382 </v>
   <v>       0.18760246       0.12314704       0.43466826 </v>
   <v>       0.56276153       0.03733571       0.87420234 </v>
   <v>       0.18741494       0.95640397       0.56542564 </v>
   <v>       0.68912186       0.78830529       0.12591169 </v>
   <v>       0.56372790       0.53621357       0.12567150 </v>
   <v>       0.31257523       0.04047071       0.39011294 </v>
   <v>       0.68791261       0.12039311       0.16807083 </v>
   <v>       0.81257071       0.20730167       0.21284156 </v>
   <v>       0.06247870       0.54127574       0.25717429 </v>
   <v>       0.56234790       0.70533217       0.47855834 </v>
   <v>       0.06272059       0.20626907       0.56531729 </v>
   <v>       0.56225984       0.37553875       0.30137803 </v>
   <v>       0.43705774       0.95668341       0.34606373 </v>
   <v>       0.18729834       0.95505397       0.69860525 </v>
   <v>       0.43710411       0.61996738       0.16766475 </v>
   <v>       0.93747049       0.45741681       0.21302614 </v>
   <v>       0.06148372       0.53634327       0.12574965 </v>
   <v>       0.81275631       0.37240614       0.52147791 </v>
   <v>       0.93735193       0.62522045       0.30134980 </v>
   <v>       0.31242861       0.04074104       0.25713117 </v>
   <v>       0.68725652       0.78722121       0.61000804 </v>
   <v>       0.18778252       0.45685081       0.83222960 </v>
   <v>       0.43791167       0.11964415       0.16786709 </v>
   <v>       0.31201521       0.37186634       0.52147376 </v>
   <v>       0.43787709       0.61859548       0.78704778 </v>
   <v>       0.06197373       0.04078056       0.25721315 </v>
   <v>       0.56253758       0.70551757       0.56543768 </v>
   <v>       0.93797473       0.28660498       0.74281858 </v>
   <v>       0.68692141       0.11895692       0.78689029 </v>
   <v>       0.18703790       0.45732534       0.21291719 </v>
   <v>       0.93705630       0.79063871       0.39006954 </v>
   <v>       0.68688729       0.28972819       0.87431720 </v>
   <v>       0.56277852       0.87066046       0.16784240 </v>
   <v>       0.43732675       0.45490491       0.69853607 </v>
   <v>       0.93779728       0.95694692       0.34598322 </v>
   <v>       0.68720768       0.62255652       0.52144260 </v>
   <v>       0.06250502       0.87132181       0.65406851 </v>
   <v>       0.06281724       0.86935618       0.78706436 </v>
   <v>       0.06257751       0.37115226       0.65402398 </v>
   <v>       0.68781159       0.45586809       0.47857905 </v>
   <v>       0.18697449       0.79168703       0.25722481 </v>
   <v>       0.43737985       0.12362197       0.43462877 </v>
   <v>       0.81298675       0.03656257       0.12587465 </v>
   <v>       0.93738406       0.62242746       0.52145967 </v>
   <v>       0.06264624       0.87297636       0.43466806 </v>
   <v>       0.81267690       0.53689683       0.12566341 </v>
   <v>       0.43685862       0.45697508       0.34611859 </v>
   <v>       0.81288919       0.20733684       0.34608368 </v>
   <v>       0.31246449       0.70727799       0.34600784 </v>
   <v>       0.68734452       0.12156876       0.65407960 </v>
   <v>       0.56283309       0.87550625       0.30154869 </v>
   <v>       0.06270634       0.53621886       0.74275400 </v>
   <v>       0.93798808       0.95752956       0.21304121 </v>
   <v>       0.81251109       0.70716238       0.21293344 </v>
   <v>       0.06191956       0.87514504       0.30154082 </v>
   <v>       0.18735317       0.12513783       0.30139523 </v>
   <v>       0.06198448       0.70719916       0.34612245 </v>
   <v>       0.81200472       0.03743188       0.60993112 </v>
   <v>       0.06241046       0.37343927       0.43459072 </v>
   <v>       0.56225535       0.20684900       0.34601009 </v>
   <v>       0.81273069       0.37526758       0.30142247 </v>
   <v>       0.56277870       0.04126478       0.25722881 </v>
   <v>       0.56234335       0.54038000       0.39012171 </v>
   <v>       0.06280296       0.20605368       0.47851707 </v>
   <v>       0.31273431       0.86846325       0.78684242 </v>
   <v>       0.93735795       0.95512324       0.69848433 </v>
   <v>       0.06245463       0.37554570       0.30134015 </v>
   <v>       0.68775101       0.62163271       0.65402406 </v>
   <v>       0.68721947       0.45602466       0.56530394 </v>
   <v>       0.43797943       0.95791739       0.21307399 </v>
   <v>       0.31210930       0.20583284       0.47852315 </v>
   <v>       0.43771451       0.12161675       0.65393952 </v>
   <v>       0.68729307       0.62348566       0.43466581 </v>
   <v>       0.81257909       0.20513577       0.69846673 </v>
   <v>       0.81222816       0.70540804       0.47850423 </v>
   <v>       0.81232779       0.87298492       0.43473931 </v>
   <v>       0.93748958       0.95515005       0.47870387 </v>
   <v>       0.56284315       0.20543352       0.47855989 </v>
   <v>       0.18723751       0.62353042       0.43475195 </v>
   <v>       0.31237559       0.03714619       0.74277806 </v>
   <v>       0.93747502       0.62121440       0.65404423 </v>
   <v>       0.56341261       0.70625587       0.83205798 </v>
   <v>       0.31244551       0.37486131       0.30149249 </v>
   <v>       0.56239216       0.70731534       0.21283172 </v>
   <v>       0.18724377       0.45570126       0.47849077 </v>
   <v>       0.31396787       0.03894801       0.87404576 </v>
   <v>       0.18719369       0.45512049       0.69846969 </v>
   <v>       0.81181904       0.53735224       0.87429818 </v>
   <v>       0.18737146       0.29043449       0.39007496 </v>
   <v>       0.43708870       0.62399792       0.43471260 </v>
   <v>       0.06247105       0.70736748       0.21287964 </v>
   <v>       0.56241901       0.37356310       0.43504315 </v>
   <v>       0.43728149       0.62289266       0.52143651 </v>
   <v>       0.81311638       0.70769781       0.83171567 </v>
   <v>       0.06284022       0.36933252       0.78700452 </v>
   <v>       0.43716615       0.28926998       0.87429568 </v>
   <v>       0.31304966       0.03694593       0.12544047 </v>
   <v>       0.68710749       0.12241599       0.43465721 </v>
   <v>       0.18701628       0.95704651       0.34601734 </v>
   <v>       0.06278462       0.20674810       0.83230870 </v>
   <v>       0.56207874       0.03691937       0.61006934 </v>
   <v>       0.68773942       0.45731654       0.21297081 </v>
   <v>       0.18754079       0.78671962       0.74280503 </v>
   <v>       0.18723746       0.62567132       0.30158048 </v>
   <v>       0.43737856       0.79088800       0.39021498 </v>
   <v>       0.43672149       0.29111452       0.25711251 </v>
   <v>       0.06388552       0.53860352       0.87427228 </v>
   <v>       0.56339685       0.03714310       0.74284791 </v>
   <v>       0.18773510       0.78802387       0.87427788 </v>
   <v>       0.93742878       0.45540076       0.47855361 </v>
   <v>       0.56304051       0.53728693       0.74256259 </v>
   <v>       0.81192874       0.20637838       0.56529473 </v>
   <v>       0.18718178       0.61887375       0.78699645 </v>
   <v>       0.06277772       0.54040223       0.39010901 </v>
   <v>       0.06263231       0.70486657       0.69850784 </v>
   <v>       0.31229250       0.54142015       0.25701984 </v>
   <v>       0.31236216       0.70653507       0.21322589 </v>
   <v>       0.31252455       0.87013957       0.16715987 </v>
   <v>       0.81263323       0.54010039       0.39013645 </v>
   <v>       0.68723133       0.45650672       0.34591522 </v>
   <v>       0.93557028       0.29014829       0.87423132 </v>
   <v>       0.43746374       0.95578587       0.47863700 </v>
   <v>       0.06374032       0.03528959       0.87418954 </v>
   <v>       0.18708861       0.79131987       0.39012373 </v>
   <v>       0.93740041       0.95527802       0.56557508 </v>
   <v>       0.56246397       0.37213891       0.52139945 </v>
   <v>       0.93723239       0.12176609       0.52128803 </v>
   <v>       0.81204770       0.86886695       0.78674425 </v>
   <v>       0.31263141       0.53635279       0.74285702 </v>
  </varray>
 </structure>
</modeling>
