unknown system                          
           1
     9.726678    0.000000    0.000000
     0.000000    8.423550    0.000000
     0.000000    0.000000   45.000000
   Fe   Mn
 274  14
Direct configuration=     1
   0.06266128  0.03531923  0.12540691
   0.31309099  0.87188158  0.65404720
   0.18744691  0.11694760  0.78717411
   0.43766059  0.29104648  0.38973454
   0.31462955  0.70707790  0.83135909
   0.81403099  0.20974785  0.83255297
   0.18813836  0.95894391  0.83223014
   0.56325088  0.20715795  0.56510123
   0.06206219  0.03529332  0.74253542
   0.81226369  0.87076440  0.52111994
   0.18962745  0.28625953  0.74245126
   0.93655515  0.45658033  0.34631202
   0.93586693  0.29083097  0.38993012
   0.81203135  0.03492096  0.87434058
   0.18599861  0.78737488  0.61011282
   0.56201236  0.04084065  0.38998646
   0.93920563  0.95936729  0.83272137
   0.31385908  0.53491129  0.87458140
   0.68873210  0.28668558  0.74238762
   0.18868043  0.61878340  0.16766260
   0.81142128  0.20620210  0.47886543
   0.81278210  0.53589898  0.61024420
   0.31254400  0.87319251  0.43467579
   0.81275590  0.04045574  0.25743858
   0.68753680  0.95551481  0.34598337
   0.93745906  0.11950760  0.16855029
   0.06344566  0.87084662  0.52111773
   0.56212437  0.54123427  0.25720736
   0.68609113  0.79094496  0.87446921
   0.56335900  0.36961100  0.16804315
   0.43731004  0.78756611  0.74284180
   0.81233863  0.70678931  0.56495131
   0.56284569  0.86788453  0.78710193
   0.68733647  0.12068853  0.52111545
   0.81355144  0.37087412  0.65417979
   0.93779786  0.45872325  0.83243913
   0.06202633  0.20605500  0.69856979
   0.43709071  0.95591275  0.69838824
   0.31306723  0.20586613  0.83203720
   0.43774807  0.62176109  0.65391102
   0.31209244  0.53612456  0.61008237
   0.93734400  0.45718934  0.56503316
   0.68782995  0.78754539  0.74283164
   0.93622253  0.79062413  0.12562792
   0.68761005  0.78956613  0.38965339
   0.93764957  0.78679812  0.74318448
   0.06317045  0.20618930  0.34595690
   0.81143465  0.04096277  0.39008072
   0.43751347  0.11719756  0.78728778
   0.06233733  0.20743034  0.21275651
   0.06176515  0.36973068  0.16810174
   0.93564023  0.79130821  0.25729777
   0.56296941  0.20511743  0.69844516
   0.68697755  0.95590013  0.69850152
   0.43756489  0.79110900  0.12543692
   0.43723792  0.95688089  0.56477808
   0.81282155  0.36816950  0.78711053
   0.68491716  0.29110955  0.25747806
   0.18798812  0.45721774  0.56494049
   0.06288168  0.86996443  0.16807936
   0.18700376  0.28683080  0.61029476
   0.56384661  0.70641558  0.34630375
   0.31212825  0.20562047  0.69856151
   0.56161998  0.53454880  0.87453114
   0.06296502  0.70679719  0.56488925
   0.68796401  0.61739700  0.78703170
   0.31178943  0.54050292  0.38974782
   0.18770585  0.62065197  0.52112478
   0.56331709  0.87399626  0.43500271
   0.43706690  0.45738019  0.56492020
   0.43741609  0.28746248  0.74280262
   0.81221217  0.87768901  0.30157674
   0.81172175  0.70645089  0.34633327
   0.43799687  0.45603345  0.83149810
   0.68758654  0.95593199  0.47874932
   0.68672598  0.45647893  0.69840578
   0.56294122  0.87132513  0.52117350
   0.56323130  0.37134756  0.65382191
   0.81301555  0.87195728  0.65396710
   0.81270217  0.37390911  0.43465726
   0.81289871  0.54087006  0.25738699
   0.68956876  0.45549628  0.83194589
   0.18806456  0.79085573  0.12543131
   0.68788034  0.29076440  0.38958594
   0.31315620  0.37116965  0.65379321
   0.31290825  0.20556285  0.34592749
   0.81279289  0.53657330  0.74288282
   0.68775194  0.95690374  0.83216331
   0.56252743  0.87176222  0.65393786
   0.31228666  0.70722310  0.56509460
   0.31233751  0.53470577  0.12538627
   0.68718969  0.95838488  0.21293400
   0.31232032  0.20723444  0.56520022
   0.18705190  0.95643043  0.47872143
   0.68807953  0.95694063  0.56502500
   0.43685797  0.78652458  0.61012992
   0.68759203  0.61924759  0.16814079
   0.31251537  0.87547428  0.30144042
   0.31268121  0.70563271  0.47871674
   0.93604052  0.28752263  0.61008055
   0.43801283  0.62642853  0.30172199
   0.81229558  0.86925947  0.16844734
   0.56313461  0.20731724  0.21276227
   0.93732672  0.61923575  0.16817784
   0.93926148  0.78957981  0.87457223
   0.56200407  0.36770719  0.78707194
   0.06198869  0.37128483  0.52116404
   0.31260647  0.36912973  0.16832402
   0.68798836  0.12508015  0.30146297
   0.44011681  0.95729944  0.83172485
   0.18632974  0.29095747  0.12546917
   0.18574200  0.29179133  0.25753561
   0.31235995  0.37332736  0.43479037
   0.56394513  0.03514405  0.12543970
   0.43627701  0.28657625  0.60996302
   0.18678731  0.45825296  0.34658479
   0.43835574  0.29143248  0.12551831
   0.68700771  0.79114037  0.25725039
   0.43713232  0.12130897  0.52116399
   0.18868615  0.29132504  0.87453975
   0.18791951  0.12179355  0.65394021
   0.93807187  0.12172152  0.65386021
   0.31255964  0.20820949  0.21286032
   0.06260882  0.03977899  0.38974454
   0.18746151  0.11723221  0.16749999
   0.06212732  0.53544429  0.61025773
   0.93764833  0.29083276  0.25734743
   0.56180713  0.53603610  0.61015240
   0.81256866  0.36992183  0.16863386
   0.68738719  0.62511527  0.30143640
   0.93667707  0.62364852  0.43508443
   0.93707344  0.61702169  0.78675105
   0.56174455  0.70499120  0.69836887
   0.06280308  0.71019559  0.83248384
   0.93783189  0.12554909  0.30148310
   0.93719158  0.78575101  0.61011882
   0.43519736  0.79151966  0.25731093
   0.31247483  0.36782338  0.78697875
   0.43738727  0.45821998  0.21280562
   0.18736388  0.12041056  0.52117595
   0.81203101  0.70602925  0.69854938
   0.06184032  0.03581777  0.61007327
   0.56236362  0.20653803  0.83159784
   0.31147724  0.87122127  0.52112697
   0.68782767  0.29035516  0.12554874
   0.18730116  0.95849611  0.21304742
   0.68585165  0.28711992  0.61015065
   0.31107575  0.03651987  0.61031407
   0.93757852  0.11707095  0.78722853
   0.43759069  0.79101107  0.87432707
   0.81264906  0.03696181  0.74280048
   0.93668949  0.45654261  0.69839247
   0.18756427  0.62213132  0.65394840
   0.31225757  0.70531372  0.69845197
   0.93699557  0.29028111  0.12554527
   0.43734707  0.45579752  0.47879386
   0.06257423  0.70594980  0.47863298
   0.93655357  0.12435013  0.43532632
   0.43735706  0.12597189  0.30173077
   0.18750958  0.12397255  0.43480804
   0.56184138  0.03413132  0.87458614
   0.18743360  0.95774930  0.56505921
   0.68927802  0.79091688  0.12560294
   0.56371456  0.53374605  0.12548586
   0.31244198  0.04014482  0.38984654
   0.68736420  0.11956585  0.16851034
   0.81258662  0.20846059  0.21250665
   0.06378692  0.54167882  0.25726613
   0.56222152  0.70584924  0.47867165
   0.06258606  0.20705504  0.56493348
   0.56224533  0.37706787  0.30156606
   0.43664945  0.95654400  0.34624056
   0.18757670  0.95600355  0.69861243
   0.43638089  0.61843098  0.16751843
   0.93742179  0.45826910  0.21291903
   0.06153132  0.53373833  0.12553140
   0.81323633  0.37183028  0.52122728
   0.93751170  0.62501827  0.30136168
   0.31320123  0.04071342  0.25697701
   0.68762135  0.78626921  0.61018395
   0.18882238  0.45844831  0.83214067
   0.43750279  0.11718514  0.16767661
   0.31191147  0.37093332  0.52113393
   0.43757205  0.61685682  0.78727907
   0.06162929  0.04117174  0.25726170
   0.56258901  0.70751502  0.56519449
   0.93768326  0.28564778  0.74259331
   0.68668477  0.11729082  0.78695660
   0.18771661  0.45815236  0.21280361
   0.93729879  0.79066597  0.38982070
   0.68636604  0.29334130  0.87457616
   0.56263431  0.86989657  0.16802188
   0.43747314  0.45614105  0.69862061
   0.93850078  0.95639589  0.34612883
   0.68667139  0.62157438  0.52111722
   0.06252226  0.87192697  0.65394943
   0.06229377  0.86824721  0.78699783
   0.06271830  0.37079359  0.65408619
   0.68769480  0.45569109  0.47878554
   0.18817260  0.79146202  0.25734098
   0.43735982  0.12336174  0.43465036
   0.81325004  0.03380072  0.12548069
   0.93728077  0.62126677  0.52120382
   0.06289173  0.87262621  0.43458534
   0.81282002  0.53400691  0.12523742
   0.43726285  0.45675430  0.34640031
   0.81275182  0.20725770  0.34646708
   0.31292291  0.70582360  0.34605578
   0.68695622  0.12200194  0.65400029
   0.56323796  0.87646237  0.30182129
   0.06343288  0.53534118  0.74277406
   0.93807006  0.95834116  0.21286273
   0.81249160  0.70795355  0.21283397
   0.06183638  0.87552075  0.30181632
   0.18760009  0.12644794  0.30179665
   0.06185084  0.70617689  0.34628496
   0.81083885  0.03632016  0.60985286
   0.06268516  0.37315280  0.43461663
   0.56245908  0.20708428  0.34628826
   0.81290751  0.37633602  0.30152891
   0.56331664  0.04210584  0.25726697
   0.56268314  0.54070123  0.38986392
   0.06286830  0.20604042  0.47863083
   0.31284013  0.86751721  0.78693875
   0.93765752  0.95608005  0.69854246
   0.06294883  0.37611414  0.30138908
   0.68772172  0.62225886  0.65398722
   0.68744565  0.45708040  0.56491189
   0.43815516  0.95862292  0.21317677
   0.31241598  0.20593744  0.47877765
   0.43837234  0.12129841  0.65372789
   0.68727626  0.62310351  0.43466344
   0.81250344  0.20616887  0.69856939
   0.81223757  0.70600870  0.47864978
   0.81171126  0.87389391  0.43488317
   0.93743694  0.95552028  0.47890459
   0.56245044  0.20582242  0.47877659
   0.18737812  0.62406920  0.43483710
   0.31243219  0.03724603  0.74269704
   0.93748364  0.62164060  0.65389971
   0.56313476  0.70761476  0.83190973
   0.31293675  0.37405136  0.30149439
   0.56239741  0.70788338  0.21271182
   0.18720962  0.45590269  0.47868486
   0.31393696  0.03577381  0.87435454
   0.18662023  0.45674608  0.69847802
   0.81117768  0.53383769  0.87460854
   0.18752549  0.29055964  0.38986666
   0.43687828  0.62405023  0.43477683
   0.06257061  0.70802633  0.21281025
   0.56199907  0.37445012  0.43530756
   0.43808352  0.62221270  0.52123459
   0.81319199  0.71027531  0.83158933
   0.06227486  0.36816412  0.78706795
   0.43755656  0.29211294  0.87479573
   0.31337943  0.03444475  0.12548272
   0.68772173  0.12112346  0.43459794
   0.18697243  0.95741855  0.34629897
   0.06334571  0.20906962  0.83283140
   0.56240444  0.03562069  0.61030151
   0.68755850  0.45810929  0.21288783
   0.18755026  0.78684644  0.74282905
   0.18737849  0.62712717  0.30177988
   0.43643626  0.79138509  0.39007467
   0.43513930  0.29234260  0.25733831
   0.06368664  0.53550011  0.87450446
   0.56374329  0.03620680  0.74272066
   0.18827740  0.79088742  0.87451520
   0.93741705  0.45566124  0.47869793
   0.56305697  0.53659052  0.74231767
   0.81235515  0.20707386  0.56491932
   0.18740891  0.61696714  0.78700125
   0.06299920  0.54052640  0.38968722
   0.06307770  0.70554095  0.69841960
   0.31281448  0.54288652  0.25688192
   0.31259803  0.70464719  0.21346436
   0.31258799  0.86957376  0.16697478
   0.81320870  0.53948958  0.39008680
   0.68613152  0.45484669  0.34603836
   0.93462352  0.29288444  0.87416299
   0.43733006  0.95642728  0.47880331
   0.06432045  0.03198831  0.87430706
   0.18673705  0.79284028  0.39013229
   0.93698699  0.95625044  0.56532686
   0.56266673  0.37076655  0.52126285
   0.93728674  0.12079388  0.52117837
   0.81146958  0.86855805  0.78665408
   0.31294342  0.53499917  0.74285093
Direct configuration=     2
   0.06250377  0.03566342  0.12547084
   0.31298505  0.87181324  0.65403640
   0.18742918  0.11736740  0.78715111
   0.43769613  0.29103426  0.38982182
   0.31436542  0.70694653  0.83143362
   0.81404267  0.20920185  0.83249470
   0.18794814  0.95855197  0.83221798
   0.56315289  0.20693530  0.56518256
   0.06207992  0.03558219  0.74260755
   0.81224207  0.87094145  0.52121927
   0.18914164  0.28641033  0.74251577
   0.93665876  0.45666929  0.34623921
   0.93609800  0.29079343  0.38998115
   0.81202057  0.03552849  0.87432492
   0.18624293  0.78739267  0.61007537
   0.56194428  0.04078300  0.39003863
   0.93919922  0.95901179  0.83266796
   0.31368700  0.53555615  0.87447496
   0.68864575  0.28681068  0.74245871
   0.18845123  0.61900441  0.16767377
   0.81147062  0.20623587  0.47877865
   0.81266895  0.53616349  0.61020515
   0.31246568  0.87320442  0.43469954
   0.81273830  0.04052908  0.25741045
   0.68754691  0.95581509  0.34597057
   0.93735216  0.11966417  0.16842861
   0.06327927  0.87103186  0.52121937
   0.56223992  0.54126234  0.25719710
   0.68637221  0.79043937  0.87441373
   0.56335659  0.36975879  0.16795089
   0.43733171  0.78750421  0.74283093
   0.81233090  0.70654217  0.56502547
   0.56275353  0.86805233  0.78708674
   0.68733864  0.12086811  0.52123229
   0.81336409  0.37098232  0.65416779
   0.93787725  0.45834358  0.83239769
   0.06205575  0.20581699  0.69855778
   0.43713593  0.95572550  0.69840288
   0.31298535  0.20582983  0.83208534
   0.43769254  0.62174404  0.65393902
   0.31207737  0.53644354  0.61004747
   0.93737936  0.45692695  0.56510629
   0.68786084  0.78748457  0.74282727
   0.93618783  0.79009069  0.12571450
   0.68757951  0.78955643  0.38974219
   0.93771686  0.78675351  0.74312168
   0.06296043  0.20639993  0.34594570
   0.81165203  0.04087709  0.39012164
   0.43750072  0.11760734  0.78724353
   0.06227362  0.20725030  0.21281130
   0.06176260  0.36984178  0.16801593
   0.93590946  0.79129290  0.25727712
   0.56286887  0.20505661  0.69843886
   0.68711483  0.95568112  0.69850064
   0.43768565  0.79040801  0.12544695
   0.43722361  0.95670698  0.56485354
   0.81284320  0.36825312  0.78708199
   0.68530258  0.29107232  0.25741408
   0.18796965  0.45695511  0.56502203
   0.06273028  0.87006310  0.16801522
   0.18701021  0.28688979  0.61024575
   0.56366997  0.70652271  0.34626233
   0.31220650  0.20544253  0.69853573
   0.56179109  0.53540728  0.87439679
   0.06292561  0.70656618  0.56497569
   0.68795150  0.61769462  0.78703698
   0.31189192  0.54053693  0.38985761
   0.18772137  0.62103714  0.52121403
   0.56307545  0.87378058  0.43496230
   0.43708434  0.45717103  0.56501181
   0.43750882  0.28745165  0.74280109
   0.81232169  0.87730853  0.30152803
   0.81188481  0.70642872  0.34626081
   0.43809485  0.45599098  0.83162768
   0.68764107  0.95603257  0.47865864
   0.68683654  0.45621713  0.69841182
   0.56285412  0.87142983  0.52123994
   0.56313409  0.37137594  0.65384401
   0.81297111  0.87183549  0.65399180
   0.81267624  0.37384522  0.43465501
   0.81285873  0.54089818  0.25734364
   0.68939836  0.45563953  0.83199317
   0.18789907  0.79024866  0.12544279
   0.68776407  0.29076511  0.38970024
   0.31302991  0.37126870  0.65383444
   0.31281778  0.20583555  0.34593077
   0.81286677  0.53654722  0.74287016
   0.68783430  0.95678546  0.83218198
   0.56254279  0.87170023  0.65394787
   0.31228376  0.70687499  0.56516178
   0.31241696  0.53532097  0.12541526
   0.68725335  0.95824438  0.21297710
   0.31231817  0.20710425  0.56525509
   0.18702400  0.95640047  0.47861549
   0.68799688  0.95676136  0.56510708
   0.43685495  0.78668433  0.61009101
   0.68762835  0.61935310  0.16807038
   0.31244458  0.87547113  0.30140423
   0.31262301  0.70556442  0.47864253
   0.93623218  0.28738786  0.61004808
   0.43799648  0.62626143  0.30166670
   0.81237374  0.86945062  0.16831322
   0.56310179  0.20719516  0.21279576
   0.93729894  0.61937833  0.16810897
   0.93900140  0.78912612  0.87455280
   0.56209047  0.36788972  0.78704917
   0.06213221  0.37161664  0.52124148
   0.31258836  0.36924924  0.16821279
   0.68799815  0.12521337  0.30145603
   0.43988261  0.95697273  0.83179731
   0.18641607  0.29041574  0.12557491
   0.18587910  0.29160295  0.25747151
   0.31232816  0.37333031  0.43475705
   0.56395151  0.03561666  0.12549840
   0.43642781  0.28672168  0.60994047
   0.18679202  0.45811349  0.34648891
   0.43838108  0.29081571  0.12560246
   0.68708780  0.79123868  0.25722990
   0.43707250  0.12156415  0.52126169
   0.18876471  0.29081593  0.87450790
   0.18788232  0.12180148  0.65398337
   0.93799584  0.12162882  0.65388571
   0.31254053  0.20798099  0.21287011
   0.06253598  0.03995535  0.38983502
   0.18732140  0.11774032  0.16755018
   0.06212824  0.53579469  0.61020587
   0.93758031  0.29076032  0.25729834
   0.56186195  0.53634229  0.61009609
   0.81256878  0.37017074  0.16847662
   0.68746940  0.62528248  0.30142475
   0.93679399  0.62360631  0.43502258
   0.93715547  0.61756479  0.78678255
   0.56178946  0.70489915  0.69836524
   0.06286608  0.70976155  0.83245750
   0.93778874  0.12557405  0.30145532
   0.93717546  0.78605759  0.61007895
   0.43561737  0.79161102  0.25729234
   0.31241827  0.36787649  0.78695860
   0.43752430  0.45798656  0.21282720
   0.18749188  0.12072927  0.52127128
   0.81212641  0.70587281  0.69854597
   0.06184010  0.03616376  0.61003423
   0.56243406  0.20644613  0.83165775
   0.31159235  0.87130461  0.52121416
   0.68784683  0.28979838  0.12565040
   0.18725052  0.95836968  0.21306381
   0.68603974  0.28715751  0.61012221
   0.31123880  0.03662207  0.61025193
   0.93765216  0.11755202  0.78722186
   0.43767589  0.79039781  0.87426047
   0.81278174  0.03698158  0.74279245
   0.93683824  0.45631717  0.69842456
   0.18758107  0.62202126  0.65395853
   0.31225703  0.70522375  0.69846122
   0.93696696  0.28972779  0.12565262
   0.43727716  0.45587743  0.47872276
   0.06256103  0.70576848  0.47858755
   0.93669107  0.12409210  0.43526876
   0.43743938  0.12572066  0.30164857
   0.18754338  0.12379169  0.43477768
   0.56207197  0.03482367  0.87448906
   0.18743236  0.95746084  0.56515548
   0.68931653  0.79032443  0.12568546
   0.56376874  0.53430315  0.12552989
   0.31248078  0.04023360  0.38992983
   0.68753735  0.11971923  0.16839051
   0.81259096  0.20820293  0.21259106
   0.06346914  0.54161654  0.25724660
   0.56226049  0.70570575  0.47861466
   0.06263056  0.20689840  0.56503498
   0.56227291  0.37673652  0.30151718
   0.43676260  0.95654033  0.34620074
   0.18750178  0.95581278  0.69861047
   0.43659577  0.61872566  0.16753590
   0.93742851  0.45812225  0.21295410
   0.06146559  0.53435622  0.12558544
   0.81309925  0.37197543  0.52129938
   0.93748819  0.62510246  0.30135556
   0.31301079  0.04071949  0.25701383
   0.68752347  0.78645619  0.61013644
   0.18859016  0.45814602  0.83217789
   0.43764728  0.11775640  0.16770853
   0.31194458  0.37114858  0.52123841
   0.43766188  0.61722873  0.78722534
   0.06172635  0.04106402  0.25725157
   0.56258358  0.70707220  0.56526313
   0.93777746  0.28586024  0.74264541
   0.68674060  0.11765406  0.78694299
   0.18752479  0.45796415  0.21283695
   0.93722146  0.79064570  0.38989499
   0.68646535  0.29250235  0.87451618
   0.56272548  0.87002049  0.16796218
   0.43742105  0.45587601  0.69859674
   0.93832375  0.95648088  0.34608700
   0.68684482  0.62184573  0.52120767
   0.06251567  0.87178213  0.65398132
   0.06242507  0.86848050  0.78701430
   0.06269984  0.37089033  0.65407606
   0.68773950  0.45572868  0.47870848
   0.18784138  0.79160762  0.25731502
   0.43736332  0.12343872  0.43464055
   0.81320132  0.03439114  0.12558008
   0.93733085  0.62158827  0.52127587
   0.06284452  0.87270923  0.43460290
   0.81278160  0.53468794  0.12534037
   0.43716527  0.45680954  0.34633761
   0.81283062  0.20727637  0.34637118
   0.31281195  0.70615332  0.34604384
   0.68705711  0.12191346  0.65401924
   0.56315212  0.87625957  0.30174863
   0.06326225  0.53550804  0.74276597
   0.93806785  0.95817685  0.21291543
   0.81251487  0.70779018  0.21286131
   0.06184905  0.87544846  0.30174159
   0.18751322  0.12611951  0.30169207
   0.06185820  0.70637799  0.34623954
   0.81111492  0.03655567  0.60986051
   0.06263279  0.37324186  0.43460860
   0.56242768  0.20699860  0.34622255
   0.81289922  0.37609168  0.30150569
   0.56317718  0.04190646  0.25725713
   0.56261574  0.54065064  0.38994425
   0.06282608  0.20604740  0.47857142
   0.31278244  0.86770248  0.78691497
   0.93757534  0.95588156  0.69852729
   0.06278676  0.37601083  0.30137253
   0.68773723  0.62212561  0.65399857
   0.68739341  0.45686541  0.56501066
   0.43812654  0.95848423  0.21316710
   0.31231097  0.20589295  0.47869028
   0.43822110  0.12138181  0.65377421
   0.68727941  0.62320222  0.43466335
   0.81252569  0.20594506  0.69854417
   0.81221786  0.70580925  0.47859174
   0.81188220  0.87366060  0.43485205
   0.93746017  0.95542536  0.47883130
   0.56259157  0.20570059  0.47869408
   0.18734961  0.62395831  0.43481736
   0.31238513  0.03720380  0.74271467
   0.93748541  0.62156349  0.65393815
   0.56321157  0.70732582  0.83196131
   0.31281424  0.37425654  0.30148983
   0.56240999  0.70778746  0.21274023
   0.18719822  0.45585050  0.47861001
   0.31395556  0.03650632  0.87427157
   0.18674560  0.45640592  0.69847507
   0.81132340  0.53468896  0.87453685
   0.18749300  0.29054782  0.38993849
   0.43693093  0.62404903  0.43476067
   0.06252779  0.70791798  0.21283197
   0.56208952  0.37426820  0.43524819
   0.43784103  0.62238016  0.52130099
   0.81318273  0.70974668  0.83162014
   0.06238497  0.36835475  0.78705186
   0.43745195  0.29145718  0.87467370
   0.31332307  0.03503887  0.12544921
   0.68755482  0.12144225  0.43461750
   0.18696309  0.95729355  0.34622951
   0.06324148  0.20857545  0.83270897
   0.56232636  0.03588261  0.61024146
   0.68762438  0.45796602  0.21291311
   0.18753387  0.78680308  0.74282172
   0.18731201  0.62685633  0.30173195
   0.43665598  0.79126200  0.39012706
   0.43548301  0.29204945  0.25728350
   0.06373133  0.53623979  0.87444975
   0.56366831  0.03642250  0.74274688
   0.18812448  0.79020566  0.87446043
   0.93741912  0.45557377  0.47863623
   0.56306727  0.53675608  0.74236735
   0.81224517  0.20694256  0.56501639
   0.18731533  0.61737050  0.78699725
   0.06294152  0.54048374  0.38980065
   0.06295146  0.70541352  0.69844105
   0.31267198  0.54257814  0.25690988
   0.31252896  0.70511886  0.21341794
   0.31256450  0.86964019  0.16702659
   0.81308310  0.53964876  0.39011291
   0.68644446  0.45523714  0.34600826
   0.93481725  0.29228491  0.87419489
   0.43738214  0.95623130  0.47873539
   0.06416989  0.03266990  0.87428437
   0.18681999  0.79249239  0.39015415
   0.93708288  0.95604453  0.56539608
   0.56259797  0.37106966  0.52131805
   0.93726333  0.12096312  0.52122133
   0.81161239  0.86859200  0.78668152
   0.31284810  0.53528574  0.74284446
Direct configuration=     3
   0.06214919  0.03643824  0.12561475
   0.31274658  0.87165939  0.65401211
   0.18738926  0.11831243  0.78709934
   0.43777614  0.29100677  0.39001829
   0.31377084  0.70665080  0.83160141
   0.81406896  0.20797274  0.83236352
   0.18751992  0.95766966  0.83219060
   0.56293228  0.20643407  0.56536563
   0.06211983  0.03623248  0.74276994
   0.81219341  0.87134001  0.52144289
   0.18804799  0.28674978  0.74266099
   0.93689198  0.45686954  0.34607531
   0.93661819  0.29070891  0.39009605
   0.81199631  0.03689614  0.87428967
   0.18679293  0.78743272  0.60999105
   0.56179101  0.04065322  0.39015606
   0.93918478  0.95821149  0.83254771
   0.31329962  0.53700783  0.87423532
   0.68845137  0.28709229  0.74261876
   0.18793527  0.61950193  0.16769892
   0.81158168  0.20631189  0.47858329
   0.81241425  0.53675894  0.61011724
   0.31228936  0.87323123  0.43475298
   0.81269868  0.04069420  0.25734711
   0.68756966  0.95649109  0.34594174
   0.93711151  0.12001663  0.16815468
   0.06290471  0.87144885  0.52144819
   0.56250005  0.54132553  0.25717401
   0.68700496  0.78930120  0.87428885
   0.56335119  0.37009148  0.16774321
   0.43738049  0.78736489  0.74280648
   0.81231349  0.70598581  0.56519242
   0.56254605  0.86843007  0.78705256
   0.68734353  0.12127238  0.52149531
   0.81294233  0.37122589  0.65414079
   0.93805598  0.45748886  0.83230442
   0.06212197  0.20528121  0.69853073
   0.43723774  0.95530396  0.69843582
   0.31280101  0.20574813  0.83219370
   0.43756755  0.62170566  0.65400207
   0.31204345  0.53716161  0.60996890
   0.93745898  0.45633628  0.56527092
   0.68793039  0.78734767  0.74281744
   0.93610973  0.78888983  0.12590941
   0.68751076  0.78953460  0.38994208
   0.93786836  0.78665306  0.74298031
   0.06248767  0.20687408  0.34592051
   0.81214140  0.04068422  0.39021377
   0.43747203  0.11852984  0.78714392
   0.06213018  0.20684501  0.21293463
   0.06175686  0.37009186  0.16782278
   0.93651554  0.79125843  0.25723062
   0.56264256  0.20491969  0.69842467
   0.68742387  0.95518810  0.69849867
   0.43795748  0.78882998  0.12546954
   0.43719141  0.95631548  0.56502342
   0.81289195  0.36844137  0.78701774
   0.68617020  0.29098849  0.25727007
   0.18792808  0.45636388  0.56520559
   0.06238945  0.87028523  0.16787082
   0.18702473  0.28702259  0.61013543
   0.56327231  0.70676389  0.34616909
   0.31238265  0.20504195  0.69847770
   0.56217629  0.53733982  0.87409436
   0.06283691  0.70604614  0.56517030
   0.68792334  0.61836460  0.78704888
   0.31212265  0.54061349  0.39010475
   0.18775631  0.62190421  0.52141495
   0.56253149  0.87329505  0.43487132
   0.43712360  0.45670019  0.56521804
   0.43771758  0.28742728  0.74279762
   0.81256822  0.87645200  0.30141839
   0.81225189  0.70637881  0.34609771
   0.43831543  0.45589535  0.83191938
   0.68776381  0.95625900  0.47845448
   0.68708541  0.45562778  0.69842542
   0.56265805  0.87166552  0.52138952
   0.56291524  0.37143984  0.65389375
   0.81287106  0.87156131  0.65404741
   0.81261787  0.37370141  0.43464994
   0.81276874  0.54096147  0.25724606
   0.68901475  0.45596200  0.83209961
   0.18752652  0.78888207  0.12546862
   0.68750233  0.29076672  0.38995754
   0.31274562  0.37149169  0.65392725
   0.31261414  0.20644942  0.34593814
   0.81303309  0.53648852  0.74284164
   0.68801970  0.95651920  0.83222402
   0.56257737  0.87156068  0.65397039
   0.31227722  0.70609134  0.56531303
   0.31259582  0.53670588  0.12548053
   0.68739666  0.95792809  0.21307411
   0.31231331  0.20681119  0.56537862
   0.18696118  0.95633301  0.47837701
   0.68781083  0.95635779  0.56529186
   0.43684813  0.78704395  0.61000341
   0.68771011  0.61959061  0.16791188
   0.31228522  0.87546403  0.30132277
   0.31249200  0.70541068  0.47847549
   0.93666364  0.28708446  0.60997499
   0.43795965  0.62588527  0.30154224
   0.81254969  0.86988092  0.16801130
   0.56302791  0.20692035  0.21287113
   0.93723641  0.61969929  0.16795395
   0.93841594  0.78810481  0.87450907
   0.56228497  0.36830062  0.78699792
   0.06245531  0.37236360  0.52141581
   0.31254759  0.36951828  0.16796240
   0.68802019  0.12551328  0.30144040
   0.43935539  0.95623726  0.83196044
   0.18661039  0.28919623  0.12581295
   0.18618776  0.29117887  0.25732722
   0.31225659  0.37333694  0.43468202
   0.56396587  0.03668055  0.12563053
   0.43676728  0.28704908  0.60988970
   0.18680264  0.45779952  0.34627309
   0.43843814  0.28942728  0.12579188
   0.68726808  0.79145998  0.25718376
   0.43693784  0.12213861  0.52148165
   0.18894154  0.28966985  0.87443620
   0.18779860  0.12181934  0.65408054
   0.93782468  0.12142013  0.65394312
   0.31249752  0.20746660  0.21289215
   0.06237202  0.04035236  0.39003869
   0.18700598  0.11888416  0.16766316
   0.06213033  0.53658352  0.61008913
   0.93742719  0.29059727  0.25718783
   0.56198537  0.53703156  0.60996933
   0.81256907  0.37073108  0.16812265
   0.68765447  0.62565892  0.30139852
   0.93705719  0.62351130  0.43488332
   0.93734011  0.61878739  0.78685346
   0.56189056  0.70469192  0.69835706
   0.06300791  0.70878445  0.83239821
   0.93769162  0.12563025  0.30139278
   0.93713916  0.78674774  0.60998920
   0.43656287  0.79181669  0.25725051
   0.31229094  0.36799605  0.78691325
   0.43783276  0.45746112  0.21287576
   0.18778001  0.12144675  0.52148588
   0.81234117  0.70552065  0.69853829
   0.06183961  0.03694264  0.60994635
   0.56259265  0.20623926  0.83179262
   0.31185146  0.87149222  0.52141042
   0.68788998  0.28854497  0.12587926
   0.18713653  0.95808506  0.21310071
   0.68646316  0.28724211  0.61005819
   0.31160587  0.03685214  0.61011205
   0.93781795  0.11863496  0.78720686
   0.43786769  0.78901726  0.87411056
   0.81308042  0.03702609  0.74277436
   0.93717311  0.45580965  0.69849680
   0.18761888  0.62177350  0.65398132
   0.31225581  0.70502120  0.69848205
   0.93690254  0.28848219  0.12589427
   0.43711978  0.45605732  0.47856273
   0.06253131  0.70536029  0.47848529
   0.93700060  0.12351123  0.43513916
   0.43762471  0.12515510  0.30146353
   0.18761947  0.12338454  0.43470933
   0.56259107  0.03638225  0.87427050
   0.18742958  0.95681147  0.56537221
   0.68940321  0.78899072  0.12587124
   0.56389069  0.53555727  0.12562900
   0.31256813  0.04043347  0.39011732
   0.68792714  0.12006452  0.16812076
   0.81260072  0.20762289  0.21278109
   0.06275378  0.54147633  0.25720262
   0.56234822  0.70538274  0.47848637
   0.06273074  0.20654579  0.56526349
   0.56233500  0.37599059  0.30140717
   0.43701733  0.95653208  0.34611110
   0.18733315  0.95538331  0.69860605
   0.43707951  0.61938901  0.16757524
   0.93744365  0.45779168  0.21303305
   0.06131763  0.53574717  0.12570710
   0.81279066  0.37230219  0.52146168
   0.93743527  0.62529199  0.30134179
   0.31258208  0.04073316  0.25709671
   0.68730312  0.78687710  0.61002949
   0.18806741  0.45746550  0.83226169
   0.43797254  0.11904240  0.16778041
   0.31201911  0.37163316  0.52147361
   0.43786410  0.61806594  0.78710439
   0.06194486  0.04082152  0.25722878
   0.56257135  0.70607535  0.56541767
   0.93798953  0.28633852  0.74276270
   0.68686627  0.11847178  0.78691235
   0.18709296  0.45754047  0.21291201
   0.93704737  0.79060007  0.39006224
   0.68668892  0.29061377  0.87438116
   0.56293070  0.87029946  0.16782777
   0.43730381  0.45527936  0.69854299
   0.93792522  0.95667220  0.34599283
   0.68723522  0.62245659  0.52141128
   0.06250085  0.87145608  0.65405313
   0.06272065  0.86900566  0.78705139
   0.06265828  0.37110811  0.65405325
   0.68784013  0.45581331  0.47853499
   0.18709576  0.79193541  0.25725658
   0.43737118  0.12361201  0.43461848
   0.81309163  0.03572027  0.12580381
   0.93744359  0.62231201  0.52143809
   0.06273824  0.87289611  0.43464243
   0.81269510  0.53622104  0.12557213
   0.43694560  0.45693391  0.34619646