       N       E                     dE             d eps       ncg     rms          rms(c)
DAV:   1     0.303228593422E+05    0.30323E+05   -0.91609E+05 27770   0.213E+03
DAV:   2     0.151118318592E+04   -0.28812E+05   -0.28221E+05 27600   0.616E+02
DAV:   3    -0.189766210649E+04   -0.34088E+04   -0.29624E+04 38560   0.297E+02
DAV:   4    -0.260901930336E+04   -0.71136E+03   -0.64770E+03 50680   0.103E+02
DAV:   5    -0.273866679640E+04   -0.12965E+03   -0.12130E+03 48210   0.422E+01    0.205E+02
RMM:   6    -0.672765237703E+04   -0.39890E+04   -0.15236E+04 47886   0.274E+02    0.765E+02
RMM:   7    -0.610843356202E+04    0.61922E+03   -0.79329E+03 49710   0.121E+02    0.579E+02
RMM:   8    -0.107023863322E+05   -0.45940E+04   -0.28564E+04 48030   0.423E+02    0.129E+03
RMM:   9    -0.136600322162E+05   -0.29576E+04   -0.25921E+04 49073   0.246E+02    0.107E+03
RMM:  10    -0.959436822176E+04    0.40657E+04   -0.12843E+04 47965   0.239E+02    0.824E+02
RMM:  11    -0.135510938822E+05   -0.39567E+04   -0.11222E+04 49741   0.207E+02    0.858E+02
RMM:  12    -0.743062447720E+04    0.61205E+04   -0.53142E+03 46898   0.142E+02    0.596E+02
RMM:  13    -0.459077759381E+04    0.28398E+04   -0.36412E+03 27735   0.136E+02    0.445E+02
RMM:  14    -0.399109813640E+04    0.59968E+03   -0.42256E+03 43933   0.153E+02    0.416E+02
RMM:  15    -0.368680474189E+04    0.30429E+03   -0.46221E+03 39613   0.110E+02    0.353E+02
RMM:  16    -0.398300068131E+04   -0.29620E+03   -0.18953E+03 42112   0.833E+01    0.377E+02
RMM:  17    -0.283550329776E+04    0.11475E+04   -0.18498E+03 41394   0.134E+02    0.252E+02
RMM:  18    -0.291724223182E+04   -0.81739E+02   -0.25312E+03 47668   0.673E+01    0.224E+02
RMM:  19    -0.322367529779E+04   -0.30643E+03   -0.13913E+03 47584   0.568E+01    0.275E+02
RMM:  20    -0.279444444021E+04    0.42923E+03   -0.80323E+02 35117   0.577E+01    0.194E+02
RMM:  21    -0.257236989612E+04    0.22207E+03   -0.95567E+02 43404   0.343E+01    0.154E+02
RMM:  22    -0.255325843699E+04    0.19111E+02   -0.55412E+02 38681   0.245E+01    0.156E+02
RMM:  23    -0.251455828055E+04    0.38700E+02   -0.32878E+02 41482   0.154E+01    0.157E+02
RMM:  24    -0.249678141341E+04    0.17777E+02   -0.17141E+02 42470   0.849E+00    0.157E+02
RMM:  25    -0.247993655350E+04    0.16845E+02   -0.81784E+01 44185   0.491E+00    0.153E+02
RMM:  26    -0.246759183639E+04    0.12345E+02   -0.34852E+01 43110   0.302E+00    0.149E+02
RMM:  27    -0.245049210308E+04    0.17100E+02   -0.48968E+01 32852   0.783E+00    0.150E+02
RMM:  28    -0.241742197359E+04    0.33070E+02   -0.50779E+01 31691   0.101E+01    0.132E+02
RMM:  29    -0.239267185598E+04    0.24750E+02   -0.38057E+01 39061   0.597E+00    0.112E+02
RMM:  30    -0.238249035469E+04    0.10182E+02   -0.32435E+01 32224   0.802E+00    0.100E+02
RMM:  31    -0.238063906856E+04    0.18513E+01   -0.22694E+01 33093   0.587E+00    0.973E+01
RMM:  32    -0.238234716317E+04   -0.17081E+01   -0.19356E+01 39765   0.372E+00    0.994E+01
RMM:  33    -0.237853973180E+04    0.38074E+01   -0.12983E+01 33009   0.503E+00    0.963E+01
RMM:  34    -0.237823046799E+04    0.30926E+00   -0.16865E+01 32712   0.590E+00    0.980E+01
RMM:  35    -0.236814179056E+04    0.10089E+02   -0.11691E+01 33362   0.465E+00    0.908E+01
RMM:  36    -0.236216554214E+04    0.59762E+01   -0.72350E+00 40809   0.253E+00    0.841E+01
RMM:  37    -0.235398714556E+04    0.81784E+01   -0.53269E+00 31594   0.356E+00    0.740E+01
RMM:  38    -0.234856720163E+04    0.54199E+01   -0.39497E+00 35187   0.235E+00    0.658E+01
RMM:  39    -0.234578485783E+04    0.27823E+01   -0.27921E+00 31210   0.266E+00    0.616E+01
RMM:  40    -0.235208078629E+04   -0.62959E+01   -0.47696E+00 30596   0.362E+00    0.707E+01
RMM:  41    -0.234519536590E+04    0.68854E+01   -0.58737E+00 37798   0.267E+00    0.613E+01
RMM:  42    -0.234119802078E+04    0.39973E+01   -0.22265E+00 32124   0.208E+00    0.559E+01
RMM:  43    -0.233666092415E+04    0.45371E+01   -0.23881E+00 31019   0.250E+00    0.481E+01
RMM:  44    -0.233658702231E+04    0.73902E-01   -0.30346E+00 37430   0.191E+00    0.481E+01
RMM:  45    -0.233518706926E+04    0.14000E+01   -0.15872E+00 33928   0.162E+00    0.454E+01
RMM:  46    -0.233643650523E+04   -0.12494E+01   -0.16867E+00 31692   0.198E+00    0.489E+01
RMM:  47    -0.233648762127E+04   -0.51116E-01   -0.11740E+00 31245   0.176E+00    0.504E+01
RMM:  48    -0.233379185023E+04    0.26958E+01   -0.15681E+00 31629   0.196E+00    0.462E+01
RMM:  49    -0.233025475788E+04    0.35371E+01   -0.22904E+00 31013   0.245E+00    0.392E+01
RMM:  50    -0.232926545010E+04    0.98931E+00   -0.25935E+00 42257   0.133E+00    0.360E+01
RMM:  51    -0.236093740953E+04   -0.31672E+02   -0.34765E+01 30049   0.106E+01    0.841E+01
RMM:  52    -0.242857674792E+04   -0.67639E+02   -0.63199E+01 33625   0.950E+00    0.125E+02
RMM:  53    -0.241542300935E+04    0.13154E+02   -0.52847E+01 43848   0.393E+00    0.119E+02
RMM:  54    -0.241866763214E+04   -0.32446E+01   -0.25556E+01 36826   0.312E+00    0.125E+02
RMM:  55    -0.241658530443E+04    0.20823E+01   -0.13988E+01 44248   0.173E+00    0.126E+02
RMM:  56    -0.235144735993E+04    0.65138E+02   -0.23867E+01 27742   0.105E+01    0.729E+01
RMM:  57    -0.235901359481E+04   -0.75662E+01   -0.39173E+01 39523   0.687E+00    0.794E+01
RMM:  58    -0.235359063052E+04    0.54230E+01   -0.14823E+01 29464   0.706E+00    0.739E+01
RMM:  59    -0.237411575740E+04   -0.20525E+02   -0.34292E+01 28943   0.110E+01    0.906E+01
RMM:  60    -0.236090062162E+04    0.13215E+02   -0.19395E+01 28533   0.874E+00    0.780E+01
RMM:  61    -0.235990832579E+04    0.99230E+00   -0.34753E+01 31603   0.913E+00    0.756E+01
RMM:  62    -0.235567757209E+04    0.42308E+01   -0.26338E+01 34168   0.708E+00    0.685E+01
RMM:  63    -0.234209102312E+04    0.13587E+02   -0.10244E+01 29701   0.578E+00    0.535E+01
RMM:  64    -0.233832935274E+04    0.37617E+01   -0.10105E+01 29215   0.610E+00    0.486E+01
RMM:  65    -0.232979022878E+04    0.85391E+01   -0.53644E+00 28282   0.490E+00    0.332E+01
RMM:  66    -0.232988975179E+04   -0.99523E-01   -0.98065E+00 29140   0.569E+00    0.337E+01
RMM:  67    -0.232765488016E+04    0.22349E+01   -0.81638E+00 31708   0.433E+00    0.256E+01
RMM:  68    -0.232680305458E+04    0.85183E+00   -0.56047E+00 34673   0.286E+00    0.219E+01
RMM:  69    -0.232564378803E+04    0.11593E+01   -0.24057E+00 36286   0.189E+00    0.156E+01
RMM:  70    -0.232551371467E+04    0.13007E+00   -0.10422E+00 30538   0.171E+00    0.147E+01
RMM:  71    -0.232700056315E+04   -0.14868E+01   -0.93451E-01 28525   0.190E+00    0.211E+01
RMM:  72    -0.232678694992E+04    0.21361E+00   -0.62938E-01 27896   0.184E+00    0.199E+01
RMM:  73    -0.232546441380E+04    0.13225E+01   -0.51621E-01 28506   0.149E+00    0.137E+01
RMM:  74    -0.232531053087E+04    0.15388E+00   -0.55030E-01 29373   0.141E+00    0.128E+01
RMM:  75    -0.232507154685E+04    0.23898E+00   -0.77209E-01 33708   0.115E+00    0.103E+01
RMM:  76    -0.232503810610E+04    0.33441E-01   -0.35592E-01 31354   0.933E-01    0.976E+00
RMM:  77    -0.232502719606E+04    0.10910E-01   -0.28389E-01 41000   0.422E-01    0.951E+00
RMM:  78    -0.232503615699E+04   -0.89609E-02   -0.11287E-01 45077   0.148E-01    0.952E+00
RMM:  79    -0.232503896562E+04   -0.28086E-02   -0.29423E-02 43741   0.560E-02    0.952E+00
RMM:  80    -0.232495714757E+04    0.81818E-01   -0.12219E-02 29989   0.197E-01    0.863E+00
RMM:  81    -0.232535429183E+04   -0.39714E+00   -0.15283E-01 28111   0.795E-01    0.122E+01
RMM:  82    -0.232525917963E+04    0.95112E-01   -0.69277E-02 27629   0.676E-01    0.113E+01
RMM:  83    -0.232523141770E+04    0.27762E-01   -0.32134E-02 32389   0.254E-01    0.111E+01
RMM:  84    -0.232519687364E+04    0.34544E-01   -0.17988E-02 28600   0.277E-01    0.108E+01
RMM:  85    -0.232518253751E+04    0.14336E-01   -0.30203E-02 27737   0.352E-01    0.108E+01
RMM:  86    -0.232637539756E+04   -0.11929E+01   -0.11299E+00 27884   0.213E+00    0.177E+01
RMM:  87    -0.232552544959E+04    0.84995E+00   -0.64938E-01 27600   0.215E+00    0.127E+01
RMM:  88    -0.232519656477E+04    0.32888E+00   -0.14593E-01 27868   0.852E-01    0.104E+01
RMM:  89    -0.232511227389E+04    0.84291E-01   -0.14496E-01 35106   0.505E-01    0.983E+00
RMM:  90    -0.232503417434E+04    0.78100E-01   -0.64838E-02 31902   0.403E-01    0.921E+00
RMM:  91    -0.232601362627E+04   -0.97945E+00   -0.12680E+00 27645   0.233E+00    0.158E+01
RMM:  92    -0.232598119546E+04    0.32431E-01   -0.97560E-01 27600   0.249E+00    0.157E+01
RMM:  93    -0.232557890836E+04    0.40229E+00   -0.42112E-01 27611   0.152E+00    0.130E+01
RMM:  94    -0.232535341686E+04    0.22549E+00   -0.27452E-01 28819   0.101E+00    0.115E+01
RMM:  95    -0.232520834921E+04    0.14507E+00   -0.19999E-01 32947   0.617E-01    0.104E+01
RMM:  96    -0.232708199243E+04   -0.18736E+01   -0.24470E+00 28440   0.306E+00    0.213E+01
RMM:  97    -0.232551789606E+04    0.15641E+01   -0.11408E+00 27600   0.275E+00    0.125E+01
RMM:  98    -0.232511234780E+04    0.40555E+00   -0.46120E-01 28701   0.138E+00    0.870E+00
RMM:  99    -0.232507037632E+04    0.41971E-01   -0.36109E-01 28829   0.116E+00    0.835E+00
RMM: 100    -0.232493666661E+04    0.13371E+00   -0.18639E-01 27655   0.942E-01
   1 F= -.23249367E+04 E0= -.23221160E+04  d E =-.232494E+04
       N       E                     dE             d eps       ncg     rms          rms(c)
DAV:   1    -0.232537827614E+04   -0.30790E+00   -0.54638E+01 30240   0.914E+00    0.101E+01
RMM:   2    -0.287331198788E+04   -0.54793E+03   -0.49752E+02 38387   0.284E+01    0.224E+02
RMM:   3    -0.266747546665E+04    0.20584E+03   -0.82939E+01 29183   0.169E+01    0.197E+02
RMM:   4    -0.254718030672E+04    0.12030E+03   -0.69032E+01 33521   0.107E+01    0.167E+02
RMM:   5    -0.234976712059E+04    0.19741E+03   -0.16937E+01 27670   0.842E+00    0.629E+01
RMM:   6    -0.233463969750E+04    0.15127E+02   -0.13499E+01 28069   0.704E+00    0.464E+01
RMM:   7    -0.233544155134E+04   -0.80185E+00   -0.31185E+01 35934   0.710E+00    0.458E+01
RMM:   8    -0.233659132057E+04   -0.11498E+01   -0.19825E+01 35260   0.571E+00    0.441E+01
RMM:   9    -0.234250525852E+04   -0.59139E+01   -0.70862E+00 28771   0.460E+00    0.565E+01
RMM:  10    -0.232880448134E+04    0.13701E+02   -0.71524E+00 34798   0.323E+00    0.253E+01
RMM:  11    -0.232659301008E+04    0.22115E+01   -0.22967E+00 27814   0.321E+00    0.174E+01
RMM:  12    -0.232531715593E+04    0.12759E+01   -0.98042E-01 29087   0.182E+00    0.935E+00
RMM:  13    -0.232534920730E+04   -0.32051E-01   -0.76096E-01 30691   0.140E+00    0.980E+00
RMM:  14    -0.232547674493E+04   -0.12754E+00   -0.91521E-01 38269   0.103E+00    0.106E+01
RMM:  15    -0.232536170152E+04    0.11504E+00   -0.45278E-01 39978   0.634E-01    0.923E+00
RMM:  16    -0.232512897099E+04    0.23273E+00   -0.16277E-01 35728   0.467E-01    0.659E+00
RMM:  17    -0.232504820193E+04    0.80769E-01   -0.61771E-02 31373   0.373E-01    0.530E+00
RMM:  18    -0.232503062149E+04    0.17580E-01   -0.62859E-02 34717   0.303E-01    0.499E+00
RMM:  19    -0.232502519255E+04    0.54289E-02   -0.30196E-02 32548   0.236E-01    0.483E+00
RMM:  20    -0.232501627688E+04    0.89157E-02   -0.24739E-02 31648   0.238E-01    0.465E+00
RMM:  21    -0.232497292217E+04    0.43355E-01   -0.20343E-02 27819   0.288E-01    0.345E+00
RMM:  22    -0.232494847614E+04    0.24446E-01   -0.20878E-02 28142   0.299E-01    0.264E+00
RMM:  23    -0.232492933329E+04    0.19143E-01   -0.36329E-02 32433   0.279E-01    0.179E+00
RMM:  24    -0.232492340363E+04    0.59297E-02   -0.13974E-02 29563   0.213E-01    0.152E+00
RMM:  25    -0.232492474566E+04   -0.13420E-02   -0.16106E-02 41460   0.107E-01    0.157E+00
RMM:  26    -0.232492674695E+04   -0.20013E-02   -0.64986E-03 31083   0.131E-01    0.166E+00
RMM:  27    -0.232492461233E+04    0.21346E-02   -0.34777E-03 28894   0.120E-01    0.150E+00
RMM:  28    -0.232492291604E+04    0.16963E-02   -0.51890E-03 30639   0.118E-01    0.134E+00
RMM:  29    -0.232492545921E+04   -0.25432E-02   -0.51546E-03 29495   0.126E-01    0.145E+00
RMM:  30    -0.232492628239E+04   -0.82318E-03   -0.50790E-03 35049   0.953E-02    0.149E+00
RMM:  31    -0.232492277075E+04    0.35116E-02   -0.37310E-03 29365   0.110E-01    0.121E+00
RMM:  32    -0.232491751350E+04    0.52572E-02   -0.22052E-03 27947   0.103E-01    0.677E-01
RMM:  33    -0.232491704751E+04    0.46599E-03   -0.17270E-03 31550   0.636E-02    0.605E-01
RMM:  34    -0.232491725552E+04   -0.20801E-03   -0.15967E-03 30114   0.672E-02    0.601E-01
RMM:  35    -0.232491706903E+04    0.18649E-03   -0.79740E-04 28007   0.588E-02    0.547E-01
RMM:  36    -0.232491714737E+04   -0.78336E-04   -0.10039E-03 37039   0.365E-02    0.543E-01
RMM:  37    -0.232491708843E+04    0.58942E-04   -0.57042E-04 32441   0.341E-02    0.512E-01
RMM:  38    -0.232491705552E+04    0.32906E-04   -0.25058E-04 29218   0.292E-02    0.491E-01
RMM:  39    -0.232491699520E+04    0.60320E-04   -0.29070E-04 33352   0.225E-02    0.478E-01
RMM:  40    -0.232491683755E+04    0.15765E-03   -0.17364E-04 28300   0.254E-02    0.447E-01
RMM:  41    -0.232491667813E+04    0.15942E-03   -0.17438E-04 28827   0.242E-02    0.414E-01
RMM:  42    -0.232491644826E+04    0.22987E-03   -0.23494E-04 34037   0.168E-02    0.353E-01
RMM:  43    -0.232491623284E+04    0.21543E-03   -0.67857E-05 22348   0.124E-02    0.294E-01
RMM:  44    -0.232491620173E+04    0.31110E-04   -0.44562E-05 20172   0.115E-02    0.283E-01
RMM:  45    -0.232491607683E+04    0.12490E-03   -0.60620E-05 22568   0.128E-02    0.234E-01
RMM:  46    -0.232491601279E+04    0.64037E-04   -0.39986E-05 19347   0.130E-02    0.205E-01
RMM:  47    -0.232491596093E+04    0.51858E-04   -0.52301E-04 36967   0.271E-02    0.172E-01
RMM:  48    -0.232491583135E+04    0.12958E-03   -0.15174E-04 28612   0.210E-02    0.736E-02
RMM:  49    -0.232491581718E+04    0.14167E-04   -0.81682E-05 23812   0.135E-02    0.543E-02
RMM:  50    -0.232491581744E+04   -0.25996E-06   -0.38642E-05 19563   0.113E-02
   2 F= -.23249158E+04 E0= -.23220992E+04  d E =0.208492E-01
       N       E                     dE             d eps       ncg     rms          rms(c)
DAV:   1    -0.232498033607E+04   -0.64519E-01   -0.14806E+02 27660   0.128E+01    0.333E+00
RMM:   2    -0.233745083865E+04   -0.12471E+02   -0.94909E+00 29708   0.589E+00    0.476E+01
RMM:   3    -0.235242034785E+04   -0.14970E+02   -0.48300E+00 32886   0.316E+00    0.685E+01
RMM:   4    -0.232898940527E+04    0.23431E+02   -0.16144E+00 27615   0.286E+00    0.256E+01
RMM:   5    -0.233165673450E+04   -0.26673E+01   -0.93244E-01 29718   0.168E+00    0.350E+01
RMM:   6    -0.232674775631E+04    0.49090E+01   -0.67481E-01 35047   0.109E+00    0.171E+01
RMM:   7    -0.232721048199E+04   -0.46273E+00   -0.17652E+00 28966   0.236E+00    0.201E+01
RMM:   8    -0.232684440518E+04    0.36608E+00   -0.14020E+00 30341   0.202E+00    0.167E+01
RMM:   9    -0.232530515800E+04    0.15392E+01   -0.49354E-01 27604   0.166E+00    0.574E+00
RMM:  10    -0.232519765426E+04    0.10750E+00   -0.28485E-01 28991   0.987E-01    0.412E+00
RMM:  11    -0.232530772731E+04   -0.11007E+00   -0.41721E-01 35541   0.785E-01    0.603E+00
RMM:  12    -0.232517375974E+04    0.13397E+00   -0.12281E-01 28209   0.671E-01    0.315E+00
RMM:  13    -0.232514023920E+04    0.33521E-01   -0.71310E-02 28702   0.517E-01    0.234E+00
RMM:  14    -0.232513863847E+04    0.16007E-02   -0.74291E-02 35485   0.334E-01    0.210E+00
RMM:  15    -0.232512419163E+04    0.14447E-01   -0.32172E-02 31177   0.288E-01    0.129E+00
RMM:  16    -0.232512060831E+04    0.35833E-02   -0.14575E-02 29072   0.240E-01    0.105E+00
RMM:  17    -0.232512086305E+04   -0.25474E-03   -0.19814E-02 36586   0.167E-01    0.986E-01
RMM:  18    -0.232511881459E+04    0.20485E-02   -0.65311E-03 28886   0.155E-01    0.736E-01
RMM:  19    -0.232511751686E+04    0.12977E-02   -0.42350E-03 29729   0.117E-01    0.578E-01
RMM:  20    -0.232511710394E+04    0.41292E-03   -0.49168E-03 35970   0.848E-02    0.438E-01
RMM:  21    -0.232511657251E+04    0.53143E-03   -0.15800E-03 29813   0.723E-02    0.321E-01
RMM:  22    -0.232511662489E+04   -0.52382E-04   -0.15542E-03 36676   0.450E-02    0.313E-01
RMM:  23    -0.232511653099E+04    0.93897E-04   -0.88505E-04 33606   0.393E-02    0.269E-01
RMM:  24    -0.232511630035E+04    0.23065E-03   -0.36510E-04 30328   0.331E-02    0.158E-01
RMM:  25    -0.232511628562E+04    0.14731E-04   -0.36875E-04 33983   0.221E-02    0.135E-01
RMM:  26    -0.232511622856E+04    0.57062E-04   -0.17874E-04 29732   0.203E-02    0.773E-02
RMM:  27    -0.232511621337E+04    0.15186E-04   -0.86127E-05 24394   0.142E-02    0.515E-02
RMM:  28    -0.232511621477E+04   -0.14049E-05   -0.48731E-05 21062   0.959E-03
   3 F= -.23251162E+04 E0= -.23222933E+04  d E =-.179548E+00
       N       E                     dE             d eps       ncg     rms          rms(c)
DAV:   1    -0.232511727687E+04   -0.10635E-02   -0.20681E+01 27840   0.478E+00    0.118E+00
RMM:   2    -0.232700939902E+04   -0.18921E+01   -0.12880E+00 30607   0.200E+00    0.188E+01
RMM:   3    -0.232859814416E+04   -0.15887E+01   -0.67614E-01 34583   0.110E+00    0.250E+01
RMM:   4    -0.232568985468E+04    0.29083E+01   -0.23577E-01 27609   0.110E+00    0.954E+00
RMM:   5    -0.232598612129E+04   -0.29627E+00   -0.13418E-01 31222   0.584E-01    0.128E+01
RMM:   6    -0.232530553751E+04    0.68058E+00   -0.91859E-02 34161   0.420E-01    0.564E+00
RMM:   7    -0.232535284474E+04   -0.47307E-01   -0.24366E-01 28671   0.895E-01    0.655E+00
RMM:   8    -0.232538124178E+04   -0.28397E-01   -0.18141E-01 30126   0.736E-01    0.642E+00
RMM:   9    -0.232515558331E+04    0.22566E+00   -0.63315E-02 27625   0.550E-01    0.195E+00
RMM:  10    -0.232514196830E+04    0.13615E-01   -0.51215E-02 31065   0.338E-01    0.144E+00
RMM:  11    -0.232514800249E+04   -0.60342E-02   -0.46280E-02 37987   0.238E-01    0.171E+00
RMM:  12    -0.232513996524E+04    0.80372E-02   -0.17414E-02 28552   0.248E-01    0.116E+00
RMM:  13    -0.232513451432E+04    0.54509E-02   -0.69835E-03 27717   0.195E-01    0.701E-01
RMM:  14    -0.232513366835E+04    0.84597E-03   -0.51887E-03 30932   0.114E-01    0.562E-01
RMM:  15    -0.232513356513E+04    0.10322E-03   -0.55567E-03 32113   0.112E-01    0.506E-01
RMM:  16    -0.232513274233E+04    0.82279E-03   -0.19183E-03 27844   0.953E-02    0.350E-01
RMM:  17    -0.232513271385E+04    0.28488E-04   -0.22447E-03 38029   0.528E-02    0.319E-01
RMM:  18    -0.232513250938E+04    0.20447E-03   -0.90491E-04 30708   0.496E-02    0.234E-01
RMM:  19    -0.232513226865E+04    0.24073E-03   -0.37553E-04 28665   0.406E-02    0.109E-01
RMM:  20    -0.232513227471E+04   -0.60614E-05   -0.42903E-04 35559   0.211E-02    0.873E-02
RMM:  21    -0.232513229544E+04   -0.20732E-04   -0.20778E-04 30469   0.190E-02    0.992E-02
RMM:  22    -0.232513226312E+04    0.32318E-04   -0.80344E-05 23193   0.156E-02    0.558E-02
RMM:  23    -0.232513226289E+04    0.23656E-06   -0.56610E-05 21331   0.938E-03
   4 F= -.23251323E+04 E0= -.23223073E+04  d E =-.195596E+00
       N       E                     dE             d eps       ncg     rms          rms(c)
DAV:   1    -0.232521041126E+04   -0.78148E-01   -0.38179E+01 27690   0.643E+00    0.160E+00
RMM:   2    -0.233041492116E+04   -0.52045E+01   -0.23546E+00 29855   0.280E+00    0.310E+01
RMM:   3    -0.233244244788E+04   -0.20275E+01   -0.11155E+00 32961   0.154E+00    0.365E+01
RMM:   4    -0.232868339983E+04    0.37590E+01   -0.46731E-01 27692   0.142E+00    0.245E+01
RMM:   5    -0.232672276656E+04    0.19606E+01   -0.32201E-01 29180   0.100E+00    0.162E+01
RMM:   6    -0.232561283472E+04    0.11099E+01   -0.24371E-01 28707   0.906E-01    0.841E+00
RMM:   7    -0.232611847233E+04   -0.50564E+00   -0.72354E-01 31033   0.130E+00    0.129E+01
RMM:   8    -0.232578884032E+04    0.32963E+00   -0.41284E-01 28960   0.119E+00    0.951E+00
RMM:   9    -0.232540927345E+04    0.37957E+00   -0.16600E-01 27602   0.968E-01    0.584E+00
RMM:  10    -0.232531005217E+04    0.99221E-01   -0.79284E-02 29054   0.504E-01    0.378E+00
RMM:  11    -0.232528027101E+04    0.29781E-01   -0.10236E-01 33466   0.420E-01    0.285E+00
RMM:  12    -0.232524615645E+04    0.34115E-01   -0.48391E-02 31834   0.316E-01    0.133E+00
RMM:  13    -0.232524491416E+04    0.12423E-02   -0.30892E-02 33450   0.225E-01    0.124E+00
RMM:  14    -0.232524422015E+04    0.69401E-03   -0.17592E-02 33606   0.183E-01    0.112E+00
RMM:  15    -0.232523979448E+04    0.44257E-02   -0.48994E-03 28097   0.147E-01    0.670E-01
RMM:  16    -0.232523845126E+04    0.13432E-02   -0.29128E-03 29567   0.982E-02    0.459E-01
RMM:  17    -0.232523853457E+04   -0.83308E-04   -0.39448E-03 32634   0.904E-02    0.427E-01
RMM:  18    -0.232523811686E+04    0.41771E-03   -0.12579E-03 28131   0.758E-02    0.327E-01
RMM:  19    -0.232523799621E+04    0.12065E-03   -0.10473E-03 32773   0.466E-02    0.277E-01
RMM:  20    -0.232523798217E+04    0.14049E-04   -0.10699E-03 33483   0.451E-02    0.255E-01
RMM:  21    -0.232523772808E+04    0.25408E-03   -0.33864E-04 28602   0.378E-02    0.128E-01
RMM:  22    -0.232523773452E+04   -0.64364E-05   -0.38445E-04 33992   0.227E-02    0.115E-01
RMM:  23    -0.232523775483E+04   -0.20312E-04   -0.25719E-04 32136   0.202E-02    0.114E-01
RMM:  24    -0.232523770439E+04    0.50443E-04   -0.91917E-05 24479   0.165E-02    0.509E-02
RMM:  25    -0.232523770547E+04   -0.10813E-05   -0.65374E-05 21978   0.816E-03
   5 F= -.23252377E+04 E0= -.23224164E+04  d E =-.105443E+00
       N       E                     dE             d eps       ncg     rms          rms(c)
DAV:   1    -0.232506704210E+04    0.17066E+00   -0.27682E+02 27690   0.174E+01    0.479E+00
RMM:   2    -0.235607656187E+04   -0.31010E+02   -0.18151E+01 28860   0.849E+00    0.723E+01
RMM:   3    -0.238165733438E+04   -0.25581E+02   -0.10462E+01 30617   0.520E+00    0.956E+01
RMM:   4    -0.234763902944E+04    0.34018E+02   -0.36126E+00 27781   0.380E+00    0.622E+01
RMM:   5    -0.234079593899E+04    0.68431E+01   -0.22844E+00 29665   0.257E+00    0.492E+01
RMM:   6    -0.232778357512E+04    0.13012E+02   -0.14587E+00 28195   0.233E+00    0.201E+01
RMM:   7    -0.233096517730E+04   -0.31816E+01   -0.35970E+00 29244   0.333E+00    0.327E+01
RMM:   8    -0.232859004691E+04    0.23751E+01   -0.22378E+00 28287   0.294E+00    0.231E+01
RMM:   9    -0.232747632544E+04    0.11137E+01   -0.11272E+00 27602   0.262E+00    0.202E+01
RMM:  10    -0.232646439783E+04    0.10119E+01   -0.52618E-01 27886   0.155E+00    0.142E+01
RMM:  11    -0.232571164455E+04    0.75275E+00   -0.42990E-01 28427   0.123E+00    0.782E+00
RMM:  12    -0.232548674987E+04    0.22489E+00   -0.30327E-01 29835   0.909E-01    0.482E+00
RMM:  13    -0.232544559695E+04    0.41153E-01   -0.31699E-01 33365   0.736E-01    0.375E+00
RMM:  14    -0.232544886049E+04   -0.32635E-02   -0.11701E-01 30180   0.570E-01    0.393E+00
RMM:  15    -0.232544726243E+04    0.15981E-02   -0.86079E-02 35167   0.355E-01    0.383E+00
RMM:  16    -0.232543548890E+04    0.11774E-01   -0.42817E-02 34980   0.263E-01    0.346E+00
RMM:  17    -0.232540365323E+04    0.31836E-01   -0.11881E-02 28336   0.222E-01    0.237E+00
RMM:  18    -0.232538884367E+04    0.14810E-01   -0.10574E-02 28325   0.211E-01    0.170E+00
RMM:  19    -0.232538096446E+04    0.78792E-02   -0.19203E-02 29512   0.245E-01    0.107E+00
RMM:  20    -0.232538080368E+04    0.16078E-03   -0.87226E-03 27691   0.213E-01    0.114E+00
RMM:  21    -0.232537990772E+04    0.89596E-03   -0.65640E-03 32761   0.112E-01    0.104E+00
RMM:  22    -0.232537806190E+04    0.18458E-02   -0.66497E-03 33891   0.110E-01    0.812E-01
RMM:  23    -0.232537661604E+04    0.14459E-02   -0.19396E-03 28346   0.933E-02    0.631E-01
RMM:  24    -0.232537615358E+04    0.46247E-03   -0.23387E-03 34144   0.652E-02    0.543E-01
RMM:  25    -0.232537499266E+04    0.11609E-02   -0.11129E-03 31058   0.527E-02    0.246E-01
RMM:  26    -0.232537488951E+04    0.10315E-03   -0.79414E-04 32504   0.380E-02    0.198E-01
RMM:  27    -0.232537493566E+04   -0.46147E-04   -0.65152E-04 36989   0.279E-02    0.199E-01
RMM:  28    -0.232537487086E+04    0.64799E-04   -0.22437E-04 29741   0.246E-02    0.155E-01
RMM:  29    -0.232537485615E+04    0.14708E-04   -0.16066E-04 28902   0.157E-02    0.135E-01
RMM:  30    -0.232537481671E+04    0.39436E-04   -0.98710E-05 25685   0.144E-02    0.885E-02
RMM:  31    -0.232537479064E+04    0.26074E-04   -0.40427E-05 19944   0.126E-02    0.421E-02
RMM:  32    -0.232537479025E+04    0.39209E-06   -0.26005E-05 18674   0.735E-03
   6 F= -.23253748E+04 E0= -.23225640E+04  d E =-.242527E+00
       N       E                     dE             d eps       ncg     rms          rms(c)
DAV:   1    -0.232541321381E+04   -0.38423E-01   -0.40332E+01 27690   0.661E+00    0.164E+00
RMM:   2    -0.232954718503E+04   -0.41340E+01   -0.22663E+00 29601   0.287E+00    0.275E+01
RMM:   3    -0.233388169194E+04   -0.43345E+01   -0.10567E+00 34096   0.145E+00    0.399E+01
RMM:   4    -0.232829924928E+04    0.55824E+01   -0.47568E-01 27726   0.142E+00    0.218E+01
RMM:   5    -0.232702352435E+04    0.12757E+01   -0.36337E-01 29294   0.106E+00    0.168E+01
RMM:   6    -0.232584345709E+04    0.11801E+01   -0.26399E-01 28021   0.102E+00    0.862E+00
RMM:   7    -0.232643434810E+04   -0.59089E+00   -0.74509E-01 35928   0.110E+00    0.138E+01
RMM:   8    -0.232615392089E+04    0.28043E+00   -0.45183E-01 28350   0.124E+00    0.110E+01
RMM:   9    -0.232559070688E+04    0.56321E+00   -0.15577E-01 27603   0.974E-01    0.519E+00
RMM:  10    -0.232552657220E+04    0.64135E-01   -0.64460E-02 28206   0.497E-01    0.406E+00
RMM:  11    -0.232549197780E+04    0.34594E-01   -0.88250E-02 31830   0.445E-01    0.301E+00
RMM:  12    -0.232545160773E+04    0.40370E-01   -0.44176E-02 29928   0.344E-01    0.132E+00
RMM:  13    -0.232545010906E+04    0.14987E-02   -0.35255E-02 34173   0.225E-01    0.118E+00
RMM:  14    -0.232545107829E+04   -0.96923E-03   -0.20500E-02 34911   0.184E-01    0.120E+00
RMM:  15    -0.232544608096E+04    0.49973E-02   -0.49776E-03 28011   0.148E-01    0.696E-01
RMM:  16    -0.232544499503E+04    0.10859E-02   -0.42425E-03 33266   0.899E-02    0.512E-01
RMM:  17    -0.232544477473E+04    0.22030E-03   -0.30179E-03 30384   0.915E-02    0.432E-01
RMM:  18    -0.232544401303E+04    0.76170E-03   -0.10427E-03 27628   0.757E-02    0.244E-01
RMM:  19    -0.232544407385E+04   -0.60823E-04   -0.10553E-03 33195   0.453E-02    0.250E-01
RMM:  20    -0.232544397413E+04    0.99719E-04   -0.63213E-04 30704   0.410E-02    0.186E-01
RMM:  21    -0.232544387702E+04    0.97114E-04   -0.29153E-04 29345   0.321E-02    0.121E-01
RMM:  22    -0.232544389539E+04   -0.18372E-04   -0.34523E-04 34092   0.188E-02    0.116E-01
RMM:  23    -0.232544389674E+04   -0.13481E-05   -0.15598E-04 28523   0.175E-02    0.975E-02
RMM:  24    -0.232544386688E+04    0.29856E-04   -0.59821E-05 21812   0.137E-02    0.511E-02
RMM:  25    -0.232544386893E+04   -0.20511E-05   -0.47195E-05 21005   0.710E-03
   7 F= -.23254439E+04 E0= -.23226376E+04  d E =-.690787E-01
       N       E                     dE             d eps       ncg     rms          rms(c)
DAV:   1    -0.232542987044E+04    0.13996E-01   -0.57819E+01 27690   0.792E+00    0.199E+00
RMM:   2    -0.233176728266E+04   -0.63374E+01   -0.32896E+00 29427   0.350E+00    0.339E+01
RMM:   3    -0.233757435047E+04   -0.58071E+01   -0.16547E+00 34807   0.175E+00    0.478E+01
RMM:   4    -0.233010424205E+04    0.74701E+01   -0.72289E-01 27727   0.175E+00    0.279E+01
RMM:   5    -0.232767608657E+04    0.24282E+01   -0.55265E-01 29511   0.129E+00    0.196E+01
RMM:   6    -0.232604808993E+04    0.16280E+01   -0.40863E-01 28005   0.127E+00    0.103E+01
RMM:   7    -0.232698283103E+04   -0.93474E+00   -0.11292E+00 36438   0.133E+00    0.171E+01
RMM:   8    -0.232652081068E+04    0.46202E+00   -0.65436E-01 28227   0.150E+00    0.134E+01
RMM:   9    -0.232571159038E+04    0.80922E+00   -0.22960E-01 27603   0.118E+00    0.660E+00
RMM:  10    -0.232561368081E+04    0.97910E-01   -0.96343E-02 28069   0.619E-01    0.521E+00
RMM:  11    -0.232554901438E+04    0.64666E-01   -0.12944E-01 31383   0.554E-01    0.370E+00
RMM:  12    -0.232548646716E+04    0.62547E-01   -0.67640E-02 29969   0.421E-01    0.155E+00
RMM:  13    -0.232548520245E+04    0.12647E-02   -0.56203E-02 34714   0.275E-01    0.142E+00
RMM:  14    -0.232548718928E+04   -0.19868E-02   -0.29662E-02 34365   0.228E-01    0.148E+00
RMM:  15    -0.232548046494E+04    0.67243E-02   -0.77300E-03 28181   0.184E-01    0.967E-01
RMM:  16    -0.232547875609E+04    0.17089E-02   -0.74406E-03 34537   0.111E-01    0.760E-01
RMM:  17    -0.232547734570E+04    0.14104E-02   -0.38762E-03 29134   0.114E-01    0.513E-01
RMM:  18    -0.232547643779E+04    0.90791E-03   -0.15503E-03 27644   0.940E-02    0.344E-01
RMM:  19    -0.232547654611E+04   -0.10832E-03   -0.16773E-03 31724   0.623E-02    0.354E-01
RMM:  20    -0.232547618784E+04    0.35828E-03   -0.92868E-04 29926   0.535E-02    0.216E-01
RMM:  21    -0.232547605331E+04    0.13453E-03   -0.49639E-04 30006   0.401E-02    0.143E-01
RMM:  22    -0.232547610234E+04   -0.49030E-04   -0.59900E-04 36560   0.262E-02    0.150E-01
RMM:  23    -0.232547610438E+04   -0.20441E-05   -0.27087E-04 30821   0.239E-02    0.132E-01
RMM:  24    -0.232547605861E+04    0.45778E-04   -0.12998E-04 26909   0.176E-02    0.840E-02
RMM:  25    -0.232547605598E+04    0.26223E-05   -0.92430E-05 24220   0.894E-03
   8 F= -.23254761E+04 E0= -.23226752E+04  d E =-.101266E+00
       N       E                     dE             d eps       ncg     rms          rms(c)
DAV:   1    -0.232549050229E+04   -0.14444E-01   -0.29019E+01 27670   0.561E+00    0.132E+00
RMM:   2    -0.233205001922E+04   -0.65595E+01   -0.20857E+00 30368   0.249E+00    0.359E+01
RMM:   3    -0.233166857323E+04    0.38145E+00   -0.64415E-01 30571   0.134E+00    0.332E+01
RMM:   4    -0.232761055339E+04    0.40580E+01   -0.33063E-01 27751   0.122E+00    0.187E+01
RMM:   5    -0.232587387294E+04    0.17367E+01   -0.21447E-01 29638   0.812E-01    0.752E+00
RMM:   6    -0.232575504285E+04    0.11883E+00   -0.29561E-01 27708   0.113E+00    0.669E+00
RMM:   7    -0.232631610973E+04   -0.56107E+00   -0.47283E-01 30315   0.113E+00    0.128E+01
RMM:   8    -0.232598384982E+04    0.33226E+00   -0.18480E-01 27980   0.846E-01    0.915E+00
RMM:   9    -0.232559423848E+04    0.38961E+00   -0.91314E-02 27615   0.706E-01    0.377E+00
RMM:  10    -0.232554428525E+04    0.49953E-01   -0.63995E-02 30660   0.405E-01    0.256E+00
RMM:  11    -0.232553489907E+04    0.93862E-02   -0.74575E-02 34319   0.359E-01    0.206E+00
RMM:  12    -0.232551792077E+04    0.16978E-01   -0.24806E-02 29362   0.284E-01    0.128E+00
RMM:  13    -0.232551634132E+04    0.15795E-02   -0.20210E-02 33667   0.179E-01    0.113E+00
RMM:  14    -0.232551432364E+04    0.20177E-02   -0.11569E-02 35460   0.134E-01    0.864E-01
RMM:  15    -0.232551153780E+04    0.27858E-02   -0.28836E-03 28648   0.108E-01    0.469E-01
RMM:  16    -0.232551125263E+04    0.28518E-03   -0.27088E-03 35096   0.647E-02    0.375E-01
RMM:  17    -0.232551092171E+04    0.33092E-03   -0.14349E-03 32589   0.555E-02    0.257E-01
RMM:  18    -0.232551072083E+04    0.20088E-03   -0.53613E-04 29448   0.461E-02    0.176E-01
RMM:  19    -0.232551082416E+04   -0.10332E-03   -0.65432E-04 31855   0.388E-02    0.210E-01
RMM:  20    -0.232551074304E+04    0.81119E-04   -0.42914E-04 29453   0.381E-02    0.153E-01
RMM:  21    -0.232551069200E+04    0.51035E-04   -0.19009E-04 28127   0.301E-02    0.119E-01
RMM:  22    -0.232551067892E+04    0.13079E-04   -0.19006E-04 29235   0.164E-02    0.984E-02
RMM:  23    -0.232551066993E+04    0.89880E-05   -0.11349E-04 26872   0.155E-02    0.776E-02
RMM:  24    -0.232551064841E+04    0.21526E-04   -0.37466E-05 19675   0.131E-02    0.344E-02
RMM:  25    -0.232551064839E+04    0.18161E-07   -0.26091E-05 18758   0.710E-03
   9 F= -.23255106E+04 E0= -.23227111E+04  d E =-.345924E-01
       N       E                     dE             d eps       ncg     rms          rms(c)
DAV:   1    -0.232544823781E+04    0.62411E-01   -0.10932E+02 27670   0.109E+01    0.268E+00
RMM:   2    -0.234700650371E+04   -0.21558E+02   -0.89192E+00 30277   0.527E+00    0.642E+01
RMM:   3    -0.234965488584E+04   -0.26484E+01   -0.26190E+00 30149   0.275E+00    0.649E+01
RMM:   4    -0.233332133327E+04    0.16334E+02   -0.12201E+00 27845   0.227E+00    0.357E+01
RMM:   5    -0.232700954463E+04    0.63118E+01   -0.84369E-01 30385   0.151E+00    0.152E+01
RMM:   6    -0.232632475813E+04    0.68479E+00   -0.96689E-01 27651   0.208E+00    0.120E+01
RMM:   7    -0.232840367876E+04   -0.20789E+01   -0.16667E+00 29858   0.219E+00    0.239E+01
RMM:   8    -0.232758295894E+04    0.82072E+00   -0.75659E-01 28318   0.166E+00    0.191E+01
RMM:   9    -0.232602568067E+04    0.15573E+01   -0.38247E-01 27601   0.148E+00    0.922E+00
RMM:  10    -0.232574122879E+04    0.28445E+00   -0.20324E-01 28708   0.881E-01    0.621E+00
RMM:  11    -0.232564276762E+04    0.98461E-01   -0.30912E-01 33877   0.741E-01    0.422E+00
RMM:  12    -0.232558818577E+04    0.54582E-01   -0.11855E-01 29745   0.592E-01    0.312E+00
RMM:  13    -0.232557799780E+04    0.10188E-01   -0.94926E-02 33125   0.412E-01    0.272E+00
RMM:  14    -0.232555752590E+04    0.20472E-01   -0.41488E-02 32930   0.295E-01    0.172E+00
RMM:  15    -0.232555042302E+04    0.71029E-02   -0.14513E-02 29600   0.222E-01    0.128E+00
RMM:  16    -0.232554942443E+04    0.99859E-03   -0.14815E-02 36120   0.144E-01    0.112E+00
RMM:  17    -0.232554443631E+04    0.49881E-02   -0.48952E-03 30922   0.114E-01    0.559E-01
RMM:  18    -0.232554365061E+04    0.78569E-03   -0.32304E-03 32324   0.838E-02    0.383E-01
RMM:  19    -0.232554438746E+04   -0.73685E-03   -0.36065E-03 31204   0.965E-02    0.505E-01
RMM:  20    -0.232554369171E+04    0.69575E-03   -0.13448E-03 28005   0.835E-02    0.352E-01
RMM:  21    -0.232554369821E+04   -0.64969E-05   -0.11315E-03 32053   0.501E-02    0.339E-01
RMM:  22    -0.232554357702E+04    0.12118E-03   -0.11723E-03 33643   0.466E-02    0.282E-01
RMM:  23    -0.232554331069E+04    0.26633E-03   -0.39939E-04 29087   0.392E-02    0.177E-01
RMM:  24    -0.232554327976E+04    0.30936E-04   -0.40514E-04 34677   0.234E-02    0.145E-01
RMM:  25    -0.232554325474E+04    0.25017E-04   -0.22158E-04 31217   0.172E-02    0.120E-01
RMM:  26    -0.232554323284E+04    0.21898E-04   -0.74055E-05 23023   0.145E-02    0.956E-02
RMM:  27    -0.232554322578E+04    0.70658E-05   -0.39102E-05 19906   0.994E-03
  10 F= -.23255432E+04 E0= -.23227462E+04  d E =-.671698E-01
       N       E                     dE             d eps       ncg     rms          rms(c)
DAV:   1    -0.232553909507E+04    0.41378E-02   -0.45898E+01 27600   0.705E+00    0.155E+00
RMM:   2    -0.233758729065E+04   -0.12048E+02   -0.30738E+00 30080   0.310E+00    0.484E+01
RMM:   3    -0.233170387595E+04    0.58834E+01   -0.86461E-01 29587   0.167E+00    0.327E+01
RMM:   4    -0.232935875560E+04    0.23451E+01   -0.44256E-01 28016   0.136E+00    0.255E+01
RMM:   5    -0.232599191454E+04    0.33668E+01   -0.29015E-01 29530   0.947E-01    0.745E+00
RMM:   6    -0.232636790677E+04   -0.37599E+00   -0.49145E-01 28135   0.143E+00    0.122E+01
RMM:   7    -0.232678738772E+04   -0.41948E+00   -0.72516E-01 34585   0.117E+00    0.152E+01
RMM:   8    -0.232586802127E+04    0.91937E+00   -0.32045E-01 27611   0.126E+00    0.702E+00
RMM:   9    -0.232565750631E+04    0.21051E+00   -0.12188E-01 27639   0.819E-01    0.392E+00
RMM:  10    -0.232564282639E+04    0.14680E-01   -0.84452E-02 31995   0.453E-01    0.367E+00
RMM:  11    -0.232561203912E+04    0.30787E-01   -0.89530E-02 34128   0.395E-01    0.251E+00
RMM:  12    -0.232558618953E+04    0.25850E-01   -0.34534E-02 29286   0.349E-01    0.155E+00
RMM:  13    -0.232558357627E+04    0.26133E-02   -0.30155E-02 34435   0.218E-01    0.133E+00
RMM:  14    -0.232557945050E+04    0.41258E-02   -0.14932E-02 33647   0.170E-01    0.914E-01
RMM:  15    -0.232557660046E+04    0.28500E-02   -0.44783E-03 28985   0.131E-01    0.559E-01
RMM:  16    -0.232557624881E+04    0.35165E-03   -0.43819E-03 36361   0.797E-02    0.467E-01
RMM:  17    -0.232557574258E+04    0.50623E-03   -0.20157E-03 32291   0.671E-02    0.319E-01
RMM:  18    -0.232557530952E+04    0.43307E-03   -0.79964E-04 29490   0.566E-02    0.168E-01
RMM:  19    -0.232557537582E+04   -0.66306E-04   -0.89541E-04 31792   0.458E-02    0.180E-01
RMM:  20    -0.232557550922E+04   -0.13339E-03   -0.78126E-04 30108   0.493E-02    0.220E-01
RMM:  21    -0.232557533848E+04    0.17073E-03   -0.29608E-04 28087   0.394E-02    0.132E-01
RMM:  22    -0.232557532147E+04    0.17015E-04   -0.32013E-04 33109   0.177E-02    0.106E-01
RMM:  23    -0.232557530848E+04    0.12983E-04   -0.14966E-04 28780   0.167E-02    0.812E-02
RMM:  24    -0.232557528833E+04    0.20155E-04   -0.58591E-05 21738   0.134E-02    0.401E-02
RMM:  25    -0.232557529164E+04   -0.33100E-05   -0.38981E-05 20071   0.781E-03
  11 F= -.23255753E+04 E0= -.23227797E+04  d E =-.320659E-01
       N       E                     dE             d eps       ncg     rms          rms(c)
DAV:   1    -0.232555639190E+04    0.18896E-01   -0.40811E+01 27600   0.665E+00    0.147E+00
RMM:   2    -0.233717741882E+04   -0.11621E+02   -0.27986E+00 30156   0.293E+00    0.476E+01
RMM:   3    -0.233092189164E+04    0.62555E+01   -0.77484E-01 29559   0.159E+00    0.305E+01
RMM:   4    -0.232918527606E+04    0.17366E+01   -0.40946E-01 28057   0.130E+00    0.249E+01
RMM:   5    -0.232595718082E+04    0.32281E+01   -0.26459E-01 29335   0.920E-01    0.692E+00
RMM:   6    -0.232625841880E+04   -0.30124E+00   -0.46284E-01 28018   0.140E+00    0.112E+01
RMM:   7    -0.232686552886E+04   -0.60711E+00   -0.71015E-01 35128   0.112E+00    0.157E+01
RMM:   8    -0.232585351032E+04    0.10120E+01   -0.29996E-01 27614   0.121E+00    0.661E+00
RMM:   9    -0.232565746599E+04    0.19604E+00   -0.11537E-01 27658   0.782E-01    0.361E+00
RMM:  10    -0.232564633166E+04    0.11134E-01   -0.85978E-02 32832   0.437E-01    0.341E+00
RMM:  11    -0.232562180196E+04    0.24530E-01   -0.87227E-02 34647   0.379E-01    0.241E+00
RMM:  12    -0.232559835061E+04    0.23451E-01   -0.31957E-02 29291   0.336E-01    0.150E+00
RMM:  13    -0.232559581374E+04    0.25369E-02   -0.28191E-02 34836   0.207E-01    0.128E+00
RMM:  14    -0.232559189653E+04    0.39172E-02   -0.13716E-02 33900   0.160E-01    0.867E-01
RMM:  15    -0.232558919699E+04    0.26995E-02   -0.38561E-03 28783   0.124E-01    0.514E-01
RMM:  16    -0.232558887942E+04    0.31757E-03   -0.37594E-03 35982   0.753E-02    0.424E-01
RMM:  17    -0.232558849838E+04    0.38104E-03   -0.18937E-03 32782   0.631E-02    0.297E-01
RMM:  18    -0.232558813449E+04    0.36389E-03   -0.74570E-04 29574   0.540E-02    0.161E-01
RMM:  19    -0.232558819949E+04   -0.65004E-04   -0.83061E-04 31770   0.442E-02    0.175E-01
RMM:  20    -0.232558831767E+04   -0.11818E-03   -0.68068E-04 29963   0.467E-02    0.213E-01
RMM:  21    -0.232558817388E+04    0.14379E-03   -0.26015E-04 28039   0.371E-02    0.139E-01
RMM:  22    -0.232558815505E+04    0.18836E-04   -0.27987E-04 32080   0.171E-02    0.115E-01
RMM:  23    -0.232558813353E+04    0.21521E-04   -0.13224E-04 27533   0.161E-02    0.790E-02
RMM:  24    -0.232558811514E+04    0.18385E-04   -0.53853E-05 21125   0.127E-02    0.416E-02
RMM:  25    -0.232558811862E+04   -0.34813E-05   -0.35106E-05 19564   0.770E-03
  12 F= -.23255881E+04 E0= -.23227937E+04  d E =-.448928E-01
       N       E                     dE             d eps       ncg     rms          rms(c)
DAV:   1    -0.232556677748E+04    0.21338E-01   -0.62275E+01 27600   0.823E+00    0.175E+00
RMM:   2    -0.234600010765E+04   -0.20433E+02   -0.42237E+00 30200   0.365E+00    0.621E+01
RMM:   3    -0.233021292543E+04    0.15787E+02   -0.10859E+00 29254   0.196E+00    0.278E+01
RMM:   4    -0.233140198900E+04   -0.11891E+01   -0.56736E-01 28531   0.143E+00    0.320E+01
RMM:   5    -0.232640599253E+04    0.49960E+01   -0.42317E-01 29731   0.110E+00    0.105E+01
RMM:   6    -0.232669050410E+04   -0.28451E+00   -0.52889E-01 28032   0.148E+00    0.142E+01
RMM:   7    -0.232699153717E+04   -0.30103E+00   -0.93025E-01 32620   0.141E+00    0.159E+01
RMM:   8    -0.232599494277E+04    0.99659E+00   -0.38921E-01 27604   0.144E+00    0.790E+00
RMM:   9    -0.232573709055E+04    0.25785E+00   -0.12996E-01 27641   0.878E-01    0.480E+00
RMM:  10    -0.232571661023E+04    0.20480E-01   -0.11443E-01 30704   0.550E-01    0.425E+00
RMM:  11    -0.232565195410E+04    0.64656E-01   -0.70407E-02 30580   0.436E-01    0.251E+00
RMM:  12    -0.232563117561E+04    0.20778E-01   -0.45537E-02 29830   0.375E-01    0.17