<?xml version="1.0" encoding="ISO-8859-1"?>
<modeling>
 <generator>
  <i name="program" type="string">vasp </i>
  <i name="version" type="string">5.4.4.18Apr17-6-g9f103f2a35  </i>
  <i name="subversion" type="string">(build May 29 2019 08:40:53) complex            parallel </i>
  <i name="platform" type="string">LinuxPGI </i>
  <i name="date" type="string">2021 11 22 </i>
  <i name="time" type="string">06:55:46 </i>
 </generator>
 <incar>
  <i type="int" name="ISTART">     2</i>
  <i type="string" name="PREC">accurate</i>
  <i type="string" name="ALGO"> Fast</i>
  <i type="int" name="ICHARG">     2</i>
  <i type="int" name="INIWAV">     1</i>
  <i type="int" name="NELM">   100</i>
  <i type="int" name="NELMIN">     4</i>
  <i type="int" name="IBRION">     2</i>
  <i name="EDIFF">      0.00001000</i>
  <i type="int" name="NSW">   500</i>
  <i type="int" name="ISIF">     2</i>
  <i type="int" name="ISYM">     2</i>
  <i name="ENCUT">    500.00000000</i>
  <i name="POTIM">      0.25000000</i>
  <i type="string" name="LREAL"> Auto</i>
  <i type="int" name="ISMEAR">     0</i>
  <i name="SIGMA">      0.15000000</i>
  <i type="logical" name="LWAVE"> F  </i>
  <i type="logical" name="LCHARG"> F  </i>
  <v type="int" name="KPOINT_BSE">    -1     0     0     0</v>
  <i type="int" name="NELM">   100</i>
 </incar>
 <structure name="primitive_cell" >
  <crystal>
   <varray name="basis" >
    <v>       9.72667800       0.00000000       0.00000000 </v>
    <v>       0.00000000       8.42355000       0.00000000 </v>
    <v>       0.00000000       0.00000000      45.00000000 </v>
   </varray>
   <i name="volume">   3686.99213101 </i>
   <varray name="rec_basis" >
    <v>       0.10281002       0.00000000       0.00000000 </v>
    <v>       0.00000000       0.11871479       0.00000000 </v>
    <v>       0.00000000       0.00000000       0.02222222 </v>
   </varray>
  </crystal>
  <varray name="positions" >
   <v>      -0.43728872      -0.12382284      -0.34547635 </v>
   <v>      -0.43762949       0.04171280      -0.38950264 </v>
   <v>       0.43815906      -0.37325281      -0.34542902 </v>
   <v>      -0.43711417      -0.28823574      -0.30120278 </v>
   <v>      -0.31201958       0.12558952      -0.34531496 </v>
   <v>      -0.31235316      -0.37357549      -0.34547236 </v>
   <v>       0.31290318      -0.12431255      -0.34543432 </v>
   <v>      -0.18737023      -0.12424727      -0.34556678 </v>
   <v>      -0.31218578      -0.20849772      -0.38949360 </v>
   <v>       0.43731575       0.12600387      -0.34527288 </v>
   <v>      -0.31322839      -0.03965307      -0.30120076 </v>
   <v>       0.43735078      -0.20929201      -0.38963299 </v>
   <v>       0.43795233      -0.03912557      -0.30115131 </v>
   <v>      -0.18679061       0.04058490      -0.38944801 </v>
   <v>       0.31308918      -0.28826748      -0.30116709 </v>
   <v>      -0.18793410      -0.28992443      -0.30101367 </v>
   <v>      -0.43751682      -0.45782591      -0.38951804 </v>
   <v>       0.31140981       0.04016312      -0.38976863 </v>
   <v>      -0.43736865       0.21005310      -0.30110161 </v>
   <v>       0.43768208       0.46213768      -0.30104249 </v>
   <v>      -0.43767254       0.37731350      -0.34534860 </v>
   <v>      -0.06350918      -0.04076873      -0.30118989 </v>
   <v>      -0.06299745      -0.37376743      -0.34544757 </v>
   <v>      -0.31288292       0.29183778      -0.38972248 </v>
   <v>      -0.31318761       0.46079843      -0.30108147 </v>
   <v>      -0.06216199       0.12508177      -0.34533542 </v>
   <v>       0.18802891      -0.37402903      -0.34542478 </v>
   <v>       0.43700635       0.29194803      -0.38975572 </v>
   <v>       0.18806826      -0.04044371      -0.30117707 </v>
   <v>      -0.06285237      -0.20880984      -0.38979388 </v>
   <v>       0.18721953       0.12626455      -0.34556065 </v>
   <v>       0.18719444      -0.20944146      -0.38970270 </v>
   <v>       0.31256963      -0.45858719      -0.38970416 </v>
   <v>      -0.18703730      -0.45849924      -0.38970134 </v>
   <v>      -0.18709243       0.21017972      -0.30104243 </v>
   <v>       0.31165435       0.21076969      -0.30114391 </v>
   <v>      -0.43735927      -0.29402457      -0.43412301 </v>
   <v>      -0.31326004      -0.20444343      -0.25644138 </v>
   <v>       0.43711490      -0.04346249      -0.43442562 </v>
   <v>      -0.31211125      -0.04342335      -0.43454348 </v>
   <v>       0.43763848      -0.20315429      -0.25628179 </v>
   <v>      -0.43814090       0.04496235      -0.25639513 </v>
   <v>       0.06174397      -0.12549201      -0.34565093 </v>
   <v>      -0.18758054       0.37646809      -0.34541186 </v>
   <v>      -0.43771131      -0.45207889      -0.25660525 </v>
   <v>       0.31280883       0.37617732      -0.34538936 </v>
   <v>      -0.43819453       0.20746761      -0.43433226 </v>
   <v>      -0.18771870      -0.29368567      -0.43423616 </v>
   <v>      -0.18768659       0.04581611      -0.25642017 </v>
   <v>       0.31322950       0.04597890      -0.25633269 </v>
   <v>       0.31252363      -0.29402841      -0.43454907 </v>
   <v>       0.06253148       0.04027579      -0.38944950 </v>
   <v>      -0.06189922       0.29113426      -0.38952069 </v>
   <v>       0.06228000      -0.28952240      -0.30122858 </v>
   <v>       0.18728580       0.29090545      -0.38985949 </v>
   <v>       0.18725509       0.46091433      -0.30125889 </v>
   <v>      -0.06244988       0.45998524      -0.30110975 </v>
   <v>       0.31390453      -0.45164137      -0.25627899 </v>
   <v>      -0.18654214       0.20703604      -0.43409105 </v>
   <v>       0.31223312       0.20596641      -0.43432052 </v>
   <v>       0.19103505      -0.20363140      -0.25624531 </v>
   <v>      -0.06245323      -0.04354094      -0.43408876 </v>
   <v>      -0.06441716      -0.20469014      -0.25638805 </v>
   <v>       0.18725590      -0.04407353      -0.43416825 </v>
   <v>      -0.18781930      -0.45426999      -0.25603704 </v>
   <v>      -0.31268886       0.45747777      -0.43445315 </v>
   <v>       0.43684302       0.45651134      -0.43443540 </v>
   <v>      -0.31154278       0.29499999      -0.25636248 </v>
   <v>       0.43738527       0.29537469      -0.25636489 </v>
   <v>       0.06171852       0.21009187      -0.30104045 </v>
   <v>       0.06246264      -0.45886623      -0.38977169 </v>
   <v>      -0.43686770      -0.12659923      -0.47847889 </v>
   <v>      -0.43804728      -0.11768722      -0.21124011 </v>
   <v>       0.06199845       0.37531527      -0.34537099 </v>
   <v>       0.06232580      -0.29328347      -0.43435532 </v>
   <v>      -0.31272053       0.12254172      -0.47860027 </v>
   <v>       0.31267424      -0.12725607      -0.47834987 </v>
   <v>       0.43769676       0.12245949      -0.47861969 </v>
   <v>       0.06322882       0.04526242      -0.25636009 </v>
   <v>      -0.18803324      -0.12653786      -0.47856233 </v>
   <v>      -0.06186424       0.45687937      -0.43428990 </v>
   <v>      -0.31216379      -0.37678481      -0.47837193 </v>
   <v>       0.18629900       0.29468045      -0.25669869 </v>
   <v>       0.43754437      -0.37732157      -0.47841808 </v>
   <v>       0.18750548       0.45684641      -0.43458305 </v>
   <v>      -0.06206002       0.29597666      -0.25644872 </v>
   <v>       0.43756363      -0.36837745      -0.21145571 </v>
   <v>       0.31267957      -0.11752364      -0.21146048 </v>
   <v>      -0.31300749      -0.36934881      -0.21090243 </v>
   <v>      -0.18927033      -0.11913961      -0.21086372 </v>
   <v>       0.43692345       0.13048195      -0.21091736 </v>
   <v>      -0.31295887       0.13146770      -0.21084215 </v>
   <v>       0.06202530       0.20627585      -0.43443419 </v>
   <v>       0.06186868      -0.45371573      -0.25615937 </v>
   <v>      -0.43779046       0.37207993      -0.47847130 </v>
   <v>       0.18736312       0.12207569      -0.47838917 </v>
   <v>      -0.06224505       0.12260219      -0.47844477 </v>
   <v>      -0.06218443      -0.37695410      -0.47849821 </v>
   <v>       0.18704561      -0.37784767      -0.47840397 </v>
   <v>      -0.06295859      -0.37046717      -0.21120409 </v>
   <v>       0.18749206      -0.36878867      -0.21117989 </v>
   <v>      -0.43699515       0.37869493      -0.21075196 </v>
   <v>       0.18769857       0.13102088      -0.21118394 </v>
   <v>      -0.06251472       0.13128933      -0.21096200 </v>
   <v>       0.31219209       0.37161540      -0.47835858 </v>
   <v>      -0.18708049       0.37258681      -0.47843098 </v>
   <v>       0.06225811      -0.12728785      -0.47830325 </v>
   <v>      -0.18776036       0.38080903      -0.21100865 </v>
   <v>       0.06305580      -0.11807551      -0.21133652 </v>
   <v>       0.31258486       0.37944743      -0.21069358 </v>
   <v>      -0.31174929      -0.04426149       0.47897662 </v>
   <v>       0.43730324      -0.04440403       0.47876358 </v>
   <v>      -0.43688134      -0.29451607       0.47890480 </v>
   <v>      -0.43532290      -0.28369237      -0.16458067 </v>
   <v>      -0.31096856      -0.03081549      -0.16488615 </v>
   <v>       0.43823387      -0.03030076      -0.16471246 </v>
   <v>      -0.43749251       0.20574983       0.47876793 </v>
   <v>      -0.18703146      -0.29419277       0.47900523 </v>
   <v>       0.31234210      -0.29488914       0.47884501 </v>
   <v>       0.31242556      -0.28312796      -0.16476007 </v>
   <v>      -0.18683913      -0.28062321      -0.16440233 </v>
   <v>      -0.43707061       0.21689890      -0.16489790 </v>
   <v>       0.31143050       0.20530074       0.47889056 </v>
   <v>      -0.06260648      -0.04445662       0.47891351 </v>
   <v>      -0.18675858       0.20586432       0.47877646 </v>
   <v>       0.18709842      -0.04388599       0.47885737 </v>
   <v>      -0.31172514       0.45548516       0.47901679 </v>
   <v>       0.43707109       0.45534515       0.47873325 </v>
   <v>       0.06270858       0.37199936      -0.47843205 </v>
   <v>       0.06093211       0.37985676      -0.21115352 </v>
   <v>       0.43776497       0.46317736      -0.16502291 </v>
   <v>      -0.06117537      -0.03123282      -0.16543622 </v>
   <v>      -0.31217629       0.46655265      -0.16433033 </v>
   <v>       0.18615957      -0.02988172      -0.16485059 </v>
   <v>      -0.18817157       0.21689721      -0.16472751 </v>
   <v>       0.31312251       0.21844191      -0.16444590 </v>
   <v>       0.06197181      -0.29515955       0.47887127 </v>
   <v>      -0.06174057       0.45549162       0.47879120 </v>
   <v>       0.18645218       0.45492292       0.47879793 </v>
   <v>      -0.06288078       0.46712939      -0.16516981 </v>
   <v>       0.06093712      -0.28171475      -0.16497716 </v>
   <v>       0.18920309       0.46596344      -0.16480094 </v>
   <v>       0.06261033       0.20610702       0.47875231 </v>
   <v>      -0.43723685      -0.12798682       0.43443358 </v>
   <v>       0.06232500       0.21666475      -0.16448576 </v>
   <v>      -0.31309430      -0.19960320      -0.12265132 </v>
   <v>       0.43639196      -0.19908061      -0.12256714 </v>
   <v>      -0.43601931       0.04701996      -0.12219276 </v>
   <v>      -0.18788415      -0.12826228       0.43446955 </v>
   <v>       0.31273442      -0.12819181       0.43442681 </v>
   <v>       0.43712614       0.12151398       0.43418436 </v>
   <v>      -0.31245185       0.12253545       0.43419620 </v>
   <v>      -0.31212939      -0.37843067       0.43451175 </v>
   <v>       0.43739719      -0.37880445       0.43427108 </v>
   <v>      -0.18861861       0.05286877      -0.12300931 </v>
   <v>      -0.43533152      -0.44818200      -0.12227007 </v>
   <v>       0.31117937       0.04884369      -0.12258440 </v>
   <v>       0.31133779      -0.45008320      -0.12241676 </v>
   <v>      -0.18831990      -0.44704435      -0.12205434 </v>
   <v>      -0.06046378      -0.19926074      -0.12245034 </v>
   <v>       0.18573906      -0.19934657      -0.12235745 </v>
   <v>       0.43373992       0.29833408      -0.12239128 </v>
   <v>      -0.30840950       0.30075189      -0.12241811 </v>
   <v>      -0.43769761       0.37172227       0.43424099 </v>
   <v>      -0.06245516       0.12132371       0.43431838 </v>
   <v>       0.18694830       0.12168473       0.43432161 </v>
   <v>       0.18753656      -0.37892199       0.43432364 </v>
   <v>      -0.06254012      -0.37845940       0.43412969 </v>
   <v>       0.31172696       0.37075938       0.43419979 </v>
   <v>      -0.18740359       0.37251799       0.43425184 </v>
   <v>       0.06232642      -0.12893298       0.43431894 </v>
   <v>       0.06343483       0.05211386      -0.12243298 </v>
   <v>       0.18813110       0.30102432      -0.12254088 </v>
   <v>      -0.06219396       0.30525572      -0.12276541 </v>
   <v>       0.06226827      -0.44689344      -0.12253529 </v>
   <v>       0.06304138       0.37137336       0.43430639 </v>
   <v>      -0.43758810       0.03726277       0.38889870 </v>
   <v>      -0.31190333      -0.21375683       0.38888007 </v>
   <v>       0.43733908      -0.21404582       0.38857856 </v>
   <v>       0.31225156       0.03765645       0.38887884 </v>
   <v>      -0.18746527       0.03729089       0.38871688 </v>
   <v>      -0.43736663      -0.46345597       0.38880918 </v>
   <v>       0.43720226       0.28648131       0.38887784 </v>
   <v>      -0.31257471       0.28800668       0.38863041 </v>
   <v>       0.18743492      -0.21357933       0.38882888 </v>
   <v>      -0.18688992      -0.46303252       0.38888238 </v>
   <v>       0.31209305      -0.46439092       0.38881443 </v>
   <v>      -0.06210844      -0.21345834       0.38852270 </v>
   <v>       0.18730751       0.28703439       0.38889292 </v>
   <v>      -0.06213535       0.28762932       0.38886032 </v>
   <v>       0.06271312       0.03790345       0.38876444 </v>
   <v>       0.06229847      -0.46318421       0.38895651 </v>
   <v>       0.43711697      -0.04851302       0.34496153 </v>
   <v>      -0.31300248      -0.04907593       0.34483709 </v>
   <v>      -0.43774263      -0.29817696       0.34493400 </v>
   <v>      -0.43790835       0.20089040       0.34467860 </v>
   <v>       0.31241066      -0.29798673       0.34490613 </v>
   <v>      -0.18727412      -0.29871247       0.34471127 </v>
   <v>      -0.18675639       0.20248091       0.34479929 </v>
   <v>       0.31204957       0.20148814       0.34461343 </v>
   <v>       0.18725345      -0.04790302       0.34466332 </v>
   <v>      -0.06234680      -0.04784892       0.34462518 </v>
   <v>       0.43686802       0.45154565       0.34486048 </v>
   <v>      -0.31167199       0.45167318       0.34475000 </v>
   <v>       0.06264835      -0.29841953       0.34498986 </v>
   <v>      -0.06220132       0.45210882       0.34517820 </v>
   <v>       0.18691651       0.45214602       0.34482551 </v>
   <v>       0.06278903       0.20314878       0.34506312 </v>
   <v>      -0.43805375      -0.13280012       0.30027819 </v>
   <v>      -0.31294744       0.11656975       0.30045035 </v>
   <v>       0.43698309       0.11596107       0.30033145 </v>
   <v>      -0.18790951      -0.13252688       0.30035733 </v>
   <v>       0.31275267      -0.13370539       0.30029498 </v>
   <v>       0.43682747      -0.38275149       0.30050422 </v>
   <v>      -0.31327442      -0.38221995       0.30033117 </v>
   <v>      -0.43835763       0.36686168       0.30049567 </v>
   <v>      -0.06266671       0.11814001       0.30067722 </v>
   <v>       0.18794837       0.11762100       0.30037928 </v>
   <v>      -0.06173023      -0.38255817       0.30065978 </v>
   <v>       0.18753912      -0.38398838       0.30063659 </v>
   <v>      -0.18653003       0.36758926       0.30076425 </v>
   <v>       0.31230292       0.36681969       0.30038510 </v>
   <v>       0.06258340      -0.13296034       0.30046765 </v>
   <v>       0.06233487       0.36733322       0.30087677 </v>
   <v>       0.43767567      -0.21878921       0.25603939 </v>
   <v>      -0.43787826       0.03117290       0.25561280 </v>
   <v>      -0.31290005      -0.21770951       0.25573902 </v>
   <v>      -0.18751968       0.03201297       0.25567287 </v>
   <v>      -0.43774234      -0.46841203       0.25606324 </v>
   <v>       0.31286687       0.03161089       0.25556254 </v>
   <v>      -0.31262480       0.28349494       0.25616555 </v>
   <v>       0.43732100       0.28191484       0.25563980 </v>
   <v>      -0.18793551      -0.46736203       0.25627882 </v>
   <v>      -0.06337169      -0.21728430       0.25579469 </v>
   <v>       0.31263931      -0.46852975       0.25586031 </v>
   <v>       0.18804980      -0.21765971       0.25540131 </v>
   <v>      -0.06247893       0.28315085       0.25628069 </v>
   <v>       0.18757223       0.28147878       0.25548563 </v>
   <v>       0.06221866       0.03274093       0.25525656 </v>
   <v>       0.06195962      -0.46843252       0.25581876 </v>
   <v>       0.43751229      -0.05360811       0.21115706 </v>
   <v>      -0.31210718      -0.05229616       0.21102193 </v>
   <v>      -0.43708126      -0.30467288       0.21104049 </v>
   <v>      -0.43730468       0.19637468       0.21121040 </v>
   <v>       0.31207060      -0.30408937       0.21119078 </v>
   <v>      -0.18680027      -0.30267651       0.21088377 </v>
   <v>       0.31231798       0.19734276       0.21113634 </v>
   <v>       0.18694015      -0.05196255       0.21117948 </v>
   <v>      -0.06269511      -0.05108177       0.21075696 </v>
   <v>       0.43713356       0.44608718       0.21110768 </v>
   <v>      -0.31143423       0.44618666       0.21103825 </v>
   <v>      -0.18646639       0.19773259       0.21018467 </v>
   <v>       0.06224925      -0.30290720       0.21059938 </v>
   <v>       0.18702950       0.44614881       0.21072503 </v>
   <v>      -0.06203165       0.44573789       0.21035664 </v>
   <v>       0.06300774       0.19802247       0.21047207 </v>
   <v>      -0.43638032       0.02451855       0.12442050 </v>
   <v>      -0.31115698      -0.22296209       0.12409013 </v>
   <v>       0.43691030      -0.22348121       0.12451300 </v>
   <v>      -0.18747165       0.02587819       0.12349699 </v>
   <v>       0.31077305       0.02439476       0.12444273 </v>
   <v>      -0.43640952      -0.47485317       0.12397965 </v>
   <v>      -0.31227332       0.27506028       0.12363745 </v>
   <v>      -0.06301158      -0.22304675       0.12346102 </v>
   <v>      -0.18664479      -0.47276358       0.12318331 </v>
   <v>       0.18596987      -0.22230522       0.12361272 </v>
   <v>       0.43840593       0.27925448       0.12421503 </v>
   <v>       0.31138335      -0.47370121       0.12368577 </v>
   <v>      -0.06167907       0.27935016       0.12258238 </v>
   <v>       0.06360884       0.02671734       0.12326526 </v>
   <v>       0.18602037       0.27662037       0.12360133 </v>
   <v>       0.06220798      -0.47156927       0.12310943 </v>
   <v>      -0.43695174      -0.13943318       0.16647233 </v>
   <v>       0.43820873       0.11019712       0.16626073 </v>
   <v>      -0.31123255       0.11056773       0.16610008 </v>
   <v>      -0.31136447      -0.39111193       0.16657221 </v>
   <v>      -0.18627524      -0.13876047       0.16612265 </v>
   <v>       0.31121297      -0.13945397       0.16609010 </v>
   <v>       0.43662230      -0.39116037       0.16624381 </v>
   <v>      -0.43796451       0.35920611       0.16597466 </v>
   <v>       0.18595830       0.10979318       0.16587449 </v>
   <v>       0.18790916      -0.39041635       0.16627917 </v>
   <v>      -0.06284100      -0.39179695       0.16596277 </v>
   <v>      -0.06176066       0.11160726       0.16533808 </v>
   <v>       0.31247510       0.36027086       0.16604297 </v>
   <v>      -0.18453352       0.35878454       0.16554711 </v>
   <v>       0.06250092      -0.13820494       0.16591782 </v>
   <v>       0.06113098       0.35809535       0.16559768 </v>
  </varray>
 </structure>
 <varray name="primitive_index" >
  <v type="int" >        1 </v>
  <v type="int" >      278 </v>
  <v type="int" >       78 </v>
  <v type="int" >      124 </v>
  <v type="int" >       63 </v>
  <v type="int" >        5 </v>
  <v type="int" >       77 </v>
  <v type="int" >      144 </v>
  <v type="int" >      229 </v>
  <v type="int" >      126 </v>
  <v type="int" >       44 </v>
  <v type="int" >       96 </v>
  <v type="int" >      249 </v>
  <v type="int" >      210 </v>
  <v type="int" >      155 </v>
  <v type="int" >      227 </v>
  <v type="int" >      171 </v>
  <v type="int" >      186 </v>
  <v type="int" >      275 </v>
  <v type="int" >        3 </v>
  <v type="int" >      105 </v>
  <v type="int" >       35 </v>
  <v type="int" >      214 </v>
  <v type="int" >      219 </v>
  <v type="int" >       37 </v>
  <v type="int" >      212 </v>
  <v type="int" >      154 </v>
  <v type="int" >       93 </v>
  <v type="int" >      134 </v>
  <v type="int" >      138 </v>
  <v type="int" >      276 </v>
  <v type="int" >      170 </v>
  <v type="int" >       25 </v>
  <v type="int" >       74 </v>
  <v type="int" >       60 </v>
  <v type="int" >      159 </v>
  <v type="int" >      183 </v>
  <v type="int" >      123 </v>
  <v type="int" >       80 </v>
  <v type="int" >      271 </v>
  <v type="int" >       75 </v>
  <v type="int" >      152 </v>
  <v type="int" >      287 </v>
  <v type="int" >      241 </v>
  <v type="int" >      224 </v>
  <v type="int" >      102 </v>
  <v type="int" >      248 </v>
  <v type="int" >      196 </v>
  <v type="int" >       26 </v>
  <v type="int" >       54 </v>
  <v type="int" >       18 </v>
  <v type="int" >       28 </v>
  <v type="int" >      110 </v>
  <v type="int" >      204 </v>
  <v type="int" >      187 </v>
  <v type="int" >      201 </v>
  <v type="int" >      280 </v>
  <v type="int" >       65 </v>
  <v type="int" >      176 </v>
  <v type="int" >      283 </v>
  <v type="int" >       64 </v>
  <v type="int" >       27 </v>
  <v type="int" >       57 </v>
  <v type="int" >      203 </v>
  <v type="int" >      115 </v>
  <v type="int" >       22 </v>
  <v type="int" >      172 </v>
  <v type="int" >       97 </v>
  <v type="int" >       36 </v>
  <v type="int" >       53 </v>
  <v type="int" >       12 </v>
  <v type="int" >      100 </v>
  <v type="int" >       16 </v>
  <v type="int" >       34 </v>
  <v type="int" >      143 </v>
  <v type="int" >        9 </v>
  <v type="int" >       47 </v>
  <v type="int" >       88 </v>
  <v type="int" >       91 </v>
  <v type="int" >       99 </v>
  <v type="int" >       32 </v>
  <v type="int" >      242 </v>
  <v type="int" >      264 </v>
  <v type="int" >      140 </v>
  <v type="int" >      132 </v>
  <v type="int" >       20 </v>
  <v type="int" >      167 </v>
  <v type="int" >      277 </v>
  <v type="int" >       49 </v>
  <v type="int" >       66 </v>
  <v type="int" >       52 </v>
  <v type="int" >      179 </v>
  <v type="int" >      116 </v>
  <v type="int" >      192 </v>
  <v type="int" >      114 </v>
  <v type="int" >      199 </v>
  <v type="int" >       81 </v>
  <v type="int" >      198 </v>
  <v type="int" >      213 </v>
  <v type="int" >      135 </v>
  <v type="int" >      200 </v>
  <v type="int" >      163 </v>
  <v type="int" >       11 </v>
  <v type="int" >       31 </v>
  <v type="int" >      235 </v>
  <v type="int" >      107 </v>
  <v type="int" >      164 </v>
  <v type="int" >      108 </v>
  <v type="int" >       33 </v>
  <v type="int" >      197 </v>
  <v type="int" >      286 </v>
  <v type="int" >      238 </v>
  <v type="int" >      175 </v>
  <v type="int" >       29 </v>
  <v type="int" >      150 </v>
  <v type="int" >       70 </v>
  <v type="int" >      157 </v>
  <v type="int" >      184 </v>
  <v type="int" >       59 </v>
  <v type="int" >      257 </v>
  <v type="int" >      247 </v>
  <v type="int" >      207 </v>
  <v type="int" >      156 </v>
  <v type="int" >      269 </v>
  <v type="int" >       85 </v>
  <v type="int" >      118 </v>
  <v type="int" >      121 </v>
  <v type="int" >      208 </v>
  <v type="int" >      188 </v>
  <v type="int" >       86 </v>
  <v type="int" >       46 </v>
  <v type="int" >      133 </v>
  <v type="int" >      218 </v>
  <v type="int" >      194 </v>
  <v type="int" >       39 </v>
  <v type="int" >      180 </v>
  <v type="int" >      120 </v>
  <v type="int" >      130 </v>
  <v type="int" >      113 </v>
  <v type="int" >       50 </v>
  <v type="int" >        6 </v>
  <v type="int" >      225 </v>
  <v type="int" >      151 </v>
  <v type="int" >      243 </v>
  <v type="int" >      252 </v>
  <v type="int" >      281 </v>
  <v type="int" >       43 </v>
  <v type="int" >      234 </v>
  <v type="int" >      217 </v>
  <v type="int" >       61 </v>
  <v type="int" >      119 </v>
  <v type="int" >      148 </v>
  <v type="int" >      215 </v>
  <v type="int" >      166 </v>
  <v type="int" >       58 </v>
  <v type="int" >      254 </v>
  <v type="int" >      162 </v>
  <v type="int" >      279 </v>
  <v type="int" >      209 </v>
  <v type="int" >       10 </v>
  <v type="int" >      233 </v>
  <v type="int" >       23 </v>
  <v type="int" >       98 </v>
  <v type="int" >      256 </v>
  <v type="int" >       42 </v>
  <v type="int" >       62 </v>
  <v type="int" >      190 </v>
  <v type="int" >      191 </v>
  <v type="int" >       67 </v>
  <v type="int" >       94 </v>
  <v type="int" >      239 </v>
  <v type="int" >      160 </v>
  <v type="int" >       51 </v>
  <v type="int" >       56 </v>
  <v type="int" >      273 </v>
  <v type="int" >      139 </v>
  <v type="int" >      145 </v>
  <v type="int" >      265 </v>
  <v type="int" >      185 </v>
  <v type="int" >      173 </v>
  <v type="int" >      222 </v>
  <v type="int" >      223 </v>
  <v type="int" >       76 </v>
  <v type="int" >      272 </v>
  <v type="int" >      226 </v>
  <v type="int" >      232 </v>
  <v type="int" >       79 </v>
  <v type="int" >       13 </v>
  <v type="int" >      245 </v>
  <v type="int" >       55 </v>
  <v type="int" >      216 </v>
  <v type="int" >      178 </v>
  <v type="int" >      284 </v>
  <v type="int" >      161 </v>
  <v type="int" >      263 </v>
  <v type="int" >      231 </v>
  <v type="int" >       41 </v>
  <v type="int" >       38 </v>
  <v type="int" >      221 </v>
  <v type="int" >      141 </v>
  <v type="int" >      131 </v>
  <v type="int" >       15 </v>
  <v type="int" >      128 </v>
  <v type="int" >       82 </v>
  <v type="int" >      267 </v>
  <v type="int" >       72 </v>
  <v type="int" >      109 </v>
  <v type="int" >      255 </v>
  <v type="int" >      206 </v>
  <v type="int" >      230 </v>
  <v type="int" >      103 </v>
  <v type="int" >       40 </v>
  <v type="int" >       83 </v>
  <v type="int" >       24 </v>
  <v type="int" >      282 </v>
  <v type="int" >      174 </v>
  <v type="int" >       69 </v>
  <v type="int" >        4 </v>
  <v type="int" >      193 </v>
  <v type="int" >      129 </v>
  <v type="int" >      182 </v>
  <v type="int" >      104 </v>
  <v type="int" >      177 </v>
  <v type="int" >      220 </v>
  <v type="int" >      266 </v>
  <v type="int" >      137 </v>
  <v type="int" >      136 </v>
  <v type="int" >      211 </v>
  <v type="int" >      142 </v>
  <v type="int" >       92 </v>
  <v type="int" >      270 </v>
  <v type="int" >      158 </v>
  <v type="int" >      169 </v>
  <v type="int" >      168 </v>
  <v type="int" >      181 </v>
  <v type="int" >      127 </v>
  <v type="int" >       19 </v>
  <v type="int" >      147 </v>
  <v type="int" >       84 </v>
  <v type="int" >      165 </v>
  <v type="int" >      237 </v>
  <v type="int" >       71 </v>
  <v type="int" >      205 </v>
  <v type="int" >      101 </v>
  <v type="int" >       21 </v>
  <v type="int" >      125 </v>
  <v type="int" >        2 </v>
  <v type="int" >      288 </v>
  <v type="int" >      246 </v>
  <v type="int" >      262 </v>
  <v type="int" >       73 </v>
  <v type="int" >      153 </v>
  <v type="int" >       68 </v>
  <v type="int" >      202 </v>
  <v type="int" >      259 </v>
  <v type="int" >       30 </v>
  <v type="int" >      146 </v>
  <v type="int" >      149 </v>
  <v type="int" >      258 </v>
  <v type="int" >        8 </v>
  <v type="int" >      189 </v>
  <v type="int" >      261 </v>
  <v type="int" >       95 </v>
  <v type="int" >      253 </v>
  <v type="int" >      240 </v>
  <v type="int" >      251 </v>
  <v type="int" >      106 </v>
  <v type="int" >      117 </v>
  <v type="int" >      274 </v>
  <v type="int" >       87 </v>
  <v type="int" >      112 </v>
  <v type="int" >       17 </v>
  <v type="int" >       89 </v>
  <v type="int" >       90 </v>
  <v type="int" >      236 </v>
  <v type="int" >       45 </v>
  <v type="int" >      228 </v>
  <v type="int" >      195 </v>
  <v type="int" >       48 </v>
  <v type="int" >      285 </v>
  <v type="int" >      250 </v>
  <v type="int" >       14 </v>
  <v type="int" >      111 </v>
  <v type="int" >        7 </v>
  <v type="int" >      268 </v>
  <v type="int" >      122 </v>
  <v type="int" >      244 </v>
  <v type="int" >      260 </v>
 </varray>
 <kpoints>
  <generation param="Gamma">
   <v type="int" name="divisions">       4        4        1 </v>
   <v name="usershift">      0.00000000       0.00000000       0.00000000 </v>
   <v name="genvec1">      0.25000000       0.00000000       0.00000000 </v>
   <v name="genvec2">      0.00000000       0.25000000       0.00000000 </v>
   <v name="genvec3">      0.00000000       0.00000000       1.00000000 </v>
   <v name="shift">      0.00000000       0.00000000       0.00000000 </v>
  </generation>
  <varray name="kpointlist" >
   <v>       0.00000000       0.00000000       0.00000000 </v>
   <v>       0.25000000       0.00000000       0.00000000 </v>
   <v>       0.50000000       0.00000000       0.00000000 </v>
   <v>       0.00000000       0.25000000       0.00000000 </v>
   <v>       0.25000000       0.25000000       0.00000000 </v>
   <v>       0.50000000       0.25000000       0.00000000 </v>
   <v>      -0.25000000       0.25000000       0.00000000 </v>
   <v>       0.00000000       0.50000000       0.00000000 </v>
   <v>       0.25000000       0.50000000       0.00000000 </v>
   <v>       0.50000000       0.50000000       0.00000000 </v>
  </varray>
  <varray name="weights" >
   <v>       0.06250000 </v>
   <v>       0.12500000 </v>
   <v>       0.06250000 </v>
   <v>       0.12500000 </v>
   <v>       0.12500000 </v>
   <v>       0.12500000 </v>
   <v>       0.12500000 </v>
   <v>       0.06250000 </v>
   <v>       0.12500000 </v>
   <v>       0.06250000 </v>
  </varray>
 </kpoints>
 <parameters>
  <separator name="general" >
   <i type="string" name="SYSTEM">unknown system</i>
   <i type="logical" name="LCOMPAT"> F  </i>
  </separator>
  <separator name="electronic" >
   <i type="string" name="PREC">accura</i>
   <i name="ENMAX">    500.00000000</i>
   <i name="ENAUG">    838.43500000</i>
   <i name="EDIFF">      0.00001000</i>
   <i type="int" name="IALGO">    68</i>
   <i type="int" name="IWAVPR">    11</i>
   <i type="int" name="NBANDS">  1380</i>
   <i name="NELECT">   2289.00000000</i>
   <i type="int" name="TURBO">     0</i>
   <i type="int" name="IRESTART">     0</i>
   <i type="int" name="NREBOOT">     0</i>
   <i type="int" name="NMIN">     0</i>
   <i name="EREF">      0.00000000</i>
   <separator name="electronic smearing" >
    <i type="int" name="ISMEAR">     0</i>
    <i name="SIGMA">      0.15000000</i>
    <i name="KSPACING">      0.50000000</i>
    <i type="logical" name="KGAMMA"> T  </i>
   </separator>
   <separator name="electronic projectors" >
    <i type="logical" name="LREAL"> T  </i>
    <v name="ROPT">     -0.00025000     -0.00025000</v>
    <i type="int" name="LMAXPAW">  -100</i>
    <i type="int" name="LMAXMIX">     2</i>
    <i type="logical" name="NLSPLINE"> F  </i>
   </separator>
   <separator name="electronic startup" >
    <i type="int" name="ISTART">     0</i>
    <i type="int" name="ICHARG">     2</i>
    <i type="int" name="INIWAV">     1</i>
   </separator>
   <separator name="electronic spin" >
    <i type="int" name="ISPIN">     1</i>
    <i type="logical" name="LNONCOLLINEAR"> F  </i>
    <v name="MAGMOM">      1.00000000      1.00000000      1.00000000      1.00000000      1.00000000      1.00000000      1.00000000      1.00000000      1.00000000      1.00000000      1.00000000      1.00000000      1.00000000      1.00000000      1.00000000      1.00000000      1.00000000      1.00000000      1.00000000      1.00000000
      1.00000000      1.00000000      1.00000000      1.00000000      1.00000000      1.00000000      1.00000000      1.00000000      1.00000000      1.00000000      1.00000000      1.00000000      1.00000000      1.00000000      1.00000000      1.00000000      1.00000000      1.00000000      1.00000000      1.00000000
      1.00000000      1.00000000      1.00000000      1.00000000      1.00000000      1.00000000      1.00000000      1.00000000      1.00000000      1.00000000      1.00000000      1.00000000      1.00000000      1.00000000      1.00000000      1.00000000      1.00000000      1.00000000      1.00000000      1.00000000
      1.00000000      1.00000000      1.00000000      1.00000000      1.00000000      1.00000000      1.00000000      1.00000000      1.00000000      1.00000000      1.00000000      1.00000000      1.00000000      1.00000000      1.00000000      1.00000000      1.00000000      1.00000000      1.00000000      1.00000000
      1.00000000      1.00000000      1.00000000      1.00000000      1.00000000      1.00000000      1.00000000      1.00000000      1.00000000      1.00000000      1.00000000      1.00000000      1.00000000      1.00000000      1.00000000      1.00000000      1.00000000      1.00000000      1.00000000      1.00000000
      1.00000000      1.00000000      1.00000000      1.00000000      1.00000000      1.00000000      1.00000000      1.00000000      1.00000000      1.00000000      1.00000000      1.00000000      1.00000000      1.00000000      1.00000000      1.00000000      1.00000000      1.00000000      1.00000000      1.00000000
      1.00000000      1.00000000      1.00000000      1.00000000      1.00000000      1.00000000      1.00000000      1.00000000      1.00000000      1.00000000      1.00000000      1.00000000      1.00000000      1.00000000      1.00000000      1.00000000      1.00000000      1.00000000      1.00000000      1.00000000
      1.00000000      1.00000000      1.00000000      1.00000000      1.00000000      1.00000000      1.00000000      1.00000000      1.00000000      1.00000000      1.00000000      1.00000000      1.00000000      1.00000000      1.00000000      1.00000000      1.00000000      1.00000000      1.00000000      1.00000000
      1.00000000      1.00000000      1.00000000      1.00000000      1.00000000      1.00000000      1.00000000      1.00000000      1.00000000      1.00000000      1.00000000      1.00000000      1.00000000      1.00000000      1.00000000      1.00000000      1.00000000      1.00000000      1.00000000      1.00000000
      1.00000000      1.00000000      1.00000000      1.00000000      1.00000000      1.00000000      1.00000000      1.00000000      1.00000000      1.00000000      1.00000000      1.00000000      1.00000000      1.00000000      1.00000000      1.00000000      1.00000000      1.00000000      1.00000000      1.00000000
      1.00000000      1.00000000      1.00000000      1.00000000      1.00000000      1.00000000      1.00000000      1.00000000      1.00000000      1.00000000      1.00000000      1.00000000      1.00000000      1.00000000      1.00000000      1.00000000      1.00000000      1.00000000      1.00000000      1.00000000
      1.00000000      1.00000000      1.00000000      1.00000000      1.00000000      1.00000000      1.00000000      1.00000000      1.00000000      1.00000000      1.00000000      1.00000000      1.00000000      1.00000000      1.00000000      1.00000000      1.00000000      1.00000000      1.00000000      1.00000000
      1.00000000      1.00000000      1.00000000      1.00000000      1.00000000      1.00000000      1.00000000      1.00000000      1.00000000      1.00000000      1.00000000      1.00000000      1.00000000      1.00000000      1.00000000      1.00000000      1.00000000      1.00000000      1.00000000      1.00000000
      1.00000000      1.00000000      1.00000000      1.00000000      1.00000000      1.00000000      1.00000000      1.00000000      1.00000000      1.00000000      1.00000000      1.00000000      1.00000000      1.00000000      1.00000000      1.00000000      1.00000000      1.00000000      1.00000000      1.00000000
      1.00000000      1.00000000      1.00000000      1.00000000      1.00000000      1.00000000      1.00000000      1.00000000</v>
    <i name="NUPDOWN">     -1.00000000</i>
    <i type="logical" name="LSORBIT"> F  </i>
    <v name="SAXIS">      0.00000000      0.00000000      1.00000000</v>
    <i type="logical" name="LSPIRAL"> F  </i>
    <v name="QSPIRAL">      0.00000000      0.00000000      0.00000000</v>
    <i type="logical" name="LZEROZ"> F  </i>
   </separator>
   <separator name="electronic exchange-correlation" >
    <i type="logical" name="LASPH"> F  </i>
    <i type="logical" name="LMETAGGA"> F  </i>
   </separator>
   <separator name="electronic convergence" >
    <i type="int" name="NELM">   100</i>
    <i type="int" name="NELMDL">     0</i>
    <i type="int" name="NELMIN">     4</i>
    <i name="ENINI">    500.00000000</i>
    <separator name="electronic convergence detail" >
     <i type="logical" name="LDIAG"> T  </i>
     <i type="logical" name="LSUBROT"> F  </i>
     <i name="WEIMIN">      0.00100000</i>
     <i name="EBREAK">      0.00000000</i>
     <i name="DEPER">      0.30000000</i>
     <i type="int" name="NRMM">     4</i>
     <i name="TIME">      0.40000000</i>
    </separator>
   </separator>
   <separator name="electronic mixer" >
    <i name="AMIX">      0.40000000</i>
    <i name="BMIX">      1.00000000</i>
    <i name="AMIN">      0.10000000</i>
    <i name="AMIX_MAG">      1.60000000</i>
    <i name="BMIX_MAG">      1.00000000</i>
    <separator name="electronic mixer details" >
     <i type="int" name="IMIX">     4</i>
     <i type="logical" name="MIXFIRST"> F  </i>
     <i type="int" name="MAXMIX">   -45</i>
     <i name="WC">    100.00000000</i>
     <i type="int" name="INIMIX">     1</i>
     <i type="int" name="MIXPRE">     1</i>
     <i type="int" name="MREMOVE">     5</i>
    </separator>
   </separator>
   <separator name="electronic dipolcorrection" >
    <i type="logical" name="LDIPOL"> F  </i>
    <i type="logical" name="LMONO"> F  </i>
    <i type="int" name="IDIPOL">     0</i>
    <i name="EPSILON">      1.00000000</i>
    <v name="DIPOL">   -100.00000000   -100.00000000   -100.00000000</v>
    <i name="EFIELD">      0.00000000</i>
   </separator>
  </separator>
  <separator name="grids" >
   <i type="int" name="NGX">    72</i>
   <i type="int" name="NGY">    64</i>
   <i type="int" name="NGZ">   336</i>
   <i type="int" name="NGXF">   144</i>
   <i type="int" name="NGYF">   128</i>
   <i type="int" name="NGZF">   672</i>
   <i type="logical" name="ADDGRID"> F  </i>
  </separator>
  <separator name="ionic" >
   <i type="int" name="NSW">   500</i>
   <i type="int" name="IBRION">     2</i>
   <i type="int" name="MDALGO">     0</i>
   <i type="int" name="ISIF">     2</i>
   <i name="PSTRESS">      0.00000000</i>
   <i name="EDIFFG">      0.00010000</i>
   <i type="int" name="NFREE">     1</i>
   <i name="POTIM">      0.25000000</i>
   <i name="SMASS">     -3.00000000</i>
   <i name="SCALEE">      1.00000000</i>
  </separator>
  <separator name="ionic md" >
   <i name="TEBEG">      0.00010000</i>
   <i name="TEEND">      0.00010000</i>
   <i type="int" name="NBLOCK">     1</i>
   <i type="int" name="KBLOCK">   500</i>
   <i type="int" name="NPACO">   256</i>
   <i name="APACO">     16.00000000</i>
  </separator>
  <separator name="symmetry" >
   <i type="int" name="ISYM">     2</i>
   <i name="SYMPREC">      0.00001000</i>
  </separator>
  <separator name="dos" >
   <i type="int" name="LORBIT">     0</i>
   <v name="RWIGS">     -1.00000000     -1.00000000</v>
   <i type="int" name="NEDOS">   301</i>
   <i name="EMIN">     10.00000000</i>
   <i name="EMAX">    -10.00000000</i>
   <i name="EFERMI">      0.00000000</i>
  </separator>
  <separator name="writing" >
   <i type="int" name="NWRITE">     2</i>
   <i type="logical" name="LWAVE"> F  </i>
   <i type="logical" name="LDOWNSAMPLE"> F  </i>
   <i type="logical" name="LCHARG"> F  </i>
   <i type="logical" name="LPARD"> F  </i>
   <i type="logical" name="LVTOT"> F  </i>
   <i type="logical" name="LVHAR"> F  </i>
   <i type="logical" name="LELF"> F  </i>
   <i type="logical" name="LOPTICS"> F  </i>
   <v name="STM">      0.00000000      0.00000000      0.00000000      0.00000000      0.00000000      0.00000000      0.00000000</v>
  </separator>
  <separator name="performance" >
   <i type="int" name="NPAR">    10</i>
   <i type="int" name="NSIM">     4</i>
   <i type="int" name="NBLK">    -1</i>
   <i type="logical" name="LPLANE"> T  </i>
   <i type="logical" name="LSCALAPACK"> F  </i>
   <i type="logical" name="LSCAAWARE"> F  </i>
   <i type="logical" name="LSCALU"> F  </i>
   <i type="logical" name="LASYNC"> F  </i>
   <i type="logical" name="LORBITALREAL"> F  </i>
  </separator>
  <separator name="miscellaneous" >
   <i type="int" name="IDIOT">     3</i>
   <i type="int" name="ISPECIAL">     0</i>
   <i type="logical" name="LMUSIC"> F  </i>
   <v name="POMASS">     55.84700000     54.93800000</v>
   <v name="DARWINR">      0.00000000      0.00000000</v>
   <v name="DARWINV">      1.00000000      1.00000000</v>
   <i type="logical" name="LCORR"> T  </i>
  </separator>
  <i type="logical" name="GGA_COMPAT"> T  </i>
  <i type="logical" name="LBERRY"> F  </i>
  <i type="int" name="ICORELEVEL">     0</i>
  <i type="logical" name="LDAU"> F  </i>
  <i type="int" name="I_CONSTRAINED_M">     0</i>
  <separator name="electronic exchange-correlation" >
   <i type="string" name="GGA">--</i>
   <i type="int" name="VOSKOWN">     0</i>
   <i type="logical" name="LHFCALC"> F  </i>
   <i type="string" name="PRECFOCK"></i>
   <i type="logical" name="LSYMGRAD"> F  </i>
   <i type="logical" name="LHFONE"> F  </i>
   <i type="logical" name="LRHFCALC"> F  </i>
   <i type="logical" name="LTHOMAS"> F  </i>
   <i type="logical" name="LMODELHF"> F  </i>
   <i name="ENCUT4O">     -1.00000000</i>
   <i type="int" name="EXXOEP">     0</i>
   <i type="int" name="FOURORBIT">     0</i>
   <i name="AEXX">      0.00000000</i>
   <i name="HFALPHA">      0.00000000</i>
   <i name="MCALPHA">      0.00000000</i>
   <i name="ALDAX">      1.00000000</i>
   <i name="AGGAX">      1.00000000</i>
   <i name="ALDAC">      1.00000000</i>
   <i name="AGGAC">      1.00000000</i>
   <i type="int" name="NKREDX">     1</i>
   <i type="int" name="NKREDY">     1</i>
   <i type="int" name="NKREDZ">     1</i>
   <i type="logical" name="SHIFTRED"> F  </i>
   <i type="logical" name="ODDONLY"> F  </i>
   <i type="logical" name="EVENONLY"> F  </i>
   <i type="int" name="LMAXFOCK">     0</i>
   <i type="int" name="NMAXFOCKAE">     0</i>
   <i type="logical" name="LFOCKAEDFT"> F  </i>
   <i name="HFSCREEN">      0.00000000</i>
   <i name="HFSCREENC">      0.00000000</i>
   <i type="int" name="NBANDSGWLOW">     0</i>
  </separator>
  <separator name="vdW DFT" >
   <i type="logical" name="LUSE_VDW"> F  </i>
   <i name="Zab_VDW">     -0.84910000</i>
   <i name="PARAM1">      0.12340000</i>
   <i name="PARAM2">      1.00000000</i>
   <i name="PARAM3">      0.00000000</i>
  </separator>
  <separator name="model GW" >
   <i type="int" name="MODEL_GW">     0</i>
   <i name="MODEL_EPS0">      7.68123361</i>
   <i name="MODEL_ALPHA">      1.00000000</i>
  </separator>
  <separator name="linear response parameters" >
   <i type="logical" name="LEPSILON"> F  </i>
   <i type="logical" name="LRPA"> F  </i>
   <i type="logical" name="LNABLA"> F  </i>
   <i type="logical" name="LVEL"> F  </i>
   <i type="int" name="KINTER">     0</i>
   <i name="CSHIFT">      0.10000000</i>
   <i name="OMEGAMAX">     -1.00000000</i>
   <i name="DEG_THRESHOLD">      0.00200000</i>
   <i name="RTIME">     -0.10000000</i>
   <i name="WPLASMAI">      0.00000000</i>
   <v name="DFIELD">      0.00000000      0.00000000      0.00000000</v>
   <v name="WPLASMA">      0.00000000      0.00000000      0.00000000      0.00000000      0.00000000      0.00000000      0.00000000      0.00000000      0.00000000</v>
  </separator>
  <separator name="orbital magnetization" >
   <i type="logical" name="NUCIND"> F  </i>
   <v name="MAGPOS">      0.00000000      0.00000000      0.00000000</v>
   <i type="logical" name="LNICSALL"> T  </i>
   <i type="logical" name="ORBITALMAG"> F  </i>
   <i type="logical" name="LMAGBLOCH"> F  </i>
   <i type="logical" name="LCHIMAG"> F  </i>
   <i type="logical" name="LGAUGE"> T  </i>
   <i type="int" name="MAGATOM">     0</i>
   <v name="MAGDIPOL">      0.00000000      0.00000000      0.00000000</v>
   <v name="AVECCONST">      0.00000000      0.00000000      0.00000000</v>
  </separator>
  <separator name="response functions" >
   <i type="logical" name="LADDER"> F  </i>
   <i type="logical" name="LRPAFORCE"> F  </i>
   <i type="logical" name="LFXC"> F  </i>
   <i type="logical" name="LHARTREE"> T  </i>
   <i type="int" name="IBSE">     0</i>
   <v type="int" name="KPOINT">    -1     0     0     0</v>
   <i type="logical" name="LTCTE"> F  </i>
   <i type="logical" name="LTETE"> F  </i>
   <i type="logical" name="LTRIPLET"> F  </i>
   <i type="logical" name="LFXCEPS"> F  </i>
   <i type="logical" name="LFXHEG"> F  </i>
   <i type="int" name="NATURALO">     2</i>
   <i type="logical" name="L2ORDER"> F  </i>
   <i type="logical" name="LMP2LT"> F  </i>
   <i type="logical" name="LUSEW"> F  </i>
   <i name="ENCUTGW">     -2.00000000</i>
   <i name="ENCUTGWSOFT">     -2.00000000</i>
   <i name="ENCUTLF">     -1.00000000</i>
   <i type="int" name="LMAXMP2">    -1</i>
   <i name="SCISSOR">      0.00000000</i>
   <i type="int" name="NOMEGA">     0</i>
   <i type="int" name="NOMEGAR">     0</i>
   <i type="int" name="NBANDSGW">    -1</i>
   <i type="int" name="NBANDSO">    -1</i>
   <i type="int" name="NBANDSV">    -1</i>
   <i type="int" name="NELM">   100</i>
   <i type="int" name="NELMHF">     1</i>
   <i type="int" name="DIM">     3</i>
   <i type="int" name="ANTIRES">     0</i>
   <i name="OMEGAMAX">    -30.00000000</i>
   <i name="OMEGAMIN">    -30.00000000</i>
   <i name="OMEGATL">   -200.00000000</i>
   <i type="int" name="OMEGAGRID">   140</i>
   <i name="CSHIFT">     -0.10000000</i>
   <i type="logical" name="SELFENERGY"> F  </i>
   <i type="logical" name="LSPECTRAL"> F  </i>
   <i type="logical" name="LSPECTRALGW"> F  </i>
   <i type="logical" name="LSINGLES"> F  </i>
   <i type="logical" name="LFERMIGW"> F  </i>
   <i type="logical" name="ODDONLYGW"> F  </i>
   <i type="logical" name="EVENONLYGW"> F  </i>
   <i type="int" name="NKREDLFX">     1</i>
   <i type="int" name="NKREDLFY">     1</i>
   <i type="int" name="NKREDLFZ">     1</i>
   <i type="int" name="MAXMEM">  2800</i>
   <i type="int" name="TELESCOPE">     0</i>
   <i type="int" name="TAUPAR">     1</i>
   <i type="int" name="OMEGAPAR">    -1</i>
   <i name="LAMBDA">      1.00000000</i>
  </separator>
  <separator name="External order field" >
   <i name="OFIELD_KAPPA">      0.00000000</i>
   <v name="OFIELD_K">      0.00000000      0.00000000      0.00000000</v>
   <i name="OFIELD_Q6_NEAR">      0.00000000</i>
   <i name="OFIELD_Q6_FAR">      0.00000000</i>
   <i name="OFIELD_A">      0.00000000</i>
  </separator>
 </parameters>
 <atominfo>
  <atoms>     288 </atoms>
  <types>       2 </types>
  <array name="atoms" >
   <dimension dim="1">ion</dimension>
   <field type="string">element</field>
   <field type="int">atomtype</field>
   <set>
    <rc><c>Fe</c><c>   1</c></rc>
    <rc><c>Fe</c><c>   1</c></rc>
    <rc><c>Fe</c><c>   1</c></rc>
    <rc><c>Fe</c><c>   1</c></rc>
    <rc><c>Fe</c><c>   1</c></rc>
    <rc><c>Fe</c><c>   1</c></rc>
    <rc><c>Fe</c><c>   1</c></rc>
    <rc><c>Fe</c><c>   1</c></rc>
    <rc><c>Fe</c><c>   1</c></rc>
    <rc><c>Fe</c><c>   1</c></rc>
    <rc><c>Fe</c><c>   1</c></rc>
    <rc><c>Fe</c><c>   1</c></rc>
    <rc><c>Fe</c><c>   1</c></rc>
    <rc><c>Fe</c><c>   1</c></rc>
    <rc><c>Fe</c><c>   1</c></rc>
    <rc><c>Fe</c><c>   1</c></rc>
    <rc><c>Fe</c><c>   1</c></rc>
    <rc><c>Fe</c><c>   1</c></rc>
    <rc><c>Fe</c><c>   1</c></rc>
    <rc><c>Fe</c><c>   1</c></rc>
    <rc><c>Fe</c><c>   1</c></rc>
    <rc><c>Fe</c><c>   1</c></rc>
    <rc><c>Fe</c><c>   1</c></rc>
    <rc><c>Fe</c><c>   1</c></rc>
    <rc><c>Fe</c><c>   1</c></rc>
    <rc><c>Fe</c><c>   1</c></rc>
    <rc><c>Fe</c><c>   1</c></rc>
    <rc><c>Fe</c><c>   1</c></rc>
    <rc><c>Fe</c><c>   1</c></rc>
    <rc><c>Fe</c><c>   1</c></rc>
    <rc><c>Fe</c><c>   1</c></rc>
    <rc><c>Fe</c><c>   1</c></rc>
    <rc><c>Fe</c><c>   1</c></rc>
    <rc><c>Fe</c><c>   1</c></rc>
    <rc><c>Fe</c><c>   1</c></rc>
    <rc><c>Fe</c><c>   1</c></rc>
    <rc><c>Fe</c><c>   1</c></rc>
    <rc><c>Fe</c><c>   1</c></rc>
    <rc><c>Fe</c><c>   1</c></rc>
    <rc><c>Fe</c><c>   1</c></rc>
    <rc><c>Fe</c><c>   1</c></rc>
    <rc><c>Fe</c><c>   1</c></rc>
    <rc><c>Fe</c><c>   1</c></rc>
    <rc><c>Fe</c><c>   1</c></rc>
    <rc><c>Fe</c><c>   1</c></rc>
    <rc><c>Fe</c><c>   1</c></rc>
    <rc><c>Fe</c><c>   1</c></rc>
    <rc><c>Fe</c><c>   1</c></rc>
    <rc><c>Fe</c><c>   1</c></rc>
    <rc><c>Fe</c><c>   1</c></rc>
    <rc><c>Fe</c><c>   1</c></rc>
    <rc><c>Fe</c><c>   1</c></rc>
    <rc><c>Fe</c><c>   1</c></rc>
    <rc><c>Fe</c><c>   1</c></rc>
    <rc><c>Fe</c><c>   1</c></rc>
    <rc><c>Fe</c><c>   1</c></rc>
    <rc><c>Fe</c><c>   1</c></rc>
    <rc><c>Fe</c><c>   1</c></rc>
    <rc><c>Fe</c><c>   1</c></rc>
    <rc><c>Fe</c><c>   1</c></rc>
    <rc><c>Fe</c><c>   1</c></rc>
    <rc><c>Fe</c><c>   1</c></rc>
    <rc><c>Fe</c><c>   1</c></rc>
    <rc><c>Fe</c><c>   1</c></rc>
    <rc><c>Fe</c><c>   1</c></rc>
    <rc><c>Fe</c><c>   1</c></rc>
    <rc><c>Fe</c><c>   1</c></rc>
    <rc><c>Fe</c><c>   1</c></rc>
    <rc><c>Fe</c><c>   1</c></rc>
    <rc><c>Fe</c><c>   1</c></rc>
    <rc><c>Fe</c><c>   1</c></rc>
    <rc><c>Fe</c><c>   1</c></rc>
    <rc><c>Fe</c><c>   1</c></rc>
    <rc><c>Fe</c><c>   1</c></rc>
    <rc><c>Fe</c><c>   1</c></rc>
    <rc><c>Fe</c><c>   1</c></rc>
    <rc><c>Fe</c><c>   1</c></rc>
    <rc><c>Fe</c><c>   1</c></rc>
    <rc><c>Fe</c><c>   1</c></rc>
    <rc><c>Fe</c><c>   1</c></rc>
    <rc><c>Fe</c><c>   1</c></rc>
    <rc><c>Fe</c><c>   1</c></rc>
    <rc><c>Fe</c><c>   1</c></rc>
    <rc><c>Fe</c><c>   1</c></rc>
    <rc><c>Fe</c><c>   1</c></rc>
    <rc><c>Fe</c><c>   1</c></rc>
    <rc><c>Fe</c><c>   1</c></rc>
    <rc><c>Fe</c><c>   1</c></rc>
    <rc><c>Fe</c><c>   1</c></rc>
    <rc><c>Fe</c><c>   1</c></rc>
    <rc><c>Fe</c><c>   1</c></rc>
    <rc><c>Fe</c><c>   1</c></rc>
    <rc><c>Fe</c><c>   1</c></rc>
    <rc><c>Fe</c><c>   1</c></rc>
    <rc><c>Fe</c><c>   1</c></rc>
    <rc><c>Fe</c><c>   1</c></rc>
    <rc><c>Fe</c><c>   1</c></rc>
    <rc><c>Fe</c><c>   1</c></rc>
    <rc><c>Fe</c><c>   1</c></rc>
    <rc><c>Fe</c><c>   1</c></rc>
    <rc><c>Fe</c><c>   1</c></rc>
    <rc><c>Fe</c><c>   1</c></rc>
    <rc><c>Fe</c><c>   1</c></rc>
    <rc><c>Fe</c><c>   1</c></rc>
    <rc><c>Fe</c><c>   1</c></rc>
    <rc><c>Fe</c><c>   1</c></rc>
    <rc><c>Fe</c><c>   1</c></rc>
    <rc><c>Fe</c><c>   1</c></rc>
    <rc><c>Fe</c><c>   1</c></rc>
    <rc><c>Fe</c><c>   1</c></rc>
    <rc><c>Fe</c><c>   1</c></rc>
    <rc><c>Fe</c><c>   1</c></rc>
    <rc><c>Fe</c><c>   1</c></rc>
    <rc><c>Fe</c><c>   1</c></rc>
    <rc><c>Fe</c><c>   1</c></rc>
    <rc><c>Fe</c><c>   1</c></rc>
    <rc><c>Fe</c><c>   1</c></rc>
    <rc><c>Fe</c><c>   1</c></rc>
    <rc><c>Fe</c><c>   1</c></rc>
    <rc><c>Fe</c><c>   1</c></rc>
    <rc><c>Fe</c><c>   1</c></rc>
    <rc><c>Fe</c><c>   1</c></rc>
    <rc><c>Fe</c><c>   1</c></rc>
    <rc><c>Fe</c><c>   1</c></rc>
    <rc><c>Fe</c><c>   1</c></rc>
    <rc><c>Fe</c><c>   1</c></rc>
    <rc><c>Fe</c><c>   1</c></rc>
    <rc><c>Fe</c><c>   1</c></rc>
    <rc><c>Fe</c><c>   1</c></rc>
    <rc><c>Fe</c><c>   1</c></rc>
    <rc><c>Fe</c><c>   1</c></rc>
    <rc><c>Fe</c><c>   1</c></rc>
    <rc><c>Fe</c><c>   1</c></rc>
    <rc><c>Fe</c><c>   1</c></rc>
    <rc><c>Fe</c><c>   1</c></rc>
    <rc><c>Fe</c><c>   1</c></rc>
    <rc><c>Fe</c><c>   1</c></rc>
    <rc><c>Fe</c><c>   1</c></rc>
    <rc><c>Fe</c><c>   1</c></rc>
    <rc><c>Fe</c><c>   1</c></rc>
    <rc><c>Fe</c><c>   1</c></rc>
    <rc><c>Fe</c><c>   1</c></rc>
    <rc><c>Fe</c><c>   1</c></rc>
    <rc><c>Fe</c><c>   1</c></rc>
    <rc><c>Fe</c><c>   1</c></rc>
    <rc><c>Fe</c><c>   1</c></rc>
    <rc><c>Fe</c><c>   1</c></rc>
    <rc><c>Fe</c><c>   1</c></rc>
    <rc><c>Fe</c><c>   1</c></rc>
    <rc><c>Fe</c><c>   1</c></rc>
    <rc><c>Fe</c><c>   1</c></rc>
    <rc><c>Fe</c><c>   1</c></rc>
    <rc><c>Fe</c><c>   1</c></rc>
    <rc><c>Fe</c><c>   1</c></rc>
    <rc><c>Fe</c><c>   1</c></rc>
    <rc><c>Fe</c><c>   1</c></rc>
    <rc><c>Fe</c><c>   1</c></rc>
    <rc><c>Fe</c><c>   1</c></rc>
    <rc><c>Fe</c><c>   1</c></rc>
    <rc><c>Fe</c><c>   1</c></rc>
    <rc><c>Fe</c><c>   1</c></rc>
    <rc><c>Fe</c><c>   1</c></rc>
    <rc><c>Fe</c><c>   1</c></rc>
    <rc><c>Fe</c><c>   1</c></rc>
    <rc><c>Fe</c><c>   1</c></rc>
    <rc><c>Fe</c><c>   1</c></rc>
    <rc><c>Fe</c><c>   1</c></rc>
    <rc><c>Fe</c><c>   1</c></rc>
    <rc><c>Fe</c><c>   1</c></rc>
    <rc><c>Fe</c><c>   1</c></rc>
    <rc><c>Fe</c><c>   1</c></rc>
    <rc><c>Fe</c><c>   1</c></rc>
    <rc><c>Fe</c><c>   1</c></rc>
    <rc><c>Fe</c><c>   1</c></rc>
    <rc><c>Fe</c><c>   1</c></rc>
    <rc><c>Fe</c><c>   1</c></rc>
    <rc><c>Fe</c><c>   1</c></rc>
    <rc><c>Fe</c><c>   1</c></rc>
    <rc><c>Fe</c><c>   1</c></rc>
    <rc><c>Fe</c><c>   1</c></rc>
    <rc><c>Fe</c><c>   1</c></rc>
    <rc><c>Fe</c><c>   1</c></rc>
    <rc><c>Fe</c><c>   1</c></rc>
    <rc><c>Fe</c><c>   1</c></rc>
    <rc><c>Fe</c><c>   1</c></rc>
    <rc><c>Fe</c><c>   1</c></rc>
    <rc><c>Fe</c><c>   1</c></rc>
    <rc><c>Fe</c><c>   1</c></rc>
    <rc><c>Fe</c><c>   1</c></rc>
    <rc><c>Fe</c><c>   1</c></rc>
    <rc><c>Fe</c><c>   1</c></rc>
    <rc><c>Fe</c><c>   1</c></rc>
    <rc><c>Fe</c><c>   1</c></rc>
    <rc><c>Fe</c><c>   1</c></rc>
    <rc><c>Fe</c><c>   1</c></rc>
    <rc><c>Fe</c><c>   1</c></rc>
    <rc><c>Fe</c><c>   1</c></rc>
    <rc><c>Fe</c><c>   1</c></rc>
    <rc><c>Fe</c><c>   1</c></rc>
    <rc><c>Fe</c><c>   1</c></rc>
    <rc><c>Fe</c><c>   1</c></rc>
    <rc><c>Fe</c><c>   1</c></rc>
    <rc><c>Fe</c><c>   1</c></rc>
    <rc><c>Fe</c><c>   1</c></rc>
    <rc><c>Fe</c><c>   1</c></rc>
    <rc><c>Fe</c><c>   1</c></rc>
    <rc><c>Fe</c><c>   1</c></rc>
    <rc><c>Fe</c><c>   1</c></rc>
    <rc><c>Fe</c><c>   1</c></rc>
    <rc><c>Fe</c><c>   1</c></rc>
    <rc><c>Fe</c><c>   1</c></rc>
    <rc><c>Fe</c><c>   1</c></rc>
    <rc><c>Fe</c><c>   1</c></rc>
    <rc><c>Fe</c><c>   1</c></rc>
    <rc><c>Fe</c><c>   1</c></rc>
    <rc><c>Fe</c><c>   1</c></rc>
    <rc><c>Fe</c><c>   1</c></rc>
    <rc><c>Fe</c><c>   1</c></rc>
    <rc><c>Fe</c><c>   1</c></rc>
    <rc><c>Fe</c><c>   1</c></rc>
    <rc><c>Fe</c><c>   1</c></rc>
    <rc><c>Fe</c><c>   1</c></rc>
    <rc><c>Fe</c><c>   1</c></rc>
    <rc><c>Fe</c><c>   1</c></rc>
    <rc><c>Fe</c><c>   1</c></rc>
    <rc><c>Fe</c><c>   1</c></rc>
    <rc><c>Fe</c><c>   1</c></rc>
    <rc><c>Fe</c><c>   1</c></rc>
    <rc><c>Fe</c><c>   1</c></rc>
    <rc><c>Fe</c><c>   1</c></rc>
    <rc><c>Fe</c><c>   1</c></rc>
    <rc><c>Fe</c><c>   1</c></rc>
    <rc><c>Fe</c><c>   1</c></rc>
    <rc><c>Fe</c><c>   1</c></rc>
    <rc><c>Fe</c><c>   1</c></rc>
    <rc><c>Fe</c><c>   1</c></rc>
    <rc><c>Fe</c><c>   1</c></rc>
    <rc><c>Fe</c><c>   1</c></rc>
    <rc><c>Fe</c><c>   1</c></rc>
    <rc><c>Fe</c><c>   1</c></rc>
    <rc><c>Fe</c><c>   1</c></rc>
    <rc><c>Fe</c><c>   1</c></rc>
    <rc><c>Fe</c><c>   1</c></rc>
    <rc><c>Fe</c><c>   1</c></rc>
    <rc><c>Fe</c><c>   1</c></rc>
    <rc><c>Fe</c><c>   1</c></rc>
    <rc><c>Fe</c><c>   1</c></rc>
    <rc><c>Fe</c><c>   1</c></rc>
    <rc><c>Fe</c><c>   1</c></rc>
    <rc><c>Fe</c><c>   1</c></rc>
    <rc><c>Fe</c><c>   1</c></rc>
    <rc><c>Fe</c><c>   1</c></rc>
    <rc><c>Fe</c><c>   1</c></rc>
    <rc><c>Fe</c><c>   1</c></rc>
    <rc><c>Fe</c><c>   1</c></rc>
    <rc><c>Fe</c><c>   1</c></rc>
    <rc><c>Fe</c><c>   1</c></rc>
    <rc><c>Fe</c><c>   1</c></rc>
    <rc><c>Fe</c><c>   1</c></rc>
    <rc><c>Fe</c><c>   1</c></rc>
    <rc><c>Fe</c><c>   1</c></rc>
    <rc><c>Fe</c><c>   1</c></rc>
    <rc><c>Fe</c><c>   1</c></rc>
    <rc><c>Fe</c><c>   1</c></rc>
    <rc><c>Fe</c><c>   1</c></rc>
    <rc><c>Fe</c><c>   1</c></rc>
    <rc><c>Fe</c><c>   1</c></rc>
    <rc><c>Fe</c><c>   1</c></rc>
    <rc><c>Fe</c><c>   1</c></rc>
    <rc><c>Fe</c><c>   1</c></rc>
    <rc><c>Fe</c><c>   1</c></rc>
    <rc><c>Fe</c><c>   1</c></rc>
    <rc><c>Fe</c><c>   1</c></rc>
    <rc><c>Mn</c><c>   2</c></rc>
    <rc><c>Mn</c><c>   2</c></rc>
    <rc><c>Mn</c><c>   2</c></rc>
    <rc><c>Mn</c><c>   2</c></rc>
    <rc><c>Mn</c><c>   2</c></rc>
    <rc><c>Mn</c><c>   2</c></rc>
    <rc><c>Mn</c><c>   2</c></rc>
    <rc><c>Mn</c><c>   2</c></rc>
    <rc><c>Mn</c><c>   2</c></rc>
    <rc><c>Mn</c><c>   2</c></rc>
    <rc><c>Mn</c><c>   2</c></rc>
    <rc><c>Mn</c><c>   2</c></rc>
    <rc><c>Mn</c><c>   2</c></rc>
    <rc><c>Mn</c><c>   2</c></rc>
    <rc><c>Mn</c><c>   2</c></rc>
   </set>
  </array>
  <array name="atomtypes" >
   <dimension dim="1">type</dimension>
   <field type="int">atomspertype</field>
   <field type="string">element</field>
   <field>mass</field>
   <field>valence</field>
   <field type="string">pseudopotential</field>
   <set>
    <rc><c> 273</c><c>Fe</c><c>     55.84700000</c><c>      8.00000000</c><c>  PAW_PBE Fe_GW 31Mar2010               </c></rc>
    <rc><c>  15</c><c>Mn</c><c>     54.93800000</c><c>      7.00000000</c><c>  PAW_PBE Mn_GW 31Mar2010               </c></rc>
   </set>
  </array>
 </atominfo>
 <structure name="initialpos" >
  <crystal>
   <varray name="basis" >
    <v>       9.72667800       0.00000000       0.00000000 </v>
    <v>       0.00000000       8.42355000       0.00000000 </v>
    <v>       0.00000000       0.00000000      45.00000000 </v>
   </varray>
   <i name="volume">   3686.99213101 </i>
   <varray name="rec_basis" >
    <v>       0.10281002       0.00000000       0.00000000 </v>
    <v>       0.00000000       0.11871479       0.00000000 </v>
    <v>       0.00000000       0.00000000       0.02222222 </v>
   </varray>
  </crystal>
  <varray name="positions" >
   <v>       0.56271128       0.87617716       0.65452365 </v>
   <v>       0.31231798       0.19734276       0.21113634 </v>
   <v>       0.43768208       0.46213768       0.69895751 </v>
   <v>       0.18794837       0.11762100       0.30037928 </v>
   <v>       0.68764684       0.62642451       0.65452764 </v>
   <v>       0.06093712       0.71828525       0.83502284 </v>
   <v>       0.93823934       0.11160726       0.16533808 </v>
   <v>       0.81252835       0.02587819       0.12349699 </v>
   <v>       0.68727947       0.12254172       0.52139973 </v>
   <v>       0.93953622       0.80073926       0.87754966 </v>
   <v>       0.18769857       0.13102088       0.78881606 </v>
   <v>       0.06246264       0.54113377       0.61022831 </v>
   <v>       0.93789156       0.78654166       0.38852270 </v>
   <v>       0.18790916       0.60958365       0.16627917 </v>
   <v>       0.93765320       0.95215108       0.34462518 </v>
   <v>       0.56195272       0.88231278       0.78875989 </v>
   <v>       0.06220798       0.52843073       0.12310943 </v>
   <v>       0.31252363       0.70597159       0.56545093 </v>
   <v>       0.93752107       0.28315085       0.25628069 </v>
   <v>       0.93793998       0.29597666       0.74355128 </v>
   <v>       0.31207060       0.69591063       0.21119078 </v>
   <v>       0.68731114       0.45747777       0.56554685 </v>
   <v>       0.43373992       0.29833408       0.87760872 </v>
   <v>       0.43682747       0.61724851       0.30050422 </v>
   <v>       0.31256963       0.54141281       0.61029584 </v>
   <v>       0.81231341       0.04581611       0.74357983 </v>
   <v>       0.93754677       0.95645906       0.56591124 </v>
   <v>       0.06253148       0.04027579       0.61055050 </v>
   <v>       0.56467710       0.71630763       0.83541933 </v>
   <v>       0.06300774       0.19802247       0.21047207 </v>
   <v>       0.93748528       0.13128933       0.78903800 </v>
   <v>       0.93813576       0.45687937       0.56571010 </v>
   <v>       0.06305580       0.88192449       0.78866348 </v>
   <v>       0.06199845       0.37531527       0.65462901 </v>
   <v>       0.93649082       0.95923127       0.69881011 </v>
   <v>       0.43738527       0.29537469       0.74363511 </v>
   <v>       0.68681239       0.46079843       0.69891853 </v>
   <v>       0.81272588       0.70128753       0.34471127 </v>
   <v>       0.81182843       0.21689721       0.83527249 </v>
   <v>       0.81209049       0.86747312       0.30035733 </v>
   <v>       0.31241066       0.70201327       0.34490613 </v>
   <v>       0.93754484       0.12132371       0.43431838 </v>
   <v>       0.43639196       0.80091939       0.87743286 </v>
   <v>       0.68677161       0.96034693       0.69879924 </v>
   <v>       0.68863553       0.60888807       0.16657221 </v>
   <v>       0.43776497       0.46317736       0.83497709 </v>
   <v>       0.31267424       0.87274393       0.52165013 </v>
   <v>       0.43662230       0.60883963       0.16624381 </v>
   <v>       0.68699251       0.63065119       0.78909757 </v>
   <v>       0.93711922       0.46712939       0.83483019 </v>
   <v>       0.18813110       0.30102432       0.87745912 </v>
   <v>       0.43692345       0.13048195       0.78908264 </v>
   <v>       0.06171852       0.21009187       0.69895955 </v>
   <v>       0.31322950       0.04597890       0.74366731 </v>
   <v>       0.93786465       0.28762932       0.38886032 </v>
   <v>       0.93780604       0.30525572       0.87723459 </v>
   <v>       0.93558284       0.79530986       0.74361195 </v>
   <v>       0.81138139       0.05286877       0.87699069 </v>
   <v>       0.31234210       0.70511086       0.47884501 </v>
   <v>       0.81290757       0.21017972       0.69895757 </v>
   <v>       0.31273442       0.87180819       0.43442681 </v>
   <v>       0.18694830       0.12168473       0.43432161 </v>
   <v>       0.68798042       0.12558952       0.65468504 </v>
   <v>       0.19103505       0.79636860       0.74375469 </v>
   <v>       0.31390453       0.54835863       0.74372101 </v>
   <v>       0.81072967       0.88086039       0.78913628 </v>
   <v>       0.31172696       0.37075938       0.43419979 </v>
   <v>       0.06224925       0.69709280       0.21059938 </v>
   <v>       0.93733329       0.11814001       0.30067722 </v>
   <v>       0.43823387       0.96969924       0.83528754 </v>
   <v>       0.68789282       0.94770384       0.21102193 </v>
   <v>       0.93779868       0.45210882       0.34517820 </v>
   <v>       0.68856577       0.44618666       0.21103825 </v>
   <v>       0.81296270       0.54150076       0.61029866 </v>
   <v>       0.43763848       0.79684571       0.74371821 </v>
   <v>       0.43720226       0.28648131       0.38887784 </v>
   <v>       0.31290318       0.87568745       0.65456568 </v>
   <v>       0.43815906       0.62674719       0.65457098 </v>
   <v>       0.31209305       0.53560908       0.38881443 </v>
   <v>       0.43711490       0.95653751       0.56557438 </v>
   <v>       0.93775495       0.12260219       0.52155523 </v>
   <v>       0.68832801       0.45167318       0.34475000 </v>
   <v>       0.31275267       0.86629461       0.30029498 </v>
   <v>       0.06221866       0.03274093       0.25525656 </v>
   <v>       0.81324142       0.20586432       0.47877646 </v>
   <v>       0.06093211       0.37985676       0.78884648 </v>
   <v>       0.06360884       0.02671734       0.12326526 </v>
   <v>       0.43769676       0.12245949       0.52138031 </v>
   <v>       0.56304826       0.86056682       0.16647233 </v>
   <v>       0.43820873       0.11019712       0.16626073 </v>
   <v>       0.06322882       0.04526242       0.74363991 </v>
   <v>       0.31286687       0.03161089       0.25556254 </v>
   <v>       0.43700635       0.29194803       0.61024428 </v>
   <v>       0.81259641       0.37251799       0.43425184 </v>
   <v>       0.68772668       0.27506028       0.12363745 </v>
   <v>       0.43735078       0.79070799       0.61036701 </v>
   <v>       0.68845722       0.29499999       0.74363752 </v>
   <v>       0.69159050       0.30075189       0.87758189 </v>
   <v>       0.81196676       0.87346214       0.52143767 </v>
   <v>       0.56313230       0.87340077       0.52152111 </v>
   <v>       0.56269532       0.19637468       0.21121040 </v>
   <v>       0.31280883       0.37617732       0.65461064 </v>
   <v>       0.43698309       0.11596107       0.30033145 </v>
   <v>       0.31230292       0.36681969       0.30038510 </v>
   <v>       0.56232746       0.37731350       0.65465140 </v>
   <v>       0.43840593       0.27925448       0.12421503 </v>
   <v>       0.81291951       0.37258681       0.52156902 </v>
   <v>       0.81223964       0.38080903       0.78899135 </v>
   <v>       0.18691651       0.45214602       0.34482551 </v>
   <v>       0.93810078       0.29113426       0.61047931 </v>
   <v>       0.93715900       0.60820305       0.16596277 </v>
   <v>       0.18602037       0.27662037       0.12360133 </v>
   <v>       0.18645218       0.45492292       0.47879793 </v>
   <v>       0.56220954       0.37207993       0.52152870 </v>
   <v>       0.81218070       0.54573001       0.74396296 </v>
   <v>       0.06202530       0.20627585       0.56556581 </v>
   <v>       0.31138335       0.52629879       0.12368577 </v>
   <v>       0.18709842       0.95611401       0.47885737 </v>
   <v>       0.43712614       0.12151398       0.43418436 </v>
   <v>       0.06197181       0.70484045       0.47887127 </v>
   <v>       0.68827486       0.45548516       0.47901679 </v>
   <v>       0.81546648       0.35878454       0.16554711 </v>
   <v>       0.68673996       0.79555657       0.74355862 </v>
   <v>       0.56288583       0.71176426       0.69879722 </v>
   <v>       0.81319973       0.69732349       0.21088377 </v>
   <v>       0.43731575       0.12600387       0.65472712 </v>
   <v>       0.18804980       0.78234029       0.25540131 </v>
   <v>       0.43686802       0.45154565       0.34486048 </v>
   <v>       0.18753912       0.61601162       0.30063659 </v>
   <v>       0.93825943       0.45549162       0.47879120 </v>
   <v>       0.18725345       0.95209698       0.34466332 </v>
   <v>       0.18750548       0.45684641       0.56541695 </v>
   <v>       0.93882463       0.96876718       0.83456378 </v>
   <v>       0.18806826       0.95955629       0.69882293 </v>
   <v>       0.93704141       0.62953283       0.78879591 </v>
   <v>       0.68709995       0.78229049       0.25573902 </v>
   <v>       0.56212174       0.03117290       0.25561280 </v>
   <v>       0.93714763       0.79119016       0.61020612 </v>
   <v>       0.06304138       0.37137336       0.43430639 </v>
   <v>       0.43754437       0.62267843       0.52158192 </v>
   <v>       0.31204957       0.20148814       0.34461343 </v>
   <v>       0.56225766       0.53158797       0.25606324 </v>
   <v>       0.06232580       0.70671653       0.56564468 </v>
   <v>       0.81262977       0.87575273       0.65443322 </v>
   <v>       0.56241190       0.03726277       0.38889870 </v>
   <v>       0.56361968       0.02451855       0.12442050 </v>
   <v>       0.18757223       0.28147878       0.25548563 </v>
   <v>       0.68754815       0.12253545       0.43419620 </v>
   <v>       0.68884302       0.77703791       0.12409013 </v>
   <v>       0.68903144       0.96918451       0.83511385 </v>
   <v>       0.06261033       0.20610702       0.47875231 </v>
   <v>       0.56185910       0.04496235       0.74360487 </v>
   <v>       0.81353361       0.19773259       0.21018467 </v>
   <v>       0.18802891       0.62597097       0.65457522 </v>
   <v>       0.31308918       0.71173252       0.69883291 </v>
   <v>       0.31143050       0.20530074       0.47889056 </v>
   <v>       0.56250749       0.20574983       0.47876793 </v>
   <v>       0.43732100       0.28191484       0.25563980 </v>
   <v>       0.31165435       0.21076969       0.69885609 </v>
   <v>       0.06343483       0.05211386       0.87756702 </v>
   <v>       0.68699752       0.95092407       0.34483709 </v>
   <v>       0.31117937       0.04884369       0.87741560 </v>
   <v>       0.56300485       0.37869493       0.78924804 </v>
   <v>       0.06225811       0.87271215       0.52169675 </v>
   <v>       0.06195962       0.53156748       0.25581876 </v>
   <v>       0.43739719       0.62119555       0.43427108 </v>
   <v>       0.43756363       0.63162255       0.78854429 </v>
   <v>       0.93662831       0.78271570       0.25579469 </v>
   <v>       0.81206449       0.53263797       0.25627882 </v>
   <v>       0.18719444       0.79055854       0.61029730 </v>
   <v>       0.56248318       0.54217409       0.61048196 </v>
   <v>       0.43684302       0.45651134       0.56556460 </v>
   <v>       0.31225156       0.03765645       0.38887884 </v>
   <v>       0.56164237       0.36686168       0.30049567 </v>
   <v>       0.56311866       0.70548393       0.47890480 </v>
   <v>       0.81345786       0.20703604       0.56590895 </v>
   <v>       0.06258340       0.86703966       0.30046765 </v>
   <v>       0.06229847       0.53681579       0.38895651 </v>
   <v>       0.68704113       0.13146770       0.78915785 </v>
   <v>       0.31312251       0.21844191       0.83555410 </v>
   <v>       0.31263931       0.53147025       0.25586031 </v>
   <v>       0.81346997       0.36758926       0.30076425 </v>
   <v>       0.56264073       0.70597543       0.56587699 </v>
   <v>       0.81296854       0.70580723       0.47900523 </v>
   <v>       0.43733908       0.78595418       0.38857856 </v>
   <v>       0.31140981       0.04016312       0.61023137 </v>
   <v>       0.18728580       0.29090545       0.61014051 </v>
   <v>       0.06270858       0.37199936       0.52156795 </v>
   <v>       0.31077305       0.02439476       0.12444273 </v>
   <v>       0.18753656       0.62107801       0.43432364 </v>
   <v>       0.93745988       0.62154060       0.43412969 </v>
   <v>       0.06186868       0.54628427       0.74384063 </v>
   <v>       0.93826977       0.61744183       0.30065978 </v>
   <v>       0.18615957       0.97011828       0.83514941 </v>
   <v>       0.31121297       0.86054603       0.16609010 </v>
   <v>       0.81228130       0.70631433       0.56576384 </v>
   <v>       0.31258486       0.37944743       0.78930642 </v>
   <v>       0.93781557       0.62304590       0.52150179 </v>
   <v>       0.18736312       0.12207569       0.52161083 </v>
   <v>       0.18749206       0.63121133       0.78882011 </v>
   <v>       0.18725509       0.46091433       0.69874111 </v>
   <v>       0.18702950       0.44614881       0.21072503 </v>
   <v>       0.18725590       0.95592647       0.56583175 </v>
   <v>       0.06228000       0.71047760       0.69877142 </v>
   <v>       0.56291874       0.69532712       0.21104049 </v>
   <v>       0.56194625       0.86719988       0.30027819 </v>
   <v>       0.56292939       0.21689890       0.83510210 </v>
   <v>       0.43707109       0.45534515       0.47873325 </v>
   <v>       0.81168010       0.55295565       0.87794566 </v>
   <v>       0.81320939       0.04058490       0.61055199 </v>
   <v>       0.81248032       0.03201297       0.25567287 </v>
   <v>       0.93783801       0.12508177       0.65466458 </v>
   <v>       0.18704561       0.62215233       0.52159603 </v>
   <v>       0.93700255       0.62623257       0.65455243 </v>
   <v>       0.68787061       0.62156933       0.43451175 </v>
   <v>       0.06271312       0.03790345       0.38876444 </v>
   <v>       0.81211585       0.87173772       0.43446955 </v>
   <v>       0.68782371       0.46655265       0.83566967 </v>
   <v>       0.68711708       0.29183778       0.61027752 </v>
   <v>       0.06233487       0.36733322       0.30087677 </v>
   <v>       0.81324361       0.20248091       0.34479929 </v>
   <v>       0.81253473       0.03729089       0.38871688 </v>
   <v>       0.56263337       0.53654403       0.38880918 </v>
   <v>       0.56228869       0.54792111       0.74339475 </v>
   <v>       0.18920309       0.46596344       0.83519906 </v>
   <v>       0.18743492       0.78642067       0.38882888 </v>
   <v>       0.81206590       0.71007557       0.69898633 </v>
   <v>       0.81372476       0.86123953       0.16612265 </v>
   <v>       0.68781422       0.79150228       0.61050640 </v>
   <v>       0.68705256       0.11656975       0.30045035 </v>
   <v>       0.56209165       0.20089040       0.34467860 </v>
   <v>       0.81311008       0.53696748       0.38888238 </v>
   <v>       0.18573906       0.80065343       0.87764255 </v>
   <v>       0.56398069       0.04701996       0.87780724 </v>
   <v>       0.31219209       0.37161540       0.52164142 </v>
   <v>       0.68876745       0.11056773       0.16610008 </v>
   <v>       0.43751229       0.94639189       0.21115706 </v>
   <v>       0.43730324       0.95559597       0.47876358 </v>
   <v>       0.06232642       0.87106702       0.43431894 </v>
   <v>       0.81335521       0.52723642       0.12318331 </v>
   <v>       0.81241946       0.37646809       0.65458814 </v>
   <v>       0.68783621       0.62321519       0.52162807 </v>
   <v>       0.56276315       0.87201318       0.43443358 </v>
   <v>       0.06250092       0.86179506       0.16591782 </v>
   <v>       0.18730751       0.28703439       0.38889292 </v>
   <v>       0.93730489       0.94891823       0.21075696 </v>
   <v>       0.81316087       0.71937679       0.83559767 </v>
   <v>       0.56180547       0.20746761       0.56566774 </v>
   <v>       0.43795233       0.96087443       0.69884869 </v>
   <v>       0.18595830       0.10979318       0.16587449 </v>
   <v>       0.18596987       0.77769478       0.12361272 </v>
   <v>       0.06232500       0.21666475       0.83551424 </v>
   <v>       0.93698842       0.77695325       0.12346102 </v>
   <v>       0.56466848       0.55181800       0.87772993 </v>
   <v>       0.06278903       0.20314878       0.34506312 </v>
   <v>       0.56230239       0.37172227       0.43424099 </v>
   <v>       0.31242556       0.71687204       0.83523993 </v>
   <v>       0.43691030       0.77651879       0.12451300 </v>
   <v>       0.93796835       0.44573789       0.21035664 </v>
   <v>       0.06113098       0.35809535       0.16559768 </v>
   <v>       0.56359048       0.52514683       0.12397965 </v>
   <v>       0.43713356       0.44608718       0.21110768 </v>
   <v>       0.56225737       0.70182304       0.34493400 </v>
   <v>       0.18629900       0.29468045       0.74330131 </v>
   <v>       0.68809667       0.78624317       0.38888007 </v>
   <v>       0.43767567       0.78121079       0.25603939 </v>
   <v>       0.06264835       0.70158047       0.34498986 </v>
   <v>       0.31247510       0.36027086       0.16604297 </v>
   <v>       0.93739352       0.95554338       0.47891351 </v>
   <v>       0.68737520       0.28349494       0.25616555 </v>
   <v>       0.68788875       0.95657665       0.56545652 </v>
   <v>       0.68742529       0.28800668       0.38863041 </v>
   <v>       0.06226827       0.55310656       0.87746471 </v>
   <v>       0.93832093       0.27935016       0.12258238 </v>
   <v>       0.56263135       0.21005310       0.69889839 </v>
   <v>       0.18721953       0.12626455       0.65443935 </v>
   <v>       0.31267957       0.88247636       0.78853952 </v>
   <v>       0.56237051       0.04171280       0.61049736 </v>
   <v>       0.31133779       0.54991680       0.87758324 </v>
   <v>       0.93755012       0.45998524       0.69889025 </v>
   <v>       0.68690570       0.80039680       0.87734868 </v>
   <v>       0.68672558       0.61778005       0.30033117 </v>
   <v>       0.31223312       0.20596641       0.56567948 </v>
   <v>       0.43711697       0.95148698       0.34496153 </v>
   <v>       0.56203549       0.35920611       0.16597466 </v>
   <v>       0.68825071       0.95573851       0.47897662 </v>
   <v>       0.06174397       0.87450799       0.65434907 </v>
   <v>       0.18694015       0.94803745       0.21117948 </v>
  </varray>
 </structure>
 <calculation>
  <scstep>
   <time name="dav">  144.76  144.76</time>
   <time name="total">  145.21  145.21</time>
   <energy>
    <i name="alphaZ">  16277.55763135 </i>
    <i name="ewald"> 713587.79612087 </i>
    <i name="hartreedc">-903982.67069127 </i>
    <i name="XCdc">  -6532.50799963 </i>
    <i name="pawpsdc"> 162148.49262465 </i>
    <i name="pawaedc">-159453.03229289 </i>
    <i name="eentropy">     -0.95578610 </i>
    <i name="bandstr">  39780.99847221 </i>
    <i name="atom"> 168497.18126305 </i>
    <i name="e_fr_energy">  30322.85934224 </i>
    <i name="e_wo_entrp">  30323.81512834 </i>
    <i name="e_0_energy">  30323.33723529 </i>
   </energy>
  </scstep>
  <scstep>
   <time name="dav">  139.96  139.96</time>
   <time name="total">  139.97  139.96</time>
   <energy>
    <i name="e_fr_energy">   1511.18318592 </i>
    <i name="e_wo_entrp">   1512.56522051 </i>
    <i name="e_0_energy">   1511.87420321 </i>
   </energy>
  </scstep>
  <scstep>
   <time name="dav">  178.27  178.26</time>
   <time name="total">  178.27  178.27</time>
   <energy>
    <i name="e_fr_energy">  -1897.66210649 </i>
    <i name="e_wo_entrp">  -1894.08689852 </i>
    <i name="e_0_energy">  -1895.87450251 </i>
   </energy>
  </scstep>
  <scstep>
   <time name="dav">  216.56  216.55</time>
   <time name="total">  216.56  216.56</time>
   <energy>
    <i name="e_fr_energy">  -2609.01930336 </i>
    <i name="e_wo_entrp">  -2605.49025254 </i>
    <i name="e_0_energy">  -2607.25477795 </i>
   </energy>
  </scstep>
  <scstep>
   <time name="dav">  206.46  206.45</time>
   <time name="total">  211.99  211.98</time>
   <energy>
    <i name="e_fr_energy">  -2738.66679640 </i>
    <i name="e_wo_entrp">  -2735.01075849 </i>
    <i name="e_0_energy">  -2736.83877745 </i>
   </energy>
  </scstep>
  <scstep>
   <time name="diag">   29.80   29.80</time>
   <time name="diis">   74.22   74.21</time>
   <time name="orth">    8.74    8.74</time>
   <time name="total">  117.82  117.81</time>
   <energy>
    <i name="e_fr_energy">  -6727.65237703 </i>
    <i name="e_wo_entrp">  -6724.11975459 </i>
    <i name="e_0_energy">  -6725.88606581 </i>
   </energy>
  </scstep>
  <scstep>
   <time name="diag">   29.49   29.49</time>
   <time name="diis">   76.80   76.80</time>
   <time name="orth">    8.68    8.68</time>
   <time name="total">  119.99  119.99</time>
   <energy>
    <i name="e_fr_energy">  -6108.43356202 </i>
    <i name="e_wo_entrp">  -6104.04241595 </i>
    <i name="e_0_energy">  -6106.23798899 </i>
   </energy>
  </scstep>
  <scstep>
[...]
   <v>       0.01755467      -0.00243843       0.02885127 </v>
   <v>       0.00232341       0.00646446       0.01641248 </v>
   <v>       0.01508426      -0.02131682      -0.00302524 </v>
   <v>      -0.01245573      -0.01556370      -0.00196345 </v>
   <v>       0.01481824       0.00802688       0.03090798 </v>
   <v>      -0.00752251       0.02153820       0.05745738 </v>
   <v>       0.00032768       0.00530940       0.01958426 </v>
   <v>      -0.00150504       0.01154952       0.03989565 </v>
   <v>       0.00681460       0.01504860      -0.03585678 </v>
   <v>       0.00865925       0.00333987       0.01592303 </v>
   <v>      -0.00445133       0.01208863      -0.03420335 </v>
   <v>       0.00250077      -0.00651931       0.02712191 </v>
   <v>      -0.03869601       0.00619602       0.01989997 </v>
   <v>       0.00150884      -0.00325719      -0.02892446 </v>
   <v>       0.01050094       0.00742269      -0.02309451 </v>
   <v>      -0.02159897      -0.00543130       0.00667104 </v>
   <v>       0.03029686      -0.02282733       0.00861031 </v>
   <v>      -0.03823579       0.07373978       0.00550165 </v>
   <v>      -0.00110210      -0.00109153      -0.00837732 </v>
   <v>       0.00057327       0.01436431      -0.02459976 </v>
   <v>       0.00968428      -0.00274953       0.02567413 </v>
   <v>       0.00247878       0.00294037       0.03520001 </v>
   <v>       0.00048772       0.02031289      -0.02127780 </v>
   <v>       0.00881455       0.00258545       0.02292759 </v>
   <v>       0.01075591       0.00604253       0.06193611 </v>
   <v>      -0.00087630      -0.01214190      -0.01074863 </v>
   <v>      -0.02201142      -0.01068385       0.01161491 </v>
   <v>       0.00860542      -0.00229587      -0.02351723 </v>
   <v>      -0.00229821      -0.01206005       0.02332955 </v>
   <v>       0.03875219      -0.00191200       0.02733874 </v>
   <v>       0.00873986       0.01207583       0.02447954 </v>
   <v>       0.04095504      -0.03285417       0.03936454 </v>
   <v>       0.00379601      -0.00097356      -0.03984821 </v>
   <v>      -0.00203202      -0.00703719      -0.02898855 </v>
   <v>       0.01838851       0.01089527       0.04082295 </v>
   <v>       0.01152508      -0.06165805       0.01978782 </v>
   <v>      -0.00088482       0.00468364       0.01806120 </v>
   <v>       0.01431335      -0.00765747       0.01777182 </v>
   <v>      -0.04057550       0.04936924       0.00920073 </v>
   <v>       0.00218848       0.01113157       0.03067880 </v>
   <v>      -0.01232982      -0.00275521      -0.04809701 </v>
   <v>      -0.00494269       0.00211312      -0.02371333 </v>
   <v>      -0.00019766       0.01665416      -0.00547400 </v>
   <v>      -0.00030986       0.00262647      -0.02809151 </v>
   <v>       0.00323411       0.00540677       0.01988524 </v>
   <v>       0.00042930      -0.00387536       0.00681292 </v>
   <v>       0.01106796      -0.00159237       0.04190804 </v>
   <v>       0.04111399       0.02656945       0.03340841 </v>
   <v>       0.00764037      -0.00216490       0.01202115 </v>
   <v>       0.00215305      -0.00530816      -0.03251804 </v>
   <v>      -0.00741323      -0.00405273      -0.02123583 </v>
   <v>       0.01091448       0.00418659      -0.04646111 </v>
   <v>      -0.01498108      -0.00345303      -0.00916489 </v>
   <v>      -0.00983421       0.00671709       0.02275443 </v>
   <v>      -0.01248179      -0.00512421       0.03245498 </v>
   <v>       0.00251581       0.00808338      -0.02828421 </v>
   <v>      -0.00618781      -0.00875874       0.04045533 </v>
   <v>       0.00108916      -0.06581277       0.00164544 </v>
   <v>      -0.00594874      -0.00825937       0.01846630 </v>
   <v>      -0.00191182       0.00886439       0.01331998 </v>
   <v>       0.00325305       0.00405798      -0.02446960 </v>
   <v>      -0.00429674       0.00390194      -0.01579900 </v>
   <v>      -0.00231665       0.00684258       0.00478018 </v>
   <v>      -0.01645838       0.00454114       0.03162357 </v>
   <v>       0.01071477      -0.00035123       0.01142952 </v>
   <v>      -0.00593493      -0.00065577       0.03768047 </v>
   <v>      -0.02536559       0.01306748       0.03783195 </v>
   <v>       0.00512236      -0.01219401      -0.01635978 </v>
   <v>      -0.00193558       0.00819457       0.01312602 </v>
   <v>      -0.00808015      -0.01936608      -0.03030541 </v>
   <v>       0.00318510       0.00655559      -0.01879905 </v>
   <v>       0.00417987       0.00726186      -0.02329379 </v>
   <v>       0.01785953       0.00127759      -0.03309252 </v>
   <v>      -0.04675105       0.02747055       0.04015275 </v>
   <v>       0.02933603      -0.01980601       0.02464077 </v>
   <v>      -0.00429639      -0.00053170       0.02021463 </v>
   <v>      -0.00546751      -0.00253430      -0.03108957 </v>
   <v>      -0.00513330       0.01001863      -0.02078076 </v>
   <v>      -0.00128787      -0.00296291      -0.00659607 </v>
   <v>       0.01028467      -0.00367555      -0.00777858 </v>
   <v>       0.00227397      -0.00548910      -0.00212557 </v>
   <v>       0.03013491      -0.00355089       0.03662332 </v>
   <v>      -0.00675335       0.01287618       0.00815053 </v>
   <v>       0.01264003      -0.00479723       0.07411656 </v>
   <v>       0.00097753      -0.01296570      -0.02570517 </v>
   <v>      -0.00756786       0.01974364       0.01175509 </v>
   <v>      -0.00082645       0.00458144       0.01172669 </v>
   <v>      -0.00200719       0.00291740      -0.02895558 </v>
   <v>      -0.00004112       0.01125001      -0.03052632 </v>
   <v>      -0.00090766       0.01084958      -0.01821149 </v>
   <v>      -0.00042292       0.01300172       0.00133360 </v>
   <v>      -0.00114722       0.00650579       0.02249416 </v>
   <v>      -0.03304894       0.01388012      -0.03015314 </v>
   <v>       0.00886744      -0.00128303      -0.02623723 </v>
   <v>      -0.00860384      -0.00650292       0.03533373 </v>
   <v>      -0.00087116      -0.01200960       0.00424503 </v>
   <v>      -0.00122632      -0.00505398      -0.01300731 </v>
   <v>       0.00560510      -0.01903013      -0.02051622 </v>
   <v>       0.01208450       0.00144618       0.01250927 </v>
   <v>       0.00028514       0.00289513       0.04690918 </v>
   <v>       0.00193894       0.00184836       0.00285714 </v>
   <v>      -0.02564195       0.04535949       0.00090104 </v>
   <v>       0.00363010      -0.00075907       0.01768468 </v>
   <v>      -0.00860326      -0.00349733      -0.03553491 </v>
   <v>      -0.01093219       0.00391432      -0.03740282 </v>
   <v>      -0.02466911       0.01735315       0.02082872 </v>
   <v>       0.02617271       0.01182178       0.02596407 </v>
   <v>      -0.00897254      -0.01006095       0.05129072 </v>
   <v>      -0.00672291      -0.00868868       0.04277748 </v>
   <v>      -0.00717778      -0.02207330      -0.04298051 </v>
   <v>      -0.00766922      -0.00815554       0.04930517 </v>
   <v>       0.00384904       0.00411840      -0.02513189 </v>
   <v>      -0.00056535       0.01607198       0.02242917 </v>
   <v>      -0.00389150       0.00660739      -0.02325855 </v>
   <v>       0.00305540      -0.03095345      -0.00934627 </v>
   <v>       0.00874798      -0.07364479       0.02688414 </v>
   <v>       0.04990718       0.05232408       0.03524773 </v>
   <v>      -0.00068497      -0.00657499      -0.00303459 </v>
   <v>      -0.00624491      -0.00130234      -0.03607557 </v>
   <v>       0.01144197       0.00363541      -0.01960883 </v>
   <v>      -0.01191142       0.00054295      -0.02355605 </v>
   <v>      -0.00029827      -0.00758137      -0.03708810 </v>
   <v>      -0.00037623       0.01450621      -0.00770704 </v>
   <v>      -0.00154756       0.00004986       0.02013214 </v>
   <v>       0.00139592      -0.00144123      -0.02454301 </v>
   <v>      -0.00792904       0.08758748       0.00425636 </v>
   <v>      -0.00277968      -0.00290200      -0.01612161 </v>
   <v>       0.00875589      -0.01289149      -0.03031191 </v>
   <v>      -0.00359657      -0.00353068       0.01974283 </v>
   <v>      -0.00194128      -0.01030032      -0.01364534 </v>
   <v>      -0.06706891      -0.05022939       0.02602208 </v>
   <v>       0.00195748       0.01087231      -0.02402672 </v>
   <v>       0.00115051      -0.00338426       0.04759239 </v>
   <v>       0.00331970       0.01149827       0.00986058 </v>
   <v>      -0.00775067      -0.00211646       0.06319685 </v>
   <v>       0.01483994      -0.00753642      -0.01093521 </v>
   <v>       0.00420490       0.00808302      -0.03780286 </v>
   <v>      -0.00193969      -0.00168446       0.04348814 </v>
   <v>       0.00731249       0.00334817       0.00809412 </v>
   <v>       0.00094505      -0.00019753       0.00943914 </v>
   <v>       0.00439790      -0.01396899       0.02315292 </v>
   <v>       0.00509576       0.01149367      -0.03803994 </v>
   <v>      -0.00168361      -0.02475040      -0.00571367 </v>
   <v>      -0.00144537      -0.00489662       0.01009866 </v>
   <v>      -0.01184461      -0.00228946      -0.04566825 </v>
   <v>      -0.00554609       0.01510973       0.02987516 </v>
   <v>       0.00413570       0.00397319      -0.02564660 </v>
   <v>      -0.00194237      -0.01330181       0.02872537 </v>
   <v>       0.00036377      -0.01206883       0.00624046 </v>
   <v>      -0.00028377      -0.01825275       0.01066355 </v>
   <v>       0.00483790      -0.00653063      -0.01690813 </v>
   <v>      -0.01711621      -0.01068336      -0.00378536 </v>
   <v>      -0.02534292      -0.05903261       0.02786452 </v>
   <v>       0.01265616       0.00759070       0.03687251 </v>
   <v>       0.00288278       0.01234949      -0.00182841 </v>
   <v>       0.04336469      -0.08315691       0.02082265 </v>
   <v>      -0.00096680       0.00209977       0.04779404 </v>
   <v>      -0.01957140       0.02634995       0.03747859 </v>
   <v>       0.00519566       0.00968732      -0.01603026 </v>
   <v>       0.05664543      -0.07346407       0.02933009 </v>
   <v>       0.00238303       0.00009338       0.06070655 </v>
   <v>      -0.00005066       0.00798661       0.03342373 </v>
   <v>       0.00104990       0.00172871       0.00211164 </v>
   <v>      -0.00009722       0.01287221      -0.02278922 </v>
   <v>      -0.01132634      -0.00411030      -0.00038877 </v>
   <v>       0.00848292      -0.00139619      -0.04677309 </v>
   <v>       0.00221053      -0.00774553      -0.03248866 </v>
   <v>      -0.00775375       0.01564154       0.02865000 </v>
   <v>       0.02497195       0.01848311       0.03578439 </v>
   <v>       0.00696997      -0.01286708      -0.02628501 </v>
   <v>      -0.00723509       0.02198894       0.04013731 </v>
   <v>      -0.00646932      -0.03494986      -0.00554092 </v>
   <v>      -0.00648526       0.00490764       0.00907811 </v>
   <v>       0.00201416      -0.00681563       0.02867519 </v>
   <v>       0.00282340      -0.00277821      -0.01850557 </v>
   <v>       0.00130310       0.00930079       0.02973326 </v>
   <v>      -0.00598838       0.00620493      -0.01911238 </v>
   <v>      -0.00100761      -0.00173336       0.03214785 </v>
   <v>      -0.01039680       0.01072399       0.03644874 </v>
   <v>      -0.00693791      -0.00138699      -0.00955215 </v>
   <v>      -0.00141868      -0.00056355      -0.00996700 </v>
   <v>      -0.00490058      -0.00700149      -0.02665113 </v>
   <v>       0.00129004      -0.00891502       0.02467366 </v>
   <v>       0.00841784       0.00133984       0.02551148 </v>
   <v>      -0.00041280      -0.01875295       0.00545128 </v>
   <v>      -0.00395470       0.00543501       0.03031186 </v>
   <v>      -0.04144108      -0.04759061      -0.00939667 </v>
   <v>      -0.00559658      -0.00541632       0.02009342 </v>
   <v>       0.00237064      -0.00240696       0.00295445 </v>
   <v>       0.00124351       0.00244411       0.00571478 </v>
   <v>      -0.00028957      -0.01277850      -0.02099141 </v>
   <v>      -0.00791659       0.01302626       0.01352113 </v>
   <v>      -0.00232748      -0.00478111      -0.04489059 </v>
   <v>      -0.00089038       0.00244263      -0.02375045 </v>
   <v>       0.00692104       0.00304996      -0.02611992 </v>
   <v>       0.00468292      -0.00598411      -0.03649673 </v>
   <v>       0.00795718      -0.02084877      -0.01885698 </v>
   <v>      -0.00126276      -0.00581991      -0.03339825 </v>
   <v>      -0.00988312      -0.00157838      -0.02424618 </v>
   <v>      -0.00764695       0.00495376       0.03526903 </v>
   <v>      -0.01268379       0.00333152      -0.04616066 </v>
   <v>       0.00157657       0.00405853      -0.01637253 </v>
   <v>      -0.00412975       0.00824084       0.02147555 </v>
   <v>      -0.00631131      -0.05117447      -0.00959622 </v>
   <v>      -0.00636251      -0.00099194      -0.02319874 </v>
   <v>      -0.00208885       0.01639375      -0.00931983 </v>
  </varray>
  <varray name="stress" >
   <v>      -8.01879352      -0.07859056      -0.00355646 </v>
   <v>      -0.07859042      -3.78174669      -5.62064939 </v>
   <v>      -0.00355698      -5.62064997     -27.94395990 </v>
  </varray>
  <energy>
   <i name="e_fr_energy">  -2325.58811862 </i>
   <i name="e_wo_entrp">  -2322.79371516 </i>
   <i name="e_0_energy">     -5.58880693 </i>
  </energy>
  <time name="totalsc"> 2460.55 2460.54</time>
 </calculation>
 <calculation>
  <scstep>
   <time name="dav">  134.71  134.71</time>
   <time name="total">  140.96  140.96</time>
   <energy>
    <i name="alphaZ">  16277.55763135 </i>
    <i name="ewald"> 734820.19138178 </i>
    <i name="hartreedc">-921974.08536406 </i>
    <i name="XCdc">  -6676.34469087 </i>
    <i name="pawpsdc"> 200825.81350505 </i>
    <i name="pawaedc">-198377.36292774 </i>
    <i name="eentropy">     -5.57925773 </i>
    <i name="bandstr">   4287.06168169 </i>
    <i name="atom"> 168497.18126305 </i>
    <i name="e_fr_energy">  -2325.56677748 </i>
    <i name="e_wo_entrp">  -2319.98751975 </i>
    <i name="e_0_energy">  -2322.77714861 </i>
   </energy>
  </scstep>
  <scstep>
   <time name="diag">   29.03   29.03</time>
   <time name="diis">   47.72   47.72</time>
   <time name="orth">    8.60    8.59</time>
   <time name="total">   90.72   90.72</time>
   <energy>
    <i name="e_fr_energy">  -2346.00010765 </i>
    <i name="e_wo_entrp">  -2340.41628767 </i>
    <i name="e_0_energy">  -2343.20819766 </i>
   </energy>
  </scstep>
  <scstep>
   <time name="diag">   30.08   30.08</time>
   <time name="diis">   46.54   46.54</time>
   <time name="orth">    9.10    9.10</time>
   <time name="total">   91.02   91.02</time>
   <energy>
    <i name="e_fr_energy">  -2330.21292543 </i>
    <i name="e_wo_entrp">  -2324.55104253 </i>
    <i name="e_0_energy">  -2327.38198398 </i>
   </energy>
  </scstep>
  <scstep>
   <time name="diag">   29.97   29.97</time>
   <time name="diis">   45.30   45.30</time>
   <time name="orth">    8.61    8.61</time>
   <time name="total">   89.98   89.98</time>
   <energy>
    <i name="e_fr_energy">  -2331.40198900 </i>
    <i name="e_wo_entrp">  -2325.75992642 </i>
    <i name="e_0_energy">  -2328.58095771 </i>
   </energy>
  </scstep>
  <scstep>
   <time name="diag">   29.63   29.63</time>
   <time name="diis">   47.18   47.17</time>
   <time name="orth">    8.78    8.78</time>
   <time name="total">   90.93   90.93</time>
   <energy>
    <i name="e_fr_energy">  -2326.40599253 </i>
    <i name="e_wo_entrp">  -2320.86317556 </i>
    <i name="e_0_energy">  -2323.63458404 </i>
   </energy>
  </scstep>
  <scstep>
   <time name="diag">   29.30   29.30</time>
   <time name="diis">   44.52   44.52</time>
   <time name="orth">    8.71    8.71</time>
   <time name="total">   87.90   87.90</time>
   <energy>
    <i name="e_fr_energy">  -2326.69050410 </i>
    <i name="e_wo_entrp">  -2321.12749103 </i>
    <i name="e_0_energy">  -2323.90899756 </i>
   </energy>
  </scstep>
  <scstep>
   <time name="diag">   29.35   29.35</time>
   <time name="diis">   51.79   51.79</time>
   <time name="orth">    9.02    9.02</time>
   <time name="total">   96.03   96.03</time>
   <energy>
    <i name="e_fr_energy">  -2326.99153717 </i>
    <i name="e_wo_entrp">  -2321.32462285 </i>
    <i name="e_0_energy">  -2324.15808001 </i>
   </energy>
  </scstep>
  <scstep>
   <time name="diag">   30.56   30.56</time>
   <time name="diis">   44.29   44.29</time>
   <time name="orth">    8.90    8.90</time>
   <time name="total">   89.09   89.09</time>
   <energy>
    <i name="e_fr_energy">  -2325.99494277 </i>
    <i name="e_wo_entrp">  -2320.41756937 </i>
    <i name="e_0_energy">  -2323.20625607 </i>
   </energy>
  </scstep>
  <scstep>
   <time name="diag">   30.68   30.68</time>
   <time name="diis">   44.08   44.08</time>
   <time name="orth">    8.57    8.57</time>
   <time name="total">   89.08   89.08</time>
   <energy>
    <i name="e_fr_energy">  -2325.73709055 </i>
    <i name="e_wo_entrp">  -2320.14866013 </i>
    <i name="e_0_energy">  -2322.94287534 </i>
   </energy>
  </scstep>
  <scstep>
   <time name="diag">   29.07   29.07</time>
   <time name="diis">   48.73   48.73</time>
   <time name="orth">    8.65    8.65</time>
   <time name="total">   91.83   91.83</time>
   <energy>
    <i name="e_fr_energy">  -2325.71661023 </i>
    <i name="e_wo_entrp">  -2320.14295529 </i>
    <i name="e_0_energy">  -2322.92978276 </i>
   </energy>
  </scstep>
  <scstep>
   <time name="diag">   28.85   28.85</time>
   <time name="diis">   48.67   48.66</time>
   <time name="orth">    8.67    8.67</time>
   <time name="total">   91.55   91.55</time>
   <energy>
    <i name="e_fr_energy">  -2325.65195410 </i>
    <i name="e_wo_entrp">  -2320.07798012 </i>
    <i name="e_0_energy">  -2322.86496711 </i>
   </energy>
  </scstep>
  <scstep>
   <time name="diag">   28.90   28.90</time>
   <time name="diis">   47.67   47.67</time>
   <time name="orth">    8.63    8.63</time>
   <time name="total">   90.59   90.59</time>
   <energy>
    <i name="e_fr_energy">  -2325.63117561 </i>
    <i name="e_wo_entrp">  -2320.05482766 </i>
    <i name="e_0_energy">  -2322.84300163 </i>
   </energy>
  </scstep>
  <scstep>
   <time name="diag">   29.22   29.22</time>
   <time name="diis">   52.46   52.45</time>
   <time name="orth">    8.87    8.87</time>
   <time name="total">   95.90   95.90</time>
   <energy>
    <i name="e_fr_energy">  -2325.62872303 </i>
    <i name="e_wo_entrp">  -2320.05558251 </i>
    <i name="e_0_energy">  -2322.84215277 </i>
   </energy>
  </scstep>
  <scstep>
   <time name="diag">   30.30   30.30</time>
   <time name="diis">   48.79   48.78</time>
   <time name="orth">    8.76    8.76</time>
   <time name="total">   93.23   93.23</time>
   <energy>
    <i name="e_fr_energy">  -2325.62252077 </i>
    <i name="e_wo_entrp">  -2320.04014368 </i>
    <i name="e_0_energy">  -2322.83133223 </i>
   </energy>
  </scstep>
  <scstep>
   <time name="diag">   29.98   29.98</time>
   <time name="diis">   48.00   47.99</time>
   <time name="orth">    9.38    9.38</time>
   <time name="total">   92.70   92.70</time>
   <energy>
    <i name="e_fr_energy">  -2325.61919409 </i>
    <i name="e_wo_entrp">  -2320.03397767 </i>
    <i name="e_0_energy">  -2322.82658588 </i>
   </energy>
  </scstep>
  <scstep>
   <time name="diag">   31.41   31.41</time>
   <time name="diis">   57.54   57.54</time>
   <time name="orth">    8.71    8.71</time>
   <time name="total">  103.06  103.06</time>
   <energy>
    <i name="e_fr_energy">  -2325.61872105 </i>
    <i name="e_wo_entrp">  -2320.03496282 </i>
    <i name="e_0_energy">  -2322.82684194 </i>
   </energy>
  </scstep>
  <scstep>
   <time name="diag">   28.94   28.94</time>
   <time name="diis">   49.52   49.52</time>
   <time name="orth">    9.02    9.02</time>
   <time name="total">   92.81   92.81</time>
   <energy>
    <i name="e_fr_energy">  -2325.61768275 </