unknown system                          
            1
     9.726678    0.000000    0.000000
     0.000000    8.423550    0.000000
     0.000000    0.000000   45.000000
   Fe   Mn
 273  15
Direct configuration=     1
   0.56271128  0.87617716  0.65452365
   0.31231798  0.19734276  0.21113634
   0.43768208  0.46213768  0.69895751
   0.18794837  0.11762100  0.30037928
   0.68764684  0.62642451  0.65452764
   0.06093712  0.71828525  0.83502284
   0.93823934  0.11160726  0.16533808
   0.81252835  0.02587819  0.12349699
   0.68727947  0.12254172  0.52139973
   0.93953622  0.80073926  0.87754966
   0.18769857  0.13102088  0.78881606
   0.06246264  0.54113377  0.61022831
   0.93789156  0.78654166  0.38852270
   0.18790916  0.60958365  0.16627917
   0.93765320  0.95215108  0.34462518
   0.56195272  0.88231278  0.78875989
   0.06220798  0.52843073  0.12310943
   0.31252363  0.70597159  0.56545093
   0.93752107  0.28315085  0.25628069
   0.93793998  0.29597666  0.74355128
   0.31207060  0.69591063  0.21119078
   0.68731114  0.45747777  0.56554685
   0.43373992  0.29833408  0.87760872
   0.43682747  0.61724851  0.30050422
   0.31256963  0.54141281  0.61029584
   0.81231341  0.04581611  0.74357983
   0.93754677  0.95645906  0.56591124
   0.06253148  0.04027579  0.61055050
   0.56467710  0.71630763  0.83541933
   0.06300774  0.19802247  0.21047207
   0.93748528  0.13128933  0.78903800
   0.93813576  0.45687937  0.56571010
   0.06305580  0.88192449  0.78866348
   0.06199845  0.37531527  0.65462901
   0.93649082  0.95923127  0.69881011
   0.43738527  0.29537469  0.74363511
   0.68681239  0.46079843  0.69891853
   0.81272588  0.70128753  0.34471127
   0.81182843  0.21689721  0.83527249
   0.81209049  0.86747312  0.30035733
   0.31241066  0.70201327  0.34490613
   0.93754484  0.12132371  0.43431838
   0.43639196  0.80091939  0.87743286
   0.68677161  0.96034693  0.69879924
   0.68863553  0.60888807  0.16657221
   0.43776497  0.46317736  0.83497709
   0.31267424  0.87274393  0.52165013
   0.43662230  0.60883963  0.16624381
   0.68699251  0.63065119  0.78909757
   0.93711922  0.46712939  0.83483019
   0.18813110  0.30102432  0.87745912
   0.43692345  0.13048195  0.78908264
   0.06171852  0.21009187  0.69895955
   0.31322950  0.04597890  0.74366731
   0.93786465  0.28762932  0.38886032
   0.93780604  0.30525572  0.87723459
   0.93558284  0.79530986  0.74361195
   0.81138139  0.05286877  0.87699069
   0.31234210  0.70511086  0.47884501
   0.81290757  0.21017972  0.69895757
   0.31273442  0.87180819  0.43442681
   0.18694830  0.12168473  0.43432161
   0.68798042  0.12558952  0.65468504
   0.19103505  0.79636860  0.74375469
   0.31390453  0.54835863  0.74372101
   0.81072967  0.88086039  0.78913628
   0.31172696  0.37075938  0.43419979
   0.06224925  0.69709280  0.21059938
   0.93733329  0.11814001  0.30067722
   0.43823387  0.96969924  0.83528754
   0.68789282  0.94770384  0.21102193
   0.93779868  0.45210882  0.34517820
   0.68856577  0.44618666  0.21103825
   0.81296270  0.54150076  0.61029866
   0.43763848  0.79684571  0.74371821
   0.43720226  0.28648131  0.38887784
   0.31290318  0.87568745  0.65456568
   0.43815906  0.62674719  0.65457098
   0.31209305  0.53560908  0.38881443
   0.43711490  0.95653751  0.56557438
   0.93775495  0.12260219  0.52155523
   0.68832801  0.45167318  0.34475000
   0.31275267  0.86629461  0.30029498
   0.06221866  0.03274093  0.25525656
   0.81324142  0.20586432  0.47877646
   0.06093211  0.37985676  0.78884648
   0.06360884  0.02671734  0.12326526
   0.43769676  0.12245949  0.52138031
   0.56304826  0.86056682  0.16647233
   0.43820873  0.11019712  0.16626073
   0.06322882  0.04526242  0.74363991
   0.31286687  0.03161089  0.25556254
   0.43700635  0.29194803  0.61024428
   0.81259641  0.37251799  0.43425184
   0.68772668  0.27506028  0.12363745
   0.43735078  0.79070799  0.61036701
   0.68845722  0.29499999  0.74363752
   0.69159050  0.30075189  0.87758189
   0.81196676  0.87346214  0.52143767
   0.56313230  0.87340077  0.52152111
   0.56269532  0.19637468  0.21121040
   0.31280883  0.37617732  0.65461064
   0.43698309  0.11596107  0.30033145
   0.31230292  0.36681969  0.30038510
   0.56232746  0.37731350  0.65465140
   0.43840593  0.27925448  0.12421503
   0.81291951  0.37258681  0.52156902
   0.81223964  0.38080903  0.78899135
   0.18691651  0.45214602  0.34482551
   0.93810078  0.29113426  0.61047931
   0.93715900  0.60820305  0.16596277
   0.18602037  0.27662037  0.12360133
   0.18645218  0.45492292  0.47879793
   0.56220954  0.37207993  0.52152870
   0.81218070  0.54573001  0.74396296
   0.06202530  0.20627585  0.56556581
   0.31138335  0.52629879  0.12368577
   0.18709842  0.95611401  0.47885737
   0.43712614  0.12151398  0.43418436
   0.06197181  0.70484045  0.47887127
   0.68827486  0.45548516  0.47901679
   0.81546648  0.35878454  0.16554711
   0.68673996  0.79555657  0.74355862
   0.56288583  0.71176426  0.69879722
   0.81319973  0.69732349  0.21088377
   0.43731575  0.12600387  0.65472712
   0.18804980  0.78234029  0.25540131
   0.43686802  0.45154565  0.34486048
   0.18753912  0.61601162  0.30063659
   0.93825943  0.45549162  0.47879120
   0.18725345  0.95209698  0.34466332
   0.18750548  0.45684641  0.56541695
   0.93882463  0.96876718  0.83456378
   0.18806826  0.95955629  0.69882293
   0.93704141  0.62953283  0.78879591
   0.68709995  0.78229049  0.25573902
   0.56212174  0.03117290  0.25561280
   0.93714763  0.79119016  0.61020612
   0.06304138  0.37137336  0.43430639
   0.43754437  0.62267843  0.52158192
   0.31204957  0.20148814  0.34461343
   0.56225766  0.53158797  0.25606324
   0.06232580  0.70671653  0.56564468
   0.81262977  0.87575273  0.65443322
   0.56241190  0.03726277  0.38889870
   0.56361968  0.02451855  0.12442050
   0.18757223  0.28147878  0.25548563
   0.68754815  0.12253545  0.43419620
   0.68884302  0.77703791  0.12409013
   0.68903144  0.96918451  0.83511385
   0.06261033  0.20610702  0.47875231
   0.56185910  0.04496235  0.74360487
   0.81353361  0.19773259  0.21018467
   0.18802891  0.62597097  0.65457522
   0.31308918  0.71173252  0.69883291
   0.31143050  0.20530074  0.47889056
   0.56250749  0.20574983  0.47876793
   0.43732100  0.28191484  0.25563980
   0.31165435  0.21076969  0.69885609
   0.06343483  0.05211386  0.87756702
   0.68699752  0.95092407  0.34483709
   0.31117937  0.04884369  0.87741560
   0.56300485  0.37869493  0.78924804
   0.06225811  0.87271215  0.52169675
   0.06195962  0.53156748  0.25581876
   0.43739719  0.62119555  0.43427108
   0.43756363  0.63162255  0.78854429
   0.93662831  0.78271570  0.25579469
   0.81206449  0.53263797  0.25627882
   0.18719444  0.79055854  0.61029730
   0.56248318  0.54217409  0.61048196
   0.43684302  0.45651134  0.56556460
   0.31225156  0.03765645  0.38887884
   0.56164237  0.36686168  0.30049567
   0.56311866  0.70548393  0.47890480
   0.81345786  0.20703604  0.56590895
   0.06258340  0.86703966  0.30046765
   0.06229847  0.53681579  0.38895651
   0.68704113  0.13146770  0.78915785
   0.31312251  0.21844191  0.83555410
   0.31263931  0.53147025  0.25586031
   0.81346997  0.36758926  0.30076425
   0.56264073  0.70597543  0.56587699
   0.81296854  0.70580723  0.47900523
   0.43733908  0.78595418  0.38857856
   0.31140981  0.04016312  0.61023137
   0.18728580  0.29090545  0.61014051
   0.06270858  0.37199936  0.52156795
   0.31077305  0.02439476  0.12444273
   0.18753656  0.62107801  0.43432364
   0.93745988  0.62154060  0.43412969
   0.06186868  0.54628427  0.74384063
   0.93826977  0.61744183  0.30065978
   0.18615957  0.97011828  0.83514941
   0.31121297  0.86054603  0.16609010
   0.81228130  0.70631433  0.56576384
   0.31258486  0.37944743  0.78930642
   0.93781557  0.62304590  0.52150179
   0.18736312  0.12207569  0.52161083
   0.18749206  0.63121133  0.78882011
   0.18725509  0.46091433  0.69874111
   0.18702950  0.44614881  0.21072503
   0.18725590  0.95592647  0.56583175
   0.06228000  0.71047760  0.69877142
   0.56291874  0.69532712  0.21104049
   0.56194625  0.86719988  0.30027819
   0.56292939  0.21689890  0.83510210
   0.43707109  0.45534515  0.47873325
   0.81168010  0.55295565  0.87794566
   0.81320939  0.04058490  0.61055199
   0.81248032  0.03201297  0.25567287
   0.93783801  0.12508177  0.65466458
   0.18704561  0.62215233  0.52159603
   0.93700255  0.62623257  0.65455243
   0.68787061  0.62156933  0.43451175
   0.06271312  0.03790345  0.38876444
   0.81211585  0.87173772  0.43446955
   0.68782371  0.46655265  0.83566967
   0.68711708  0.29183778  0.61027752
   0.06233487  0.36733322  0.30087677
   0.81324361  0.20248091  0.34479929
   0.81253473  0.03729089  0.38871688
   0.56263337  0.53654403  0.38880918
   0.56228869  0.54792111  0.74339475
   0.18920309  0.46596344  0.83519906
   0.18743492  0.78642067  0.38882888
   0.81206590  0.71007557  0.69898633
   0.81372476  0.86123953  0.16612265
   0.68781422  0.79150228  0.61050640
   0.68705256  0.11656975  0.30045035
   0.56209165  0.20089040  0.34467860
   0.81311008  0.53696748  0.38888238
   0.18573906  0.80065343  0.87764255
   0.56398069  0.04701996  0.87780724
   0.31219209  0.37161540  0.52164142
   0.68876745  0.11056773  0.16610008
   0.43751229  0.94639189  0.21115706
   0.43730324  0.95559597  0.47876358
   0.06232642  0.87106702  0.43431894
   0.81335521  0.52723642  0.12318331
   0.81241946  0.37646809  0.65458814
   0.68783621  0.62321519  0.52162807
   0.56276315  0.87201318  0.43443358
   0.06250092  0.86179506  0.16591782
   0.18730751  0.28703439  0.38889292
   0.93730489  0.94891823  0.21075696
   0.81316087  0.71937679  0.83559767
   0.56180547  0.20746761  0.56566774
   0.43795233  0.96087443  0.69884869
   0.18595830  0.10979318  0.16587449
   0.18596987  0.77769478  0.12361272
   0.06232500  0.21666475  0.83551424
   0.93698842  0.77695325  0.12346102
   0.56466848  0.55181800  0.87772993
   0.06278903  0.20314878  0.34506312
   0.56230239  0.37172227  0.43424099
   0.31242556  0.71687204  0.83523993
   0.43691030  0.77651879  0.12451300
   0.93796835  0.44573789  0.21035664
   0.06113098  0.35809535  0.16559768
   0.56359048  0.52514683  0.12397965
   0.43713356  0.44608718  0.21110768
   0.56225737  0.70182304  0.34493400
   0.18629900  0.29468045  0.74330131
   0.68809667  0.78624317  0.38888007
   0.43767567  0.78121079  0.25603939
   0.06264835  0.70158047  0.34498986
   0.31247510  0.36027086  0.16604297
   0.93739352  0.95554338  0.47891351
   0.68737520  0.28349494  0.25616555
   0.68788875  0.95657665  0.56545652
   0.68742529  0.28800668  0.38863041
   0.06226827  0.55310656  0.87746471
   0.93832093  0.27935016  0.12258238
   0.56263135  0.21005310  0.69889839
   0.18721953  0.12626455  0.65443935
   0.31267957  0.88247636  0.78853952
   0.56237051  0.04171280  0.61049736
   0.31133779  0.54991680  0.87758324
   0.93755012  0.45998524  0.69889025
   0.68690570  0.80039680  0.87734868
   0.68672558  0.61778005  0.30033117
   0.31223312  0.20596641  0.56567948
   0.43711697  0.95148698  0.34496153
   0.56203549  0.35920611  0.16597466
   0.68825071  0.95573851  0.47897662
   0.06174397  0.87450799  0.65434907
   0.18694015  0.94803745  0.21117948
Direct configuration=     2
   0.56260693  0.87627268  0.65443352
   0.31241341  0.19714785  0.21125804
   0.43760979  0.46175478  0.69903390
   0.18782121  0.11742136  0.30029869
   0.68768003  0.62615920  0.65446988
   0.06160752  0.71793155  0.83494476
   0.93811037  0.11147620  0.16535861
   0.81224222  0.02598796  0.12352678
   0.68745905  0.12299380  0.52146143
   0.93930104  0.80099960  0.87747695
   0.18753384  0.13100012  0.78878914
   0.06250306  0.54102017  0.61023353
   0.93791428  0.78666999  0.38868942
   0.18796884  0.60996036  0.16627618
   0.93768066  0.95202816  0.34467407
   0.56201606  0.88175302  0.78880372
   0.06235562  0.52841814  0.12322202
   0.31261440  0.70604375  0.56544492
   0.93756669  0.28299972  0.25621132
   0.93784067  0.29603967  0.74368122
   0.31219512  0.69601153  0.21126523
   0.68730213  0.45733405  0.56554603
   0.43441989  0.29864193  0.87760114
   0.43680814  0.61719728  0.30044343
   0.31249117  0.54129037  0.61025403
   0.81242954  0.04586232  0.74370108
   0.93741182  0.95650054  0.56583862
   0.06259782  0.04055894  0.61046838
   0.56425688  0.71654730  0.83533921
   0.06296809  0.19787337  0.21070852
   0.93745827  0.13117121  0.78899949
   0.93794286  0.45685379  0.56569868
   0.06295725  0.88156498  0.78866395
   0.06209304  0.37554859  0.65454811
   0.93673688  0.95933951  0.69893499
   0.43741928  0.29572211  0.74374295
   0.68683469  0.46071412  0.69897678
   0.81264899  0.70144056  0.34475241
   0.81205444  0.21713598  0.83511544
   0.81225659  0.86750268  0.30028311
   0.31249290  0.70217419  0.34491107
   0.93747657  0.12137162  0.43431453
   0.43656827  0.80079043  0.87737954
   0.68691317  0.96044293  0.69889155
   0.68833616  0.60915086  0.16653228
   0.43743178  0.46443609  0.83492911
   0.31262823  0.87261580  0.52163565
   0.43683225  0.60905139  0.16626443
   0.68692427  0.63072897  0.78909814
   0.93727054  0.46743266  0.83471589
   0.18816493  0.30100440  0.87745152
   0.43708343  0.13056512  0.78903144
   0.06196489  0.21009655  0.69903223
   0.31304495  0.04620187  0.74377398
   0.93773729  0.28735688  0.38901512
   0.93777482  0.30476681  0.87723335
   0.93601143  0.79526948  0.74369634
   0.81181941  0.05234608  0.87702180
   0.31244139  0.70516565  0.47869961
   0.81278450  0.21030360  0.69903161
   0.31268425  0.87175190  0.43440776
   0.18693137  0.12158380  0.43432911
   0.68785937  0.12595225  0.65456822
   0.19020470  0.79616751  0.74385331
   0.31360843  0.54775146  0.74386724
   0.81106447  0.88063792  0.78911800
   0.31185877  0.37079168  0.43425346
   0.06242755  0.69712243  0.21079369
   0.93740205  0.11793463  0.30056451
   0.43820728  0.96871163  0.83521776
   0.68776877  0.94741667  0.21114659
   0.93765958  0.45215379  0.34515511
   0.68834870  0.44646263  0.21120419
   0.81291257  0.54130221  0.61024346
   0.43762413  0.79657455  0.74383931
   0.43733209  0.28636148  0.38897712
   0.31286327  0.87576159  0.65448296
   0.43806195  0.62645035  0.65447938
   0.31220239  0.53588754  0.38894937
   0.43729245  0.95659095  0.56556864
   0.93753028  0.12261438  0.52157646
   0.68807795  0.45172592  0.34479604
   0.31258410  0.86650931  0.30025065
   0.06232429  0.03256140  0.25535585
   0.81309740  0.20589807  0.47861195
   0.06114008  0.38025250  0.78884000
   0.06370499  0.02676764  0.12328542
   0.43774204  0.12250638  0.52140368
   0.56289539  0.86017790  0.16649280
   0.43827005  0.11014449  0.16631945
   0.06308131  0.04530515  0.74374415
   0.31263155  0.03152169  0.25561106
   0.43714491  0.29172481  0.61021818
   0.81256468  0.37232649  0.43427985
   0.68737874  0.27534767  0.12364625
   0.43739586  0.79088992  0.61029666
   0.68820811  0.29526701  0.74373765
   0.69080941  0.30068616  0.87756659
   0.81230786  0.87319720  0.52151776
   0.56280147  0.87302821  0.52155783
   0.56270648  0.19647040  0.21134222
   0.31278193  0.37600021  0.65453939
   0.43699456  0.11608492  0.30031012
   0.31236678  0.36675896  0.30031107
   0.56240806  0.37696076  0.65457855
   0.43840763  0.27885608  0.12413065
   0.81277820  0.37260953  0.52161680
   0.81231736  0.38107826  0.78896355
   0.18707925  0.45216526  0.34483428
   0.93789204  0.29127089  0.61041733
   0.93720660  0.60865136  0.16590971
   0.18644797  0.27682470  0.12360260
   0.18685269  0.45500087  0.47864636
   0.56229730  0.37236722  0.52154155
   0.81222786  0.54575027  0.74403400
   0.06196628  0.20643806  0.56555985
   0.31173481  0.52640381  0.12374007
   0.18725459  0.95576887  0.47869733
   0.43721200  0.12139938  0.43422065
   0.06215454  0.70505407  0.47870282
   0.68802067  0.45547678  0.47882618
   0.81496158  0.35933685  0.16553595
   0.68704983  0.79548251  0.74368840
   0.56292076  0.71144533  0.69889260
   0.81302588  0.69713765  0.21103559
   0.43743004  0.12618324  0.65459751
   0.18782790  0.78225846  0.25544415
   0.43708428  0.45159153  0.34486759
   0.18744072  0.61622143  0.30047874
   0.93800062  0.45549804  0.47863226
   0.18726436  0.95207570  0.34470198
   0.18750882  0.45688770  0.56543777
   0.93859744  0.96819280  0.83450989
   0.18793620  0.95975805  0.69890878
   0.93723620  0.62978048  0.78877496
   0.68723402  0.78225968  0.25572113
   0.56223082  0.03134531  0.25566981
   0.93710054  0.79112125  0.61016333
   0.06281613  0.37135658  0.43430752
   0.43760931  0.62266911  0.52160773
   0.31221592  0.20144600  0.34466092
   0.56224034  0.53151203  0.25598688
   0.06225408  0.70664605  0.56561172
   0.81249427  0.87573457  0.65438972
   0.56235893  0.03704527  0.38901035
   0.56332150  0.02470517  0.12432391
   0.18746667  0.28159286  0.25555118
   0.68763114  0.12259685  0.43422029
   0.68843236  0.77698707  0.12408779
   0.68862217  0.96822052  0.83500916
   0.06246600  0.20590089  0.47858345
   0.56200287  0.04527646  0.74373195
   0.81329837  0.19772420  0.21047749
   0.18793514  0.62580347  0.65451352
   0.31273955  0.71150411  0.69890227
   0.31186739  0.20533781  0.47873152
   0.56238692  0.20581477  0.47859759
   0.43734861  0.28194913  0.25566684
   0.31172533  0.21104628  0.69894348
   0.06321583  0.05185295  0.87752535
   0.68702580  0.95101688  0.34485073
   0.31144460  0.04882927  0.87743138
   0.56289198  0.37932857  0.78917103
   0.06229217  0.87261905  0.52167758
   0.06210832  0.53162688  0.25581506
   0.43743279  0.62120082  0.43431539
   0.43735844  0.63140869  0.78860230
   0.93691181  0.78266366  0.25580110
   0.81227263  0.53249516  0.25619146
   0.18737490  0.79059345  0.61026601
   0.56249635  0.54193638  0.61039306
   0.43704980  0.45657614  0.56556026
   0.31230803  0.03729978  0.38898932
   0.56177529  0.36675868  0.30042377
   0.56293710  0.70527824  0.47874640
   0.81321539  0.20703336  0.56585911
   0.06258076  0.86714940  0.30036972
   0.06229630  0.53691067  0.38909132
   0.68713539  0.13143893  0.78908874
   0.31288102  0.21823776  0.83540251
   0.31241443  0.53152456  0.25584303
   0.81328164  0.36742869  0.30062787
   0.56271393  0.70602480  0.56583259
   0.81281270  0.70547283  0.47881383
   0.43730164  0.78633605  0.38874169
   0.31162482  0.04033453  0.61019548
   0.18736623  0.29106076  0.61014230
   0.06257874  0.37213585  0.52161867
   0.31128590  0.02456174  0.12430583
   0.18752904  0.62114429  0.43433631
   0.93742972  0.62147095  0.43415325
   0.06203565  0.54625771  0.74394929
   0.93829004  0.61753244  0.30052612
   0.18657416  0.96919067  0.83504347
   0.31134976  0.86026438  0.16617286
   0.81222302  0.70629540  0.56570878
   0.31249530  0.38008885  0.78925907
   0.93764149  0.62286229  0.52156906
   0.18730453  0.12214535  0.52161800
   0.18760872  0.63112300  0.78885022
   0.18733818  0.46090083  0.69884055
   0.18722682  0.44655199  0.21091953
   0.18735957  0.95604579  0.56579323
   0.06232695  0.71048677  0.69888934
   0.56278795  0.69531712  0.21112549
   0.56197317  0.86726059  0.30025015
   0.56303465  0.21692190  0.83503327
   0.43716349  0.45532886  0.47859989
   0.81175664  0.55283818  0.87783710
   0.81295636  0.04084758  0.61046223
   0.81250160  0.03219680  0.25571905
   0.93767382  0.12542196  0.65457547
   0.18722685  0.62226719  0.52160268
   0.93710428  0.62608080  0.65449234
   0.68782780  0.62150166  0.43450293
   0.06265812  0.03758257  0.38890966
   0.81232214  0.87171621  0.43443759
   0.68789477  0.46722404  0.83551538
   0.68709860  0.29163555  0.61023944
   0.06231553  0.36718105  0.30067680
   0.81304003  0.20226395  0.34481917
   0.81257702  0.03717096  0.38886866
   0.56265424  0.53664641  0.38892787
   0.56234863  0.54743232  0.74352578
   0.18917612  0.46658407  0.83507815
   0.18750538  0.78664599  0.38896138
   0.81228910  0.71008399  0.69905943
   0.81352114  0.86074969  0.16612191
   0.68769039  0.79153283  0.61041377
   0.68714065  0.11663979  0.30038689
   0.56212304  0.20094811  0.34470606
   0.81296265  0.53702951  0.38902480
   0.18614386  0.80051130  0.87752051
   0.56361829  0.04745051  0.87774248
   0.31236528  0.37199455  0.52162121
   0.68848270  0.11052035  0.16611824
   0.43744526  0.94613761  0.21123784
   0.43722133  0.95563502  0.47860678
   0.06233864  0.87119409  0.43430744
   0.81304631  0.52730072  0.12329347
   0.81228149  0.37635337  0.65451097
   0.68773511  0.62310566  0.52165768
   0.56260497  0.87190536  0.43441249
   0.06263916  0.86133317  0.16595903
   0.18725796  0.28680106  0.38902774
   0.93738829  0.94838890  0.21094444
   0.81282539  0.71893406  0.83543041
   0.56202752  0.20735308  0.56567925
   0.43775580  0.96101917  0.69890704
   0.18625652  0.10975439  0.16590604
   0.18643647  0.77763381  0.12365041
   0.06231358  0.21694919  0.83530460
   0.93695870  0.77691903  0.12352337
   0.56425831  0.55179105  0.87763635
   0.06272005  0.20281627  0.34504435
   0.56245453  0.37164838  0.43429700
   0.31242698  0.71662995  0.83514046
   0.43705445  0.77629783  0.12444696
   0.93785329  0.44616082  0.21059597
   0.06132701  0.35880725  0.16557705
   0.56339144  0.52539740  0.12400658
   0.43722594  0.44632473  0.21121439
   0.56225233  0.70188871  0.34494436
   0.18659495  0.29511255  0.74342488
   0.68793519  0.78634124  0.38899975
   0.43749569  0.78124006  0.25600279
   0.06260828  0.70183039  0.34498907
   0.31271744  0.36077287  0.16608548
   0.93763926  0.95570983  0.47873753
   0.68743480  0.28316111  0.25614060
   0.68772941  0.95662550  0.56544646
   0.68749730  0.28772682  0.38879746
   0.06238088  0.55304803  0.87737654
   0.93821732  0.27931468  0.12272827
   0.56255007  0.21032830  0.69895396
   0.18744151  0.12640529  0.65435915
   0.31257810  0.88193920  0.78855732
   0.56237132  0.04181984  0.61042782
   0.31160967  0.55010563  0.87745017
   0.93751303  0.46016330  0.69896181
   0.68666140  0.80028542  0.87730181
   0.68689323  0.61776162  0.30026569
   0.31241548  0.20610268  0.56569602
   0.43713726  0.95154078  0.34497051
   0.56198688  0.35981798  0.16595380
   0.68791061  0.95587806  0.47880031
   0.06194993  0.87456066  0.65431042
   0.18715215  0.94755267  0.21135197
Direct configuration=     3
   0.56243463  0.87643040  0.65428468
   0.31257099  0.19682598  0.21145900
   0.43749042  0.46112251  0.69916003
   0.18761122  0.11709171  0.30016562
   0.68773483  0.62572111  0.65437451
   0.06271455  0.71734749  0.83481584
   0.93789741  0.11125979  0.16539251
   0.81176973  0.02616921  0.12357595
   0.68775558  0.12374031  0.52156331
   0.93891270  0.80142949  0.87735688
   0.18726183  0.13096584  0.78874469
   0.06256979  0.54083259  0.61024215
   0.93795182  0.78688190  0.38896472
   0.18806738  0.61058242  0.16627124
   0.93772600  0.95182520  0.34475479
   0.56212065  0.88082868  0.78887609
   0.06259943  0.52839735  0.12340795
   0.31276429  0.70616292  0.56543499
   0.93764203  0.28275015  0.25609677
   0.93767670  0.29614370  0.74389579
   0.31240075  0.69617813  0.21138817
   0.68728726  0.45709674  0.56554468
   0.43554273  0.29915028  0.87758863
   0.43677622  0.61711268  0.30034304
   0.31236160  0.54108817  0.61018500
   0.81262132  0.04593861  0.74390131
   0.93718898  0.95656905  0.56571870
   0.06270737  0.04102652  0.61033279
   0.56356297  0.71694306  0.83520692
   0.06290262  0.19762718  0.21109897
   0.93741366  0.13097615  0.78893590
   0.93762432  0.45681155  0.56567981
   0.06279450  0.88097133  0.78866472
   0.06224923  0.37593389  0.65441452
   0.93714318  0.95951823  0.69914121
   0.43747543  0.29629582  0.74392103
   0.68687150  0.46057489  0.69907297
   0.81252202  0.70169327  0.34482034
   0.81242765  0.21753024  0.83485610
   0.81253086  0.86755150  0.30016054
   0.31262872  0.70243993  0.34491922
   0.93736385  0.12145074  0.43430817
   0.43685941  0.80057748  0.87729149
   0.68714694  0.96060146  0.69904397
   0.68784183  0.60958480  0.16646634
   0.43688158  0.46651464  0.83484988
   0.31255227  0.87240423  0.52161175
   0.43717893  0.60940106  0.16629850
   0.68681160  0.63085741  0.78909910
   0.93752041  0.46793343  0.83452716
   0.18822080  0.30097151  0.87743898
   0.43734761  0.13070246  0.78894689
   0.06237172  0.21010427  0.69915224
   0.31274021  0.04657006  0.74395012
   0.93752699  0.28690699  0.38927075
   0.93772328  0.30395948  0.87723129
   0.93671915  0.79520281  0.74383569
   0.81254273  0.05148298  0.87707316
   0.31260534  0.70525611  0.47845952
   0.81258127  0.21050815  0.69915386
   0.31260141  0.87165895  0.43437630
   0.18690342  0.12141713  0.43434149
   0.68765950  0.12655124  0.65437532
   0.18883354  0.79583547  0.74401616
   0.31311948  0.54674883  0.74410872
   0.81161732  0.88027055  0.78908782
   0.31207643  0.37084502  0.43434208
   0.06272197  0.69717136  0.21111456
   0.93751558  0.11759548  0.30037840
   0.43816337  0.96708078  0.83510255
   0.68756392  0.94694248  0.21135243
   0.93742988  0.45222804  0.34511697
   0.68799027  0.44691832  0.21147821
   0.81282978  0.54097435  0.61015231
   0.43760045  0.79612678  0.74403928
   0.43754648  0.28616360  0.38914107
   0.31279736  0.87588401  0.65434637
   0.43790159  0.62596018  0.65432812
   0.31238296  0.53634738  0.38917218
   0.43758564  0.95667920  0.56555915
   0.93715928  0.12263450  0.52161152
   0.68766503  0.45181301  0.34487208
   0.31230574  0.86686385  0.30017743
   0.06249872  0.03226494  0.25551980
   0.81285959  0.20595381  0.47834031
   0.06148351  0.38090598  0.78882929
   0.06386377  0.02685070  0.12331871
   0.43781682  0.12258382  0.52144228
   0.56264295  0.85953568  0.16652660
   0.43837131  0.11005757  0.16641641
   0.06283774  0.04537570  0.74391628
   0.31224295  0.03137439  0.25569119
   0.43737371  0.29135622  0.61017507
   0.81251229  0.37201025  0.43432610
   0.68680417  0.27582223  0.12366077
   0.43747029  0.79119034  0.61018047
   0.68779676  0.29570794  0.74390300
   0.68951958  0.30057761  0.87754134
   0.81287112  0.87275971  0.52165003
   0.56225518  0.87241300  0.52161847
   0.56272490  0.19662846  0.21155991
   0.31273750  0.37570776  0.65442174
   0.43701350  0.11628944  0.30027490
   0.31247222  0.36665867  0.30018882
   0.56254117  0.37637827  0.65445826
   0.43841043  0.27819819  0.12399131
   0.81254485  0.37264706  0.52169570
   0.81244571  0.38152284  0.78891764
   0.18734799  0.45219704  0.34484875
   0.93754736  0.29149651  0.61031499
   0.93728520  0.60939166  0.16582208
   0.18715405  0.27716211  0.12360469
   0.18751405  0.45512960  0.47839609
   0.56244223  0.37284164  0.52156277
   0.81230572  0.54578373  0.74415130
   0.06186882  0.20670591  0.56555001
   0.31231516  0.52657724  0.12382973
   0.18751248  0.95519895  0.47843304
   0.43735377  0.12121015  0.43428057
   0.06245627  0.70540683  0.47842466
   0.68760093  0.45546294  0.47851144
   0.81412784  0.36024888  0.16551754
   0.68756151  0.79536022  0.74390269
   0.56297844  0.71091869  0.69905011
   0.81273881  0.69683077  0.21128630
   0.43761877  0.12647944  0.65438348
   0.18746147  0.78212335  0.25551490
   0.43744138  0.45166730  0.34487933
   0.18727822  0.61656789  0.30021808
   0.93757324  0.45550863  0.47836980
   0.18728238  0.95204056  0.34476583
   0.18751434  0.45695588  0.56547216
   0.93822227  0.96724433  0.83442092
   0.18771813  0.96009120  0.69905055
   0.93755787  0.63018943  0.78874038
   0.68745540  0.78220881  0.25569160
   0.56241096  0.03163001  0.25576394
   0.93702277  0.79100746  0.61009267
   0.06244418  0.37132888  0.43430937
   0.43771655  0.62265373  0.52165034
   0.31249062  0.20137641  0.34473934
   0.56221174  0.53138663  0.25586079
   0.06213564  0.70652966  0.56555731
   0.81227052  0.87570458  0.65431790
   0.56227147  0.03668610  0.38919471
   0.56282912  0.02501334  0.12416441
   0.18729236  0.28178124  0.25565942
   0.68776817  0.12269824  0.43426006
   0.68775424  0.77690311  0.12408394
   0.68794634  0.96662869  0.83483630
   0.06222766  0.20556052  0.47830460
   0.56224026  0.04579515  0.74394180
   0.81290991  0.19771035  0.21096104
   0.18778029  0.62552688  0.65441163
   0.31216220  0.71112695  0.69901681
   0.31258882  0.20539901  0.47846890
   0.56218783  0.20592201  0.47831630
   0.43739421  0.28200575  0.25571150
   0.31184254  0.21150301  0.69908778
   0.06285420  0.05142211  0.87745655
   0.68707251  0.95117014  0.34487325
   0.31188259  0.04880546  0.87745743
   0.56270559  0.38037489  0.78904387
   0.06234841  0.87246530  0.52164593
   0.06235386  0.53172497  0.25580896
   0.43749158  0.62120953  0.43438855
   0.43701961  0.63105554  0.78869808
   0.93737995  0.78257772  0.25581167
   0.81261633  0.53225934  0.25604721
   0.18767288  0.79065111  0.61021435
   0.56251811  0.54154385  0.61024627
   0.43739125  0.45668313  0.56555310
   0.31240126  0.03671083  0.38917174
   0.56199477  0.36658861  0.30030505
   0.56263729  0.70493858  0.47848483
   0.81281501  0.20702893  0.56577681
   0.06257640  0.86733062  0.30020802
   0.06229270  0.53706734  0.38931392
   0.68729105  0.13139141  0.78897462
   0.31248225  0.21790064  0.83515217
   0.31204309  0.53161424  0.25581451
   0.81297065  0.36716355  0.30040266
   0.56283480  0.70610634  0.56575929
   0.81255536  0.70492063  0.47849776
   0.43723981  0.78696663  0.38901107
   0.31197988  0.04061758  0.61013622
   0.18749904  0.29131724  0.61014527
   0.06236435  0.37236123  0.52170241
   0.31213277  0.02483747  0.12407975
   0.18751663  0.62125375  0.43435723
   0.93737992  0.62135594  0.43419216
   0.06231138  0.54621386  0.74412872
   0.93832351  0.61768205  0.30030542
   0.18725878  0.96765891  0.83486853
   0.31157564  0.85979929  0.16630954
   0.81212678  0.70626416  0.56561786
   0.31234741  0.38114801  0.78918089
   0.93735403  0.62255909  0.52168014
   0.18720778  0.12226038  0.52162983
   0.18780137  0.63097715  0.78889995
   0.18747538  0.46087852  0.69900476
   0.18755266  0.44721775  0.21124070
   0.18753075  0.95624282  0.56572961
   0.06240449  0.71050192  0.69908407
   0.56257196  0.69530060  0.21126586
   0.56201762  0.86736085  0.30020384