 288 288   0   0
  0.1280206E+02  0.9726678E-09  0.8423550E-09  0.4500000E-08  0.2500000E-15
  1.000000000000000E-004
  CAR 
 unknown system                          
      6.82320068     -6.01749847  301      4.29543631      1.00000000
     -6.017  0.0000E+00  0.0000E+00
     -5.975  0.0000E+00  0.0000E+00
     -5.932  0.0000E+00  0.0000E+00
     -5.889  0.0000E+00  0.0000E+00
     -5.846  0.0000E+00  0.0000E+00
     -5.803  0.0000E+00  0.0000E+00
     -5.761  0.0000E+00  0.0000E+00
     -5.718  0.0000E+00  0.0000E+00
     -5.675  0.0000E+00  0.0000E+00
     -5.632  0.0000E+00  0.0000E+00
     -5.589  0.0000E+00  0.0000E+00
     -5.547  0.0000E+00  0.0000E+00
     -5.504  0.0000E+00  0.0000E+00
     -5.461  0.0000E+00  0.0000E+00
     -5.418  0.0000E+00  0.0000E+00
     -5.375  0.1621E-15  0.6939E-17
     -5.333  0.4312E-14  0.1915E-15
     -5.290  0.9224E-13  0.4140E-14
     -5.247  0.1685E-11  0.7627E-13
     -5.204  0.2623E-10  0.1199E-11
     -5.161  0.3477E-09  0.1608E-10
     -5.119  0.3927E-08  0.1842E-09
     -5.076  0.3782E-07  0.1803E-08
     -5.033  0.3108E-06  0.1511E-07
     -4.990  0.2180E-05  0.1084E-06
     -4.947  0.1308E-04  0.6683E-06
     -4.905  0.6720E-04  0.3545E-05
     -4.862  0.2964E-03  0.1623E-04
     -4.819  0.1126E-02  0.6444E-04
     -4.776  0.3703E-02  0.2229E-03
     -4.733  0.1060E-01  0.6767E-03
     -4.691  0.2663E-01  0.1816E-02
     -4.648  0.5925E-01  0.4352E-02
     -4.605  0.1181E+00  0.9408E-02
     -4.562  0.2133E+00  0.1854E-01
     -4.519  0.3525E+00  0.3362E-01
     -4.477  0.5378E+00  0.5664E-01
     -4.434  0.7620E+00  0.8926E-01
     -4.391  0.1008E+01  0.1324E+00
     -4.348  0.1250E+01  0.1859E+00
     -4.305  0.1461E+01  0.2484E+00
     -4.263  0.1620E+01  0.3178E+00
     -4.220  0.1723E+01  0.3915E+00
     -4.177  0.1783E+01  0.4678E+00
     -4.134  0.1831E+01  0.5462E+00
     -4.091  0.1910E+01  0.6279E+00
     -4.049  0.2051E+01  0.7157E+00
     -4.006  0.2264E+01  0.8126E+00
     -3.963  0.2531E+01  0.9210E+00
     -3.920  0.2808E+01  0.1041E+01
     -3.877  0.3038E+01  0.1171E+01
     -3.835  0.3175E+01  0.1307E+01
     -3.792  0.3202E+01  0.1444E+01
     -3.749  0.3145E+01  0.1579E+01
     -3.706  0.3058E+01  0.1710E+01
     -3.663  0.3008E+01  0.1838E+01
     -3.621  0.3046E+01  0.1969E+01
     -3.578  0.3189E+01  0.2105E+01
     -3.535  0.3414E+01  0.2251E+01
     -3.492  0.3666E+01  0.2408E+01
     -3.449  0.3886E+01  0.2575E+01
     -3.407  0.4037E+01  0.2747E+01
     -3.364  0.4113E+01  0.2924E+01
     -3.321  0.4135E+01  0.3100E+01
     -3.278  0.4136E+01  0.3278E+01
     -3.235  0.4151E+01  0.3455E+01
     -3.193  0.4205E+01  0.3635E+01
     -3.150  0.4308E+01  0.3820E+01
     -3.107  0.4460E+01  0.4011E+01
     -3.064  0.4649E+01  0.4209E+01
     -3.021  0.4852E+01  0.4417E+01
     -2.979  0.5042E+01  0.4633E+01
     -2.936  0.5192E+01  0.4855E+01
     -2.893  0.5292E+01  0.5082E+01
     -2.850  0.5351E+01  0.5311E+01
     -2.807  0.5395E+01  0.5542E+01
     -2.765  0.5457E+01  0.5775E+01
     -2.722  0.5553E+01  0.6013E+01
     -2.679  0.5659E+01  0.6255E+01
     -2.636  0.5716E+01  0.6500E+01
     -2.593  0.5672E+01  0.6743E+01
     -2.551  0.5532E+01  0.6979E+01
     -2.508  0.5390E+01  0.7210E+01
     -2.465  0.5388E+01  0.7441E+01
     -2.422  0.5639E+01  0.7682E+01
     -2.379  0.6147E+01  0.7945E+01
     -2.336  0.6786E+01  0.8236E+01
     -2.294  0.7346E+01  0.8550E+01
     -2.251  0.7637E+01  0.8877E+01
     -2.208  0.7585E+01  0.9202E+01
     -2.165  0.7277E+01  0.9513E+01
     -2.122  0.6922E+01  0.9809E+01
     -2.080  0.6747E+01  0.1010E+02
     -2.037  0.6889E+01  0.1039E+02
     -1.994  0.7332E+01  0.1071E+02
     -1.951  0.7928E+01  0.1105E+02
     -1.908  0.8473E+01  0.1141E+02
     -1.866  0.8810E+01  0.1179E+02
     -1.823  0.8891E+01  0.1217E+02
     -1.780  0.8796E+01  0.1254E+02
     -1.737  0.8674E+01  0.1291E+02
     -1.694  0.8654E+01  0.1328E+02
     -1.652  0.8781E+01  0.1366E+02
     -1.609  0.9016E+01  0.1405E+02
     -1.566  0.9292E+01  0.1444E+02
     -1.523  0.9569E+01  0.1485E+02
     -1.480  0.9841E+01  0.1527E+02
     -1.438  0.1010E+02  0.1571E+02
     -1.395  0.1032E+02  0.1615E+02
     -1.352  0.1046E+02  0.1660E+02
     -1.309  0.1055E+02  0.1705E+02
     -1.266  0.1073E+02  0.1751E+02
     -1.224  0.1122E+02  0.1799E+02
     -1.181  0.1212E+02  0.1851E+02
     -1.138  0.1333E+02  0.1908E+02
     -1.095  0.1452E+02  0.1970E+02
     -1.052  0.1533E+02  0.2036E+02
     -1.010  0.1562E+02  0.2102E+02
     -0.967  0.1554E+02  0.2169E+02
     -0.924  0.1552E+02  0.2235E+02
     -0.881  0.1595E+02  0.2304E+02
     -0.838  0.1702E+02  0.2376E+02
     -0.796  0.1867E+02  0.2456E+02
     -0.753  0.2079E+02  0.2545E+02
     -0.710  0.2340E+02  0.2645E+02
     -0.667  0.2672E+02  0.2760E+02
     -0.624  0.3089E+02  0.2892E+02
     -0.582  0.3573E+02  0.3045E+02
     -0.539  0.4065E+02  0.3219E+02
     -0.496  0.4501E+02  0.3412E+02
     -0.453  0.4840E+02  0.3619E+02
     -0.410  0.5087E+02  0.3837E+02
     -0.368  0.5274E+02  0.4062E+02
     -0.325  0.5428E+02  0.4295E+02
     -0.282  0.5556E+02  0.4532E+02
     -0.239  0.5647E+02  0.4774E+02
     -0.196  0.5693E+02  0.5018E+02
     -0.154  0.5699E+02  0.5262E+02
     -0.111  0.5686E+02  0.5505E+02
     -0.068  0.5681E+02  0.5748E+02
     -0.025  0.5710E+02  0.5993E+02
      0.018  0.5795E+02  0.6241E+02
      0.060  0.5950E+02  0.6495E+02
      0.103  0.6180E+02  0.6760E+02
      0.146  0.6477E+02  0.7037E+02
      0.189  0.6825E+02  0.7329E+02
      0.232  0.7200E+02  0.7637E+02
      0.274  0.7573E+02  0.7962E+02
      0.317  0.7915E+02  0.8300E+02
      0.360  0.8198E+02  0.8651E+02
      0.403  0.8414E+02  0.9011E+02
      0.446  0.8569E+02  0.9378E+02
      0.488  0.8673E+02  0.9749E+02
      0.531  0.8729E+02  0.1012E+03
      0.574  0.8735E+02  0.1050E+03
      0.617  0.8695E+02  0.1087E+03
      0.660  0.8615E+02  0.1124E+03
      0.702  0.8501E+02  0.1160E+03
      0.745  0.8351E+02  0.1196E+03
      0.788  0.8167E+02  0.1231E+03
      0.831  0.7963E+02  0.1265E+03
      0.874  0.7773E+02  0.1298E+03
      0.916  0.7638E+02  0.1331E+03
      0.959  0.7577E+02  0.1363E+03
      1.002  0.7582E+02  0.1396E+03
      1.045  0.7615E+02  0.1428E+03
      1.088  0.7633E+02  0.1461E+03
      1.130  0.7611E+02  0.1494E+03
      1.173  0.7550E+02  0.1526E+03
      1.216  0.7469E+02  0.1558E+03
      1.259  0.7390E+02  0.1590E+03
      1.302  0.7320E+02  0.1621E+03
      1.345  0.7253E+02  0.1652E+03
      1.387  0.7169E+02  0.1683E+03
      1.430  0.7049E+02  0.1713E+03
      1.473  0.6891E+02  0.1742E+03
      1.516  0.6725E+02  0.1771E+03
      1.559  0.6607E+02  0.1799E+03
      1.601  0.6592E+02  0.1828E+03
      1.644  0.6707E+02  0.1856E+03
      1.687  0.6938E+02  0.1886E+03
      1.730  0.7238E+02  0.1917E+03
      1.773  0.7558E+02  0.1949E+03
      1.815  0.7867E+02  0.1983E+03
      1.858  0.8152E+02  0.2018E+03
      1.901  0.8408E+02  0.2054E+03
      1.944  0.8636E+02  0.2091E+03
      1.987  0.8838E+02  0.2129E+03
      2.029  0.9021E+02  0.2167E+03
      2.072  0.9186E+02  0.2207E+03
      2.115  0.9328E+02  0.2246E+03
      2.158  0.9442E+02  0.2287E+03
      2.201  0.9543E+02  0.2328E+03
      2.243  0.9669E+02  0.2369E+03
      2.286  0.9864E+02  0.2411E+03
      2.329  0.1016E+03  0.2455E+03
      2.372  0.1055E+03  0.2500E+03
      2.415  0.1099E+03  0.2547E+03
      2.457  0.1143E+03  0.2596E+03
      2.500  0.1181E+03  0.2647E+03
      2.543  0.1212E+03  0.2698E+03
      2.586  0.1235E+03  0.2751E+03
      2.629  0.1255E+03  0.2805E+03
      2.671  0.1273E+03  0.2859E+03
      2.714  0.1293E+03  0.2915E+03
      2.757  0.1315E+03  0.2971E+03
      2.800  0.1342E+03  0.3029E+03
      2.843  0.1371E+03  0.3087E+03
      2.885  0.1399E+03  0.3147E+03
      2.928  0.1418E+03  0.3208E+03
      2.971  0.1418E+03  0.3268E+03
      3.014  0.1392E+03  0.3328E+03
      3.057  0.1338E+03  0.3385E+03
      3.099  0.1261E+03  0.3439E+03
      3.142  0.1172E+03  0.3489E+03
      3.185  0.1083E+03  0.3536E+03
      3.228  0.1005E+03  0.3579E+03
      3.271  0.9437E+02  0.3619E+03
      3.313  0.9007E+02  0.3658E+03
      3.356  0.8732E+02  0.3695E+03
      3.399  0.8569E+02  0.3732E+03
      3.442  0.8476E+02  0.3768E+03
      3.485  0.8416E+02  0.3804E+03
      3.527  0.8360E+02  0.3840E+03
      3.570  0.8296E+02  0.3875E+03
      3.613  0.8248E+02  0.3911E+03
      3.656  0.8265E+02  0.3946E+03
      3.699  0.8401E+02  0.3982E+03
      3.741  0.8678E+02  0.4019E+03
      3.784  0.9071E+02  0.4058E+03
      3.827  0.9518E+02  0.4099E+03
      3.870  0.9949E+02  0.4141E+03
      3.913  0.1032E+03  0.4185E+03
      3.955  0.1060E+03  0.4231E+03
      3.998  0.1079E+03  0.4277E+03
      4.041  0.1088E+03  0.4324E+03
      4.084  0.1088E+03  0.4370E+03
      4.127  0.1081E+03  0.4416E+03
      4.169  0.1070E+03  0.4462E+03
      4.212  0.1058E+03  0.4508E+03
      4.255  0.1045E+03  0.4552E+03
      4.298  0.1033E+03  0.4596E+03
      4.341  0.1024E+03  0.4640E+03
      4.383  0.1018E+03  0.4684E+03
      4.426  0.1015E+03  0.4727E+03
      4.469  0.1011E+03  0.4771E+03
      4.512  0.1004E+03  0.4814E+03
      4.555  0.9919E+02  0.4856E+03
      4.597  0.9786E+02  0.4898E+03
      4.640  0.9694E+02  0.4939E+03
      4.683  0.9695E+02  0.4981E+03
      4.726  0.9811E+02  0.5023E+03
      4.769  0.1003E+03  0.5066E+03
      4.811  0.1030E+03  0.5110E+03
      4.854  0.1056E+03  0.5155E+03
      4.897  0.1077E+03  0.5201E+03
      4.940  0.1087E+03  0.5248E+03
      4.983  0.1084E+03  0.5294E+03
      5.026  0.1063E+03  0.5340E+03
      5.068  0.1017E+03  0.5383E+03
      5.111  0.9387E+02  0.5423E+03
      5.154  0.8233E+02  0.5459E+03
      5.197  0.6759E+02  0.5488E+03
      5.240  0.5122E+02  0.5509E+03
      5.282  0.3542E+02  0.5525E+03
      5.325  0.2215E+02  0.5534E+03
      5.368  0.1243E+02  0.5539E+03
      5.411  0.6232E+01  0.5542E+03
      5.454  0.2780E+01  0.5543E+03
      5.496  0.1100E+01  0.5544E+03
      5.539  0.3857E+00  0.5544E+03
      5.582  0.1196E+00  0.5544E+03
      5.625  0.3281E-01  0.5544E+03
      5.668  0.7946E-02  0.5544E+03
      5.710  0.1697E-02  0.5544E+03
      5.753  0.3192E-03  0.5544E+03
      5.796  0.5270E-04  0.5544E+03
      5.839  0.7617E-05  0.5544E+03
      5.882  0.9602E-06  0.5544E+03
      5.924  0.1052E-06  0.5544E+03
      5.967  0.9992E-08  0.5544E+03
      6.010  0.8194E-09  0.5544E+03
      6.053  0.5789E-10  0.5544E+03
      6.096  0.3515E-11  0.5544E+03
      6.138  0.1823E-12  0.5544E+03
      6.181  0.7717E-14  0.5544E+03
      6.224  0.2594E-15  0.5544E+03
      6.267  0.0000E+00  0.5544E+03
      6.310  0.0000E+00  0.5544E+03
      6.352  0.0000E+00  0.5544E+03
      6.395  0.0000E+00  0.5544E+03
      6.438  0.0000E+00  0.5544E+03
      6.481  0.0000E+00  0.5544E+03
      6.524  0.0000E+00  0.5544E+03
      6.566  0.0000E+00  0.5544E+03
      6.609  0.0000E+00  0.5544E+03
      6.652  0.0000E+00  0.5544E+03
      6.695  0.0000E+00  0.5544E+03
      6.738  0.0000E+00  0.5544E+03
      6.780  0.0000E+00  0.5544E+03
      6.823  0.0000E+00  0.5544E+03
