unknown system                          
           1
     9.726678    0.000000    0.000000
     0.000000    8.423550    0.000000
     0.000000    0.000000   45.000000
   Fe   Mn
 281   7
Direct configuration=     1
   0.05388331  0.70124678  0.21130109
   0.31827975  0.72427673  0.87621808
   0.68829701  0.95869544  0.61151005
   0.43825421  0.45829334  0.61157911
   0.44079744  0.28734376  0.25524078
   0.05835600  0.38762515  0.83355375
   0.30846836  0.88745438  0.83350869
   0.44700586  0.62633087  0.70041367
   0.05994615  0.21299811  0.74490804
   0.17851164  0.45096153  0.21132056
   0.56779497  0.21069813  0.47744646
   0.06669059  0.87498822  0.56689452
   0.56745060  0.22465473  0.87622871
   0.80845109  0.52808376  0.12397053
   0.42914815  0.95126686  0.21141711
   0.56656455  0.37501340  0.56682978
   0.81112291  0.04182809  0.38831792
   0.68191812  0.78884346  0.52241346
   0.44280801  0.46074460  0.47746705
   0.43421291  0.96274817  0.74489647
   0.44162721  0.62504453  0.56685280
   0.57171922  0.87607623  0.70056946
   0.30887999  0.02564828  0.12402148
   0.68972305  0.95887861  0.34397992
   0.68799672  0.78241163  0.12427268
   0.05262120  0.37382977  0.29953340
   0.68922996  0.46779330  0.87609821
   0.42925687  0.45127283  0.21141838
   0.80864756  0.37536006  0.43306098
   0.56355359  0.70842466  0.61158524
   0.55975060  0.54067499  0.65589093
   0.81774313  0.86160529  0.16672091
   0.56547290  0.53743139  0.25511254
   0.68952046  0.45889924  0.34395253
   0.19184932  0.61153170  0.16647890
   0.19421082  0.79986804  0.78889155
   0.44724003  0.12599672  0.70043109
   0.92793812  0.62350708  0.29958872
   0.31748788  0.22374928  0.87628706
   0.31665913  0.87484736  0.56685424
   0.81525212  0.53748930  0.25518009
   0.80981698  0.54075835  0.65584600
   0.55882421  0.52644620  0.12397129
   0.56937578  0.04920975  0.78884610
   0.19102363  0.28728479  0.25528724
   0.80866185  0.87538999  0.43302327
   0.57215850  0.37640083  0.70040105
   0.05725727  0.02640474  0.12419192
   0.30980832  0.54065937  0.65591280
   0.56474802  0.20882364  0.34395094
   0.18797784  0.95839345  0.61146669
   0.30298397  0.37391775  0.29958778
   0.43470528  0.79050349  0.65600283
   0.19519205  0.29911012  0.78878289
   0.06742790  0.36299382  0.16662726
   0.69713065  0.62620047  0.70042617
   0.31121788  0.54128829  0.38845548
   0.06842429  0.72333901  0.87620251
   0.93348456  0.63892581  0.83380115
   0.31956913  0.54935053  0.78910149
   0.30435389  0.20059621  0.21125479
   0.06792781  0.71060096  0.47744785
   0.55416276  0.20084576  0.21119005
   0.30987749  0.21265509  0.74491150
   0.07189835  0.37615763  0.70052016
   0.18337003  0.63772460  0.83351735
   0.07033671  0.04897430  0.78881593
   0.44162000  0.12503903  0.56693337
   0.93476831  0.29076678  0.65580974
   0.80402047  0.20114074  0.21121013
   0.92908316  0.95146660  0.21128930
   0.94164505  0.62524660  0.56681637
   0.80799128  0.38743166  0.83363666
   0.19713878  0.62632961  0.70033122
   0.80862363  0.88853905  0.83374473
   0.68493516  0.29064804  0.65604130
   0.31312056  0.20833416  0.61151921
   0.43467537  0.46271398  0.74484613
   0.43612388  0.79130596  0.38840790
   0.68475752  0.96240539  0.74477237
   0.80370869  0.70121114  0.21118944
   0.81353699  0.70834482  0.61162442
   0.43665387  0.78348508  0.12408710
   0.30985240  0.71240141  0.74476687
   0.32069937  0.04918436  0.78882537
   0.81114023  0.54183737  0.38831386
   0.68198529  0.28882391  0.52243830
   0.69466332  0.79954294  0.78882496
   0.19079355  0.78735862  0.25523582
   0.69176292  0.11231147  0.16673191
   0.69277417  0.96073174  0.47738766
   0.94010778  0.95905074  0.34399414
   0.80723752  0.03917924  0.52254121
   0.68368495  0.62487196  0.43290025
   0.43965343  0.45875144  0.34398530
   0.81072843  0.21144408  0.74462072
   0.43952566  0.96747101  0.87602689
   0.56648926  0.87480415  0.56682948
   0.80919600  0.02802376  0.12395839
   0.42802113  0.62364186  0.29949294
   0.81684569  0.72300557  0.87630287
   0.68828132  0.45840140  0.61150573
   0.55859489  0.38741372  0.83353553
   0.80305886  0.37345810  0.29943662
   0.18582741  0.29130851  0.38833943
   0.82034888  0.55029392  0.78873199
   0.18229455  0.78935105  0.52254538
   0.30291676  0.87392542  0.29957701
   0.17861959  0.95152593  0.21133389
   0.18447080  0.46245273  0.74480547
   0.43228834  0.28886771  0.52231369
   0.06458728  0.70860177  0.34378537
   0.18500390  0.79073481  0.65596281
   0.44472974  0.79930709  0.78884306
   0.68384449  0.12503594  0.43292214
   0.93213335  0.78878473  0.52248191
   0.69184054  0.61255663  0.16670981
   0.81452985  0.70882124  0.34386779
   0.93455891  0.46240096  0.74492267
   0.18978716  0.45878418  0.34399539
   0.56996031  0.54963022  0.78909011
   0.56673580  0.36269698  0.16643504
   0.56466046  0.70888566  0.34391405
   0.55288163  0.37379192  0.29957179
   0.18969792  0.46799208  0.87615375
   0.19189325  0.11163537  0.16647659
   0.44463424  0.29913418  0.78880536
   0.69094888  0.78749855  0.25538701
   0.93340042  0.13922060  0.83378921
   0.44278695  0.96077334  0.47747975
   0.56727926  0.72490473  0.87627680
   0.19268225  0.46083139  0.47747938
   0.93436428  0.28213375  0.12419812
   0.31144858  0.04142540  0.38841932
   0.06026302  0.04057135  0.65608356
   0.55849395  0.37495442  0.43307007
   0.68379529  0.46248974  0.74500853
   0.56014632  0.21272248  0.74481831
   0.94717661  0.12635427  0.70036219
   0.55988420  0.04063913  0.65587518
   0.55723351  0.53923825  0.52253765
   0.17795870  0.12375764  0.29954023
   0.44129954  0.11040505  0.16646461
   0.67816182  0.62349620  0.29943714
   0.92786192  0.12352880  0.29960193
   0.81667519  0.37497739  0.56690694
   0.05279810  0.87386119  0.29954931
   0.19174585  0.62496770  0.56690124
   0.94488258  0.80030161  0.78875152
   0.30844478  0.38736280  0.83350543
   0.94005703  0.46752386  0.87608894
   0.43366145  0.63763624  0.83352814
   0.06457207  0.20857883  0.34378351
   0.18974704  0.96647319  0.87609016
   0.93466082  0.78209425  0.12421029
   0.68628537  0.79139111  0.38842698
   0.93474237  0.79057988  0.65590734
   0.94118135  0.11223685  0.16660691
   0.43510618  0.29087498  0.65605219
   0.05414379  0.20111252  0.21127853
   0.67895185  0.95125722  0.21128093
   0.17797607  0.62365226  0.29954214
   0.82214601  0.87626592  0.70038752
   0.94684193  0.62641543  0.70044924
   0.19718719  0.12618781  0.70033521
   0.94267497  0.46055795  0.47728412
   0.81336754  0.20850364  0.61154419
   0.18358927  0.62503407  0.43312156
   0.42801631  0.12367217  0.29949067
   0.67813576  0.12370048  0.29945720
   0.56152381  0.54150378  0.38845375
   0.81437469  0.20870664  0.34378934
   0.43970181  0.46742316  0.87617541
   0.55848905  0.88779757  0.83335567
   0.31769722  0.21039529  0.47729869
   0.19264038  0.96069893  0.47746184
   0.05856367  0.88745341  0.83347666
   0.05725963  0.53917355  0.52251150
   0.94264575  0.96054140  0.47726058
   0.06325380  0.70814894  0.61159533
   0.55723595  0.03920024  0.52245315
   0.69533449  0.29901767  0.78876586
   0.81771556  0.36170307  0.16671516
   0.43363994  0.12491710  0.43293643
   0.06785049  0.21059917  0.47741538
   0.30990036  0.04067551  0.65592572
   0.43217177  0.78884775  0.52232563
   0.18378217  0.13758985  0.83354625
   0.18587029  0.28317111  0.12430189
   0.93977250  0.45920864  0.34400782
   0.56672694  0.86271149  0.16647291
   0.30407914  0.70073188  0.21127514
   0.94103341  0.61246337  0.16660904
   0.18837139  0.45861250  0.61152774
   0.07243949  0.87642937  0.70032047
   0.05977311  0.54063926  0.65589240
   0.30777979  0.52544082  0.12400882
   0.93634364  0.79134950  0.38842814
   0.94495711  0.29908737  0.78876544
   0.18476584  0.29059910  0.65588920
   0.93812189  0.95827637  0.61149356
   0.80994526  0.71207714  0.74489375
   0.69084265  0.28755220  0.25528822
   0.05926642  0.71223135  0.74499544
   0.67897152  0.45132409  0.21126507
   0.81784571  0.21060050  0.47744169
   0.56776424  0.71057632  0.47745054
   0.06766130  0.86297717  0.16666094
   0.93228610  0.28888528  0.52246264
   0.68467245  0.79056394  0.65588732
   0.05846150  0.87478477  0.43298713
   0.06819358  0.22430272  0.87593848
   0.81001909  0.04061540  0.65595081
   0.55963232  0.02632487  0.12392854
   0.30879676  0.37503559  0.43289454
   0.31654105  0.37489286  0.56684495
   0.31762473  0.71032901  0.47729092
   0.05722695  0.03915343  0.52251428
   0.32229691  0.87606175  0.70045871
   0.06558779  0.53744009  0.25518503
   0.68342492  0.13898906  0.83380117
   0.81545939  0.03750123  0.25518413
   0.18344298  0.12509669  0.43307911
   0.69731675  0.12639074  0.70040627
   0.18233314  0.28924527  0.52249849
   0.44087464  0.78745805  0.25522198
   0.44127751  0.61042049  0.16648349
   0.06344910  0.20845349  0.61154014
   0.18593419  0.79132798  0.38832620
   0.30695355  0.53883596  0.52245209
   0.82178635  0.37629437  0.70021239
   0.68641310  0.29132162  0.38842612
   0.19157237  0.12497189  0.56689365
   0.68959303  0.96721584  0.87616688
   0.69176833  0.12492808  0.56693014
   0.43966291  0.95876285  0.34399797
   0.18438677  0.96279505  0.74479848
   0.94123603  0.78760845  0.25530384
   0.55864431  0.87490842  0.43307708
   0.30869981  0.87496149  0.43290862
   0.80722726  0.53929124  0.52253401
   0.92911600  0.45165283  0.21125501
   0.31540689  0.53771708  0.25516874
   0.56167898  0.04155095  0.38843962
   0.93811909  0.45822234  0.61157234
   0.06126139  0.04130711  0.38840537
   0.06120929  0.54152561  0.38835648
   0.43593875  0.29119472  0.38836769
   0.69266935  0.46058799  0.47737592
   0.06667584  0.37499077  0.56688748
   0.55367531  0.70102805  0.21119011
   0.94110626  0.28748619  0.25529158
   0.81954787  0.04962649  0.78898462
   0.18982794  0.95883150  0.34400649
   0.55293793  0.87384132  0.29958276
   0.05843305  0.37496482  0.43293455
   0.31472195  0.70875516  0.34396582
   0.31484248  0.20878248  0.34401606
   0.94167387  0.12513158  0.56679087
   0.43853716  0.95854089  0.61154372
   0.56571187  0.03752229  0.25516068
   0.18612577  0.78304120  0.12432625
   0.06572140  0.03749072  0.25523712
   0.69163106  0.62499338  0.56690631
   0.05703616  0.52636885  0.12414642
   0.30709403  0.03858277  0.52233127
   0.68771856  0.28232160  0.12421260
   0.81788081  0.71087027  0.47745404
   0.43347710  0.13766140  0.83354738
   0.32225158  0.37634968  0.70038414
   0.68347392  0.63872921  0.83360876
   0.55978848  0.71200470  0.74490034
   0.93632674  0.29143635  0.38842404
   0.93868916  0.96698221  0.87604417
   0.56300609  0.20806258  0.61141270
   0.81663718  0.87508557  0.56690759
   0.80309063  0.87357266  0.29944802
   0.31550095  0.03774722  0.25517379
   0.43668039  0.28348441  0.12409837
   0.31339885  0.70844598  0.61155331
   0.43357914  0.62501333  0.43294077
   0.93336333  0.62537266  0.43312169
   0.31857577  0.86291286  0.16585412
   0.07073675  0.54967171  0.78866002
   0.93339207  0.12531032  0.43313250
   0.31831000  0.36284902  0.16584570
   0.93298341  0.96185708  0.74471154
   0.81695450  0.22473378  0.87571766
Direct configuration=     2
   0.05448389  0.70120225  0.21127953
   0.31795994  0.72368028  0.87615527
   0.68829560  0.95857989  0.61149830
   0.43827313  0.45826398  0.61156323
   0.44019117  0.28730914  0.25528031
   0.05863537  0.38755011  0.83364875
   0.30884180  0.88734651  0.83361160
   0.44633281  0.62635058  0.70041251
   0.06047633  0.21301967  0.74485330
   0.17907842  0.45106526  0.21132139
   0.56722815  0.21047007  0.47750328
   0.06632233  0.87495738  0.56689015
   0.56706331  0.22392820  0.87616936
   0.80865959  0.52841067  0.12404745
   0.42972255  0.95128631  0.21138751
   0.56623843  0.37494935  0.56682071
   0.81119974  0.04185536  0.38833091
   0.68251357  0.78915209  0.52237306
   0.44223757  0.46050773  0.47751648
   0.43477493  0.96277029  0.74483582
   0.44126244  0.62498120  0.56685240
   0.57111850  0.87613045  0.70053452
   0.30912543  0.02641555  0.12403886
   0.68926294  0.95875092  0.34398789
   0.68795729  0.78202924  0.12432763
   0.05335288  0.37376303  0.29954699
   0.68899529  0.46842596  0.87601453
   0.42979970  0.45128688  0.21138466
   0.80895330  0.37537404  0.43305341
   0.56350814  0.70836948  0.61157031
   0.56021451  0.54076343  0.65587284
   0.81727889  0.86189803  0.16663289
   0.56488385  0.53738718  0.25516832
   0.68909292  0.45876294  0.34396680
   0.19134351  0.61170350  0.16644241
   0.19389056  0.79972297  0.78886094
   0.44657067  0.12605255  0.70042758
   0.92858519  0.62346366  0.29959715
   0.31715729  0.22314521  0.87620451
   0.31627816  0.87482637  0.56684459
   0.81472692  0.53739242  0.25522769
   0.81024807  0.54088485  0.65583528
   0.55900059  0.52687372  0.12403829
   0.56899735  0.04924395  0.78884150
   0.19041052  0.28730507  0.25531542
   0.80896100  0.87539156  0.43302055
   0.57146008  0.37640565  0.70041145
   0.05779577  0.02681794  0.12423566
   0.31026303  0.54074111  0.65589185
   0.56430991  0.20873188  0.34398271
   0.18805101  0.95832906  0.61146205
   0.30364499  0.37387229  0.29959980
   0.43518074  0.79065804  0.65596912
   0.19472905  0.29901231  0.78878848
   0.06690682  0.36311304  0.16654955
   0.69643169  0.62625075  0.70042020
   0.31125366  0.54135834  0.38844652
   0.06797451  0.72281358  0.87616256
   0.93386962  0.63861218  0.83385242
   0.31928609  0.54939644  0.78907435
   0.30481070  0.20056362  0.21124024
   0.06736048  0.71036010  0.47751061
   0.55461877  0.20085923  0.21118295
   0.31044774  0.21277716  0.74484779
   0.07125172  0.37627103  0.70049102
   0.18375497  0.63761279  0.83358965
   0.06988604  0.04901594  0.78881778
   0.44126148  0.12497548  0.56691729
   0.93525767  0.29089716  0.65579423
   0.80450889  0.20114472  0.21119577
   0.92961507  0.95145161  0.21129936
   0.94127770  0.62519840  0.56681038
   0.80839675  0.38731442  0.83370963
   0.19644602  0.62636104  0.70033526
   0.80895793  0.88833190  0.83383225
   0.68538553  0.29075061  0.65600786
   0.31317777  0.20827011  0.61151591
   0.43518945  0.46273576  0.74479108
   0.43617851  0.79135426  0.38841044
   0.68522954  0.96247482  0.74473308
   0.80424300  0.70119742  0.21118241
   0.81348240  0.70830595  0.61159289
   0.43671799  0.78288812  0.12411924
   0.31032107  0.71247771  0.74472313
   0.32021176  0.04928105  0.78885460
   0.81118839  0.54184681  0.38833032
   0.68257977  0.28913326  0.52239657
   0.69425382  0.79953657  0.78883290
   0.19022955  0.78735265  0.25527402
   0.69136081  0.11247283  0.16664944
   0.69220439  0.96051155  0.47745929
   0.93961109  0.95899828  0.34400869
   0.80778137  0.03936934  0.52248104
   0.68388375  0.62491674  0.43292463
   0.43924897  0.45870622  0.34401098
   0.81109069  0.21173085  0.74460704
   0.43946553  0.96808574  0.87594764
   0.56617357  0.87476633  0.56681931
   0.80934857  0.02835982  0.12404074
   0.42867498  0.62360378  0.29952069
   0.81659462  0.72255950  0.87624909
   0.68826241  0.45832938  0.61149392
   0.55902219  0.38734756  0.83365152
   0.80368930  0.37346507  0.29946069
   0.18590159  0.29135577  0.38834904
   0.81979809  0.55028905  0.78875530
   0.18285677  0.78954650  0.52249458
   0.30359384  0.87387248  0.29959119
   0.17916460  0.95152543  0.21133304
   0.18507259  0.46253552  0.74475768
   0.43281145  0.28913748  0.52227857
   0.06417980  0.70856369  0.34383955
   0.18546569  0.79079898  0.65592317
   0.44432750  0.79924483  0.78884000
   0.68400743  0.12505359  0.43294075
   0.93270518  0.78900016  0.52244046
   0.69139884  0.61265434  0.16663207
   0.81412471  0.70876664  0.34391413
   0.93509897  0.46244627  0.74484705
   0.18935519  0.45869890  0.34401488
   0.56960419  0.54960077  0.78906496
   0.56653425  0.36286105  0.16635727
   0.56423671  0.70877737  0.34395136
   0.55357112  0.37373579  0.29958584
   0.18954313  0.46853063  0.87607145
   0.19139840  0.11179498  0.16643786
   0.44423435  0.29907981  0.78879813
   0.69032532  0.78746499  0.25539658
   0.93378108  0.13889840  0.83382382
   0.44222435  0.96053327  0.47752352
   0.56699900  0.72420773  0.87620710
   0.19210191  0.46056884  0.47752507
   0.93463300  0.28177354  0.12425805
   0.31144034  0.04146019  0.38841903
   0.06064747  0.04064253  0.65603351
   0.55885868  0.37499908  0.43306429
   0.68436643  0.46248731  0.74493448
   0.56065769  0.21285244  0.74476242
   0.94652922  0.12643808  0.70036686
   0.56033289  0.04071882  0.65586442
   0.55777693  0.53944956  0.52247107
   0.17864074  0.12368765  0.29955145
   0.44092718  0.11068920  0.16640901
   0.67875231  0.62346501  0.29946799
   0.92853274  0.12347222  0.29960676
   0.81629186  0.37495303  0.56689906
   0.05349807  0.87378145  0.29955984
   0.19135914  0.62494884  0.56689983
   0.94436128  0.80012594  0.78877266
   0.30883045  0.38722253  0.83362133
   0.94005592  0.46815095  0.87600340
   0.43409727  0.63753209  0.83361334
   0.06416455  0.20855386  0.34384111
   0.18955000  0.96715190  0.87600272
   0.93490392  0.78174210  0.12426779
   0.68629158  0.79145212  0.38841922
   0.93523223  0.79071410  0.65588668
   0.94079883  0.11239841  0.16655284
   0.43549117  0.29094838  0.65602136
   0.05471767  0.20110887  0.21126115
   0.67949710  0.95127385  0.21128453
   0.17865258  0.62359766  0.29954969
   0.82145066  0.87632641  0.70037344
   0.94622372  0.62647625  0.70044552
   0.19651205  0.12626862  0.70034440
   0.94216223  0.46032231  0.47736218
   0.81335181  0.20841097  0.61152899
   0.18402706  0.62505137  0.43310739
   0.42866917  0.12361193  0.29952202
   0.67873381  0.12363030  0.29948479
   0.56148096  0.54152685  0.38844360
   0.81400981  0.20868081  0.34385337
   0.43961113  0.46804642  0.87607936
   0.55885701  0.88766977  0.83347744
   0.31717140  0.21022683  0.47737002
   0.19206894  0.96047457  0.47750755
   0.05894372  0.88739634  0.83356788
   0.05780986  0.53936641  0.52244426
   0.94213935  0.96030378  0.47734086
   0.06328388  0.70813484  0.61157176
   0.55777528  0.03942610  0.52240291
   0.69485093  0.29899698  0.78876959
   0.81722758  0.36195426  0.16662546
   0.43393617  0.12492515  0.43295469
   0.06730875  0.21036991  0.47747992
   0.31038112  0.04077126  0.65590198
   0.43272705  0.78911891  0.52228954
   0.18427042  0.13743871  0.83360646
   0.18588684  0.28251282  0.12431791
   0.93933867  0.45911346  0.34401726
   0.56653138  0.86289173  0.16638900
   0.30455021  0.70064524  0.21125613
   0.94066534  0.61257212  0.16655508
   0.18836145  0.45851019  0.61151351
   0.07171321  0.87649431  0.70031757
   0.06024346  0.54074832  0.65588794
   0.30815945  0.52622625  0.12402560
   0.93631524  0.79147104  0.38842661
   0.94447923  0.29903110  0.78876571
   0.18521215  0.29073095  0.65587946
   0.93818041  0.95824035  0.61149585
   0.81045915  0.71213226  0.74485061
   0.69025387  0.28751573  0.25531369
   0.05994136  0.71233511  0.74491789
   0.67949643  0.45132561  0.21126784
   0.81727518  0.21037915  0.47750183
   0.56720853  0.71036701  0.47750568
   0.06711432  0.86309619  0.16658017
   0.93283408  0.28910116  0.52242130
   0.68510758  0.79067388  0.65587538
   0.05887733  0.87480802  0.43298755
   0.06794167  0.22358665  0.87592624
   0.81045111  0.04069755  0.65592330
   0.55969383  0.02676307  0.12400569
   0.30905341  0.37502924  0.43292412
   0.31618745  0.37484646  0.56683329
   0.31711148  0.71018002  0.47736346
   0.05779066  0.03935439  0.52244461
   0.32158166  0.87614288  0.70044844
   0.06500426  0.53738568  0.25523112
   0.68390888  0.13876963  0.83384494
   0.81489663  0.03739563  0.25523335
   0.18392057  0.12510429  0.43307293
   0.69659957  0.12640627  0.70039409
   0.18289635  0.28945664  0.52245484
   0.44025242  0.78741143  0.25526792
   0.44087002  0.61068695  0.16643226
   0.06342085  0.20837169  0.61152020
   0.18599779  0.79137279  0.38833966
   0.30757242  0.53912939  0.52239911
   0.82112682  0.37635104  0.70023111
   0.68639582  0.29140573  0.38841764
   0.19124861  0.12493617  0.56688490
   0.68943991  0.96777775  0.87607744
   0.69136588  0.12491074  0.56691630
   0.43926920  0.95870515  0.34402188
   0.18493976  0.96282288  0.74475649
   0.94055087  0.78754631  0.25533593
   0.55897817  0.87496132  0.43307106
   0.30897928  0.87497442  0.43293437
   0.80776833  0.53945729  0.52247266
   0.92964033  0.45160401  0.21126934
   0.31482349  0.53756520  0.25522755
   0.56160941  0.04156726  0.38843352
   0.93816486  0.45815614  0.61155907
   0.06128895  0.04139655  0.38840380
   0.06124011  0.54157295  0.38836422
   0.43603480  0.29127216  0.38837866
   0.69212818  0.46039387  0.47744845
   0.06631415  0.37495938  0.56688602
   0.55420681  0.70099228  0.21118192
   0.94044978  0.28745593  0.25532261
   0.81912222  0.04962489  0.78898057
   0.18940486  0.95874171  0.34402592
   0.55362051  0.87376593  0.29959429
   0.05884287  0.37496339  0.43294316
   0.31429130  0.70865711  0.34399587
   0.31437825  0.20867935  0.34403592
   0.94128952  0.12509803  0.56679182
   0.43848357  0.95847339  0.61153417
   0.56507610  0.03745178  0.25520783
   0.18612386  0.78242897  0.12434476
   0.06511882  0.03743244  0.25527421
   0.69126917  0.62495434  0.56690243
   0.05755816  0.52679178  0.12419930
   0.30767320  0.03894305  0.52229662
   0.68770097  0.28195039  0.12428007
   0.81729331  0.71058619  0.47751090
   0.43388558  0.13752642  0.83361280
   0.32157704  0.37633905  0.70037959
   0.68398360  0.63858104  0.83367231
   0.56029262  0.71206429  0.74485336
   0.93629379  0.29153043  0.38842182
   0.93876218  0.96752810  0.87597129
   0.56306476  0.20805591  0.61141859
   0.81627747  0.87504479  0.56690303
   0.80371850  0.87354710  0.29947520
   0.31492046  0.03758794  0.25523466
   0.43671897  0.28288613  0.12412836
   0.31339223  0.70838989  0.61154192
   0.43388184  0.62501757  0.43295814
   0.93369237  0.62534330  0.43311941
   0.31808101  0.86294224  0.16582580
   0.07024993  0.54964479  0.78866128
   0.93372790  0.12528908  0.43312695
   0.31785606  0.36288528  0.16581777
   0.93366748  0.96209261  0.74469192
   0.81678676  0.22405254  0.87571121
Direct configuration=     3
   0.05628562  0.70106867  0.21121487
   0.31700054  0.72189093  0.87596684
   0.68829135  0.95823322  0.61146302
   0.43832992  0.45817591  0.61151559
   0.43837233  0.28720528  0.25539889
   0.05947347  0.38732497  0.83393374
   0.30996210  0.88702292  0.83392034
   0.44431364  0.62640971  0.70040901
   0.06206688  0.21308434  0.74468911
   0.18077875  0.45137646  0.21132387
   0.56552770  0.20978589  0.47767376
   0.06521757  0.87486486  0.56687704
   0.56590142  0.22174861  0.87599129
   0.80928510  0.52939143  0.12427820
   0.43144574  0.95134466  0.21129872
   0.56526006  0.37475717  0.56679350
   0.81143023  0.04193717  0.38836990
   0.68429992  0.79007795  0.52225186
   0.44052625  0.45979712  0.47766475
   0.43646099  0.96283667  0.74465384
   0.44016814  0.62479120  0.56685122
   0.56931636  0.87629309  0.70042972
   0.30986175  0.02871735  0.12409100
   0.68788259  0.95836787  0.34401180
   0.68783903  0.78088208  0.12449248
   0.05554794  0.37356284  0.29958776
   0.68829131  0.47032396  0.87576347
   0.43142821  0.45132903  0.21128353
   0.80987052  0.37541597  0.43303070
   0.56337178  0.70820395  0.61152552
   0.56160623  0.54102876  0.65581857
   0.81588618  0.86277624  0.16636881
   0.56311673  0.53725455  0.25533565
   0.68781030  0.45835405  0.34400959
   0.18982606  0.61221890  0.16633294
   0.19292978  0.79928777  0.78876910
   0.44456261  0.12622003  0.70041705
   0.93052640  0.62333337  0.29962245
   0.31616551  0.22133300  0.87595686
   0.31513526  0.87476338  0.56681566
   0.81315131  0.53710176  0.25537052
   0.81154133  0.54126434  0.65580311
   0.55952975  0.52815629  0.12423929
   0.56786207  0.04934657  0.78882769
   0.18857119  0.28736591  0.25539998
   0.80985845  0.87539627  0.43301239
   0.56936481  0.37642011  0.70044262
   0.05941129  0.02805753  0.12436687
   0.31162717  0.54098631  0.65582902
   0.56299558  0.20845660  0.34407799
   0.18827050  0.95813589  0.61144813
   0.30562806  0.37373592  0.29963583
   0.43660711  0.79112167  0.65586799
   0.19334007  0.29871891  0.78880525
   0.06534358  0.36347069  0.16631642
   0.69433481  0.62640161  0.70040229
   0.31136097  0.54156847  0.38841963
   0.06662520  0.72123727  0.87604273
   0.93502483  0.63767128  0.83400623
   0.31843695  0.54953416  0.78899294
   0.30618115  0.20046585  0.21119658
   0.06565847  0.70963752  0.47769890
   0.55598679  0.20089966  0.21116165
   0.31215850  0.21314338  0.74465665
   0.06931184  0.37661122  0.70040360
   0.18490976  0.63727735  0.83380654
   0.06853402  0.04914083  0.78882331
   0.44018595  0.12478484  0.56686906
   0.93672575  0.29128832  0.65574770
   0.80597414  0.20115665  0.21115266
   0.93121078  0.95140663  0.21132954
   0.94017566  0.62505379  0.56679239
   0.80961317  0.38696273  0.83392856
   0.19436772  0.62645531  0.70034738
   0.80996081  0.88771045  0.83409483
   0.68673663  0.29105831  0.65590751
   0.31334941  0.20807794  0.61150603
   0.43673171  0.46280110  0.74462593
   0.43634239  0.79149914  0.38841806
   0.68664560  0.96268311  0.74461520
   0.80584595  0.70115625  0.21116130
   0.81331862  0.70818935  0.61149829
   0.43691035  0.78109726  0.12421565
   0.31172707  0.71270659  0.74459192
   0.31874893  0.04957111  0.78894227
   0.81133286  0.54187512  0.38837970
   0.68436320  0.29006132  0.52227136
   0.69302530  0.79951746  0.78885671
   0.18853755  0.78733475  0.25538860
   0.69015447  0.11295690  0.16640203
   0.69049508  0.95985097  0.47767420
   0.93812103  0.95884089  0.34405233
   0.80941290  0.03993964  0.52230053
   0.68448014  0.62505108  0.43299775
   0.43803558  0.45857055  0.34408803
   0.81217748  0.21259118  0.74456599
   0.43928513  0.96992993  0.87570986
   0.56522652  0.87465287  0.56678877
   0.80980626  0.02936799  0.12428781
   0.43063656  0.62348956  0.29960391
   0.81584141  0.72122131  0.87608775
   0.68820566  0.45811329  0.61145850
   0.56030409  0.38714909  0.83399946
   0.80558062  0.37348598  0.29953292
   0.18612411  0.29149757  0.38837788
   0.81814575  0.55027442  0.78882523
   0.18454344  0.79013286  0.52234218
   0.30562508  0.87371366  0.29963372
   0.18079963  0.95152390  0.21133052
   0.18687796  0.46278386  0.74461433
   0.43438079  0.28994680  0.52217321
   0.06295738  0.70844946  0.34400209
   0.18685107  0.79099147  0.65580426
   0.44312077  0.79905807  0.78883083
   0.68449624  0.12510655  0.43299658
   0.93442066  0.78964644  0.52231612
   0.69007375  0.61294747  0.16639884
   0.81290929  0.70860287  0.34405317
   0.93671916  0.46258220  0.74462016
   0.18805928  0.45844303  0.34407336
   0.56853584  0.54951244  0.78898951
   0.56592959  0.36335326  0.16612395
   0.56296548  0.70845250  0.34406330
   0.55563958  0.37356740  0.29962802
   0.18907879  0.47014627  0.87582455
   0.18991385  0.11227382  0.16632165
   0.44303468  0.29891671  0.78877645
   0.68845465  0.78736429  0.25542526
   0.93492308  0.13793179  0.83392763
   0.44053656  0.95981306  0.47765481
   0.56615820  0.72211671  0.87599798
   0.19036091  0.45978118  0.47766215
   0.93543918  0.28069293  0.12443787
   0.31141561  0.04156454  0.38841815
   0.06180081  0.04085605  0.65588337
   0.55995289  0.37513304  0.43304697
   0.68607983  0.46248000  0.74471234
   0.56219182  0.21324232  0.74459478
   0.94458705  0.12668950  0.70038085
   0.56167895  0.04095790  0.65583213
   0.55940720  0.54008348  0.52227135
   0.18068687  0.12347767  0.29958509
   0.43981010  0.11154166  0.16624221
   0.68052378  0.62337146  0.29956055
   0.93054519  0.12330250  0.29962126
   0.81514184  0.37487996  0.56687540
   0.05559797  0.87354224  0.29959144
   0.19019899  0.62489226  0.56689560
   0.94279737  0.79959893  0.78883610
   0.30998749  0.38680173  0.83396901
   0.94005257  0.47003221  0.87574678
   0.43540473  0.63721964  0.83386895
   0.06294197  0.20847894  0.34401390
   0.18895887  0.96918805  0.87574040
   0.93563322  0.78068565  0.12444032
   0.68631023  0.79163514  0.38839595
   0.93670179  0.79111676  0.65582473
   0.93965128  0.11288310  0.16639062
   0.43664614  0.29116858  0.65592889
   0.05643928  0.20109793  0.21120899
   0.68113283  0.95132373  0.21129534
   0.18068211  0.62343386  0.29957235
   0.81936461  0.87650787  0.70033120
   0.94436906  0.62665868  0.70043434
   0.19448662  0.12651106  0.70037196
   0.94062400  0.45961540  0.47759639
   0.81330464  0.20813298  0.61148338
   0.18534043  0.62510327  0.43306488
   0.43062776  0.12343118  0.29961606
   0.68052794  0.12341975  0.29956757
   0.56135242  0.54159608  0.38841315
   0.81291515  0.20860332  0.34404546
   0.43933909  0.46991617  0.87579120
   0.55996089  0.88728636  0.83384276
   0.31559392  0.20972145  0.47758401
   0.19035461  0.95980151  0.47764468
   0.06008386  0.88722514  0.83384153
   0.05946053  0.53994497  0.52224255
   0.94062015  0.95959093  0.47758171
   0.06337413  0.70809256  0.61150104
   0.55939327  0.04010368  0.52225219
   0.69340024  0.29893492  0.78878075
   0.81576365  0.36270782  0.16635635
   0.43482485  0.12494930  0.43300948
   0.06568350  0.20968214  0.47767353
   0.31182339  0.04105850  0.65583076
   0.43439291  0.78993240  0.52218125
   0.18573516  0.13698528  0.83378709
   0.18593648  0.28053794  0.12436597
   0.93803716  0.45882790  0.34404559
   0.56594468  0.86343245  0.16613727
   0.30596342  0.70038532  0.21119911
   0.93956112  0.61289838  0.16639319
   0.18833163  0.45820328  0.61147083
   0.06953437  0.87668915  0.70030885
   0.06165449  0.54107550  0.65587458
   0.30929842  0.52858255  0.12407594
   0.93623005  0.79183566  0.38842202
   0.94304560  0.29886227  0.78876653
   0.18655108  0.29112651  0.65585024
   0.93835597  0.95813229  0.61150272
   0.81200082  0.71229761  0.74472121
   0.68848752  0.28740631  0.25539010
   0.06196619  0.71264638  0.74468525
   0.68107114  0.45133017  0.21127616
   0.81556360  0.20971508  0.47768227